Title
82296
    1SAPS     N    1   6.169   5.659  10.926  0.4378 -0.3352 -0.2495
    1SAPS   HN1    2   6.272   5.662  10.916  0.3560 -1.0803 -1.5226
    1SAPS   HN2    3   6.132   5.563  10.918 -1.4980  0.4977 -2.4383
    1SAPS   HN3    4   6.123   5.723  10.858 -0.3710 -2.0301 -1.3388
    1SAPS   C12    5   6.137   5.718  11.064 -0.3805 -0.4096 -0.8354
    1SAPS  H12A    6   6.186   5.659  11.140 -1.1980 -0.3980 -0.2764
    1SAPS   C13    7   6.172   5.864  11.088 -0.5553  0.3432  0.2980
    1SAPS  O13A    8   6.224   5.935  10.997  0.3327  0.3900 -0.4110
    1SAPS  O13B    9   6.138   5.915  11.198 -0.1252  0.1924  0.2881
    1SAPS   C11   10   5.977   5.705  11.092 -0.0976  0.1381 -0.1906
    1SAPS  H11A   11   5.916   5.772  11.027 -1.5455 -0.4641  0.5145
    1SAPS  H11B   12   5.955   5.745  11.193 -2.8314  0.7285 -0.9551
    1SAPS     P   13   5.797   5.505  11.065  0.2495 -0.3765 -0.2967
    1SAPS   O13   14   5.815   5.360  11.068 -0.5239  0.8896 -0.2146
    1SAPS   O14   15   5.712   5.563  11.171  0.4151  0.6516  0.2917
    1SAPS   O12   16   5.937   5.570  11.081 -0.1204  0.5016  0.7036
    1SAPS   O11   17   5.742   5.556  10.925 -0.5772  0.3098 -0.4089
    1SAPS    C1   18   5.819   5.516  10.808  0.0338  0.1646 -0.0309
    1SAPS    HA   19   5.924   5.550  10.820 -0.0703 -0.1836  2.2774
    1SAPS    HB   20   5.826   5.407  10.788 -0.6338  0.3185 -1.2193
    1SAPS    C2   21   5.762   5.579  10.686 -0.1910  0.4279  0.1728
    1SAPS    HS   22   5.750   5.686  10.713  0.1139  0.2905  0.8721
    1SAPS   O21   23   5.635   5.534  10.644  0.6522 -0.5006  0.0023
    1SAPS   C21   24   5.571   5.598  10.541  0.3850  0.0893  0.2263
    1SAPS   O22   25   5.613   5.700  10.484  0.1122 -0.1171 -0.5887
    1SAPS   C22   26   5.430   5.546  10.529 -0.2540 -0.0427 -0.1708
    1SAPS   H2R   27   5.392   5.547  10.633  1.5178 -2.1233  0.5703
    1SAPS   H2S   28   5.368   5.615  10.468  1.8357  1.3033 -0.8907
    1SAPS    C3   29   5.858   5.555  10.567 -0.4127  0.6679 -0.0937
    1SAPS    HX   30   5.956   5.592  10.603  0.1546 -0.7532 -0.1113
    1SAPS    HY   31   5.832   5.627  10.486  1.6441  1.9658  0.3424
    1SAPS   O31   32   5.863   5.416  10.527  0.4960 -0.1431 -0.0604
    1SAPS   C31   33   5.957   5.344  10.590 -0.1942  0.1577  0.5882
    1SAPS   O32   34   6.048   5.390  10.656 -0.0807  0.2231 -0.4984
    1SAPS   C32   35   5.931   5.188  10.566 -0.0373 -0.7487  0.6966
    1SAPS   H2X   36   5.892   5.150  10.663 -0.9364 -0.6018  0.4096
    1SAPS   H2Y   37   6.026   5.142  10.532 -0.1426 -1.1994  1.0082
    1SAPS   C23   38   5.427   5.398  10.490  0.2584  0.8773 -0.1774
    1SAPS   H3R   39   5.337   5.347  10.530  1.8175 -1.9240 -0.0215
    1SAPS   H3S   40   5.514   5.351  10.540  0.2897  1.2633  0.1380
    1SAPS   C24   41   5.439   5.374  10.335  0.7954 -0.2588  0.1852
    1SAPS   H4R   42   5.456   5.267  10.310 -1.5240 -0.4309 -0.9109
    1SAPS   H4S   43   5.532   5.428  10.304 -0.2243  1.9463  0.7404
    1SAPS   C25   44   5.319   5.435  10.262  0.0780  0.2863  0.4457
    1SAPS   H5R   45   5.258   5.508  10.318  0.7215  1.2878 -0.1219
    1SAPS   C26   46   5.284   5.411  10.138  0.8235 -0.1129  0.0922
    1SAPS   H6R   47   5.200   5.469  10.095 -0.0874 -2.3307 -1.3208
    1SAPS   C27   48   5.350   5.330  10.038 -0.1604 -0.1614  0.0994
    1SAPS   H7R   49   5.420   5.254  10.079  0.3535 -0.7099 -1.7053
    1SAPS   H7S   50   5.407   5.397   9.970 -0.4266 -1.0097 -0.9882
    1SAPS   C28   51   5.247   5.255   9.956 -0.1921 -0.1702 -0.0394
    1SAPS   H8R   52   5.240   5.150   9.988  0.7252  0.0879  1.1255
    1SAPS   C29   53   5.182   5.302   9.843 -1.8043 -0.0894  0.1736
    1SAPS   H9R   54   5.121   5.231   9.785 -0.6577 -1.3454  0.4557
    1SAPS  C210   55   5.211   5.442   9.787  0.2938 -0.6517  0.4046
    1SAPS  H10R   56   5.258   5.511   9.860 -2.0555 -0.6657  2.0304
    1SAPS  H10S   57   5.111   5.484   9.766  0.1810 -1.9177 -1.9532
    1SAPS  C211   58   5.288   5.442   9.654  0.0468  0.8334  1.1088
    1SAPS  H11R   59   5.394   5.472   9.659  0.6304 -0.2252 -2.2729
    1SAPS  C212   60   5.241   5.424   9.525  0.4782  0.2588 -0.3148
    1SAPS  H12R   61   5.316   5.449   9.448  1.4839  1.7786  1.1134
    1SAPS  C213   62   5.098   5.410   9.486  0.2986  1.0894  0.0624
    1SAPS  H13R   63   5.036   5.392   9.577  0.0416 -0.3197 -0.3671
    1SAPS  H13S   64   5.089   5.327   9.412 -0.2778  0.9632  0.2665
    1SAPS  C214   65   5.055   5.541   9.437  0.4145 -0.0256  0.3732
    1SAPS  H14R   66   5.032   5.610   9.519 -1.5053 -0.2295  0.0556
    1SAPS  C215   67   5.039   5.581   9.308  0.0839  0.3172 -0.3140
    1SAPS  H15R   68   4.996   5.679   9.284  1.2775  1.0970  0.6051
    1SAPS  C216   69   5.079   5.492   9.190 -0.0757  0.3201 -0.6505
    1SAPS  H16R   70   5.038   5.390   9.201 -2.6643  0.9653 -3.2622
    1SAPS  H16S   71   5.191   5.490   9.189 -0.0040  2.0168 -2.1528
    1SAPS  C217   72   5.020   5.545   9.061  0.3806 -0.0574 -0.1971
    1SAPS  H17R   73   5.055   5.649   9.044  1.4300 -0.1093  1.4481
    1SAPS  H17S   74   4.909   5.547   9.055  0.3792  2.0194 -0.3407
    1SAPS  C218   75   5.075   5.462   8.937 -0.3081  0.4358 -0.6754
    1SAPS  H18R   76   5.037   5.360   8.960 -1.4339  1.4176  2.3065
    1SAPS  H18S   77   5.185   5.459   8.952 -0.3764 -1.0472 -0.2839
    1SAPS  C219   78   5.034   5.525   8.796  0.2261  0.5233  0.1302
    1SAPS  H19R   79   5.087   5.620   8.773  1.0922 -0.1764 -0.9134
    1SAPS  H19S   80   4.927   5.554   8.797 -0.1044 -0.6649  0.1632
    1SAPS  C220   81   5.052   5.436   8.672  0.9593 -0.1360  0.0601
    1SAPS  H20R   82   4.992   5.479   8.590  0.4809 -1.5569 -0.3576
    1SAPS  H20S   83   4.997   5.343   8.697  0.5622  0.3275  0.9381
    1SAPS  H20T   84   5.158   5.415   8.646  0.6134  0.0296 -1.6020
    1SAPS   C33   85   5.824   5.154  10.455 -0.4889  0.2581 -0.5980
    1SAPS   H3X   86   5.731   5.214  10.451  0.5046  1.9089  0.3519
    1SAPS   H3Y   87   5.802   5.048  10.479  3.0543 -0.0330  2.4327
    1SAPS   C34   88   5.875   5.157  10.313 -0.0878  0.1348 -0.2930
    1SAPS   H4X   89   5.947   5.076  10.286 -1.6433 -1.6887  0.7908
    1SAPS   H4Y   90   5.915   5.258  10.292  0.4386 -0.4081 -2.0866
    1SAPS   C35   91   5.749   5.151  10.221 -1.3076  0.6911 -0.1177
    1SAPS   H5X   92   5.689   5.244  10.230  0.1124  2.0776 -3.3198
    1SAPS   H5Y   93   5.693   5.061  10.253 -0.1365  0.2658  0.7975
    1SAPS   C36   94   5.797   5.147  10.074  0.1464  0.1302  0.4574
    1SAPS   H6X   95   5.856   5.056  10.053  1.8729  1.2072  0.4554
    1SAPS   H6Y   96   5.856   5.240  10.058  1.2295 -0.4875  0.7593
    1SAPS   C37   97   5.675   5.145   9.975 -0.3933  0.4760 -0.0626
    1SAPS   H7X   98   5.615   5.237   9.988 -2.9084 -1.1777  0.7803
    1SAPS   H7Y   99   5.606   5.066  10.012  0.6465  0.6148  2.3794
    1SAPS   C38  100   5.727   5.127   9.835 -0.2619 -0.0470 -0.4602
    1SAPS   H8X  101   5.726   5.020   9.803 -2.3820 -0.0773 -0.4564
    1SAPS   H8Y  102   5.830   5.167   9.827  0.1408 -0.9516  0.1073
    1SAPS   C39  103   5.642   5.199   9.731 -0.1863 -0.9605 -0.8804
    1SAPS   H9X  104   5.636   5.306   9.760  0.1228 -1.1673 -0.0151
    1SAPS   H9Y  105   5.543   5.152   9.746  0.1035 -1.2162  0.3927
    1SAPS  C310  106   5.692   5.176   9.585 -0.0378 -0.1965  0.1080
    1SAPS  H10X  107   5.653   5.078   9.550 -1.2405  0.7563 -1.3667
    1SAPS  H10Y  108   5.802   5.167   9.578  0.0833  0.7149  0.6003
    1SAPS  C311  109   5.629   5.286   9.493 -0.3839  0.1054 -0.3110
    1SAPS  H11X  110   5.676   5.385   9.512 -0.0412 -0.3250  1.2736
    1SAPS  H11Y  111   5.520   5.291   9.512 -0.3214  2.2273 -0.2877
    1SAPS  C312  112   5.669   5.250   9.351  0.2050 -0.1852  0.5687
    1SAPS  H12X  113   5.622   5.151   9.333 -1.7124  1.2043 -2.9364
    1SAPS  H12Y  114   5.778   5.258   9.333  0.7995  0.0169  3.6150
    1SAPS  C313  115   5.600   5.346   9.242 -0.9084 -0.5668  0.3710
    1SAPS  H13X  116   5.629   5.452   9.257 -0.8615 -0.4115 -0.7718
    1SAPS  H13Y  117   5.491   5.333   9.259 -1.3476  2.0481 -0.0594
    1SAPS  C314  118   5.632   5.321   9.094  0.1679  0.3465 -0.0185
    1SAPS  H14X  119   5.738   5.348   9.078 -0.3204  1.8571 -0.8638
    1SAPS  H14Y  120   5.570   5.388   9.031 -0.1879  4.4268  4.1163
    1SAPS  C315  121   5.612   5.168   9.063 -0.5509  1.0310  0.7002
    1SAPS  H15X  122   5.505   5.144   9.075 -1.2572  3.4601 -0.0887
    1SAPS  H15Y  123   5.683   5.100   9.114  0.1396  0.1420 -1.3195
    1SAPS  C316  124   5.637   5.139   8.912 -0.3216  0.1814 -0.5257
    1SAPS  H16X  125   5.744   5.153   8.885 -0.2590  0.5330 -0.1092
    1SAPS  H16Y  126   5.593   5.218   8.846 -1.1158  1.2945  1.2625
    1SAPS  C317  127   5.608   4.998   8.873 -0.5310  0.4612  0.1260
    1SAPS  H17X  128   5.498   4.988   8.861 -0.1257 -1.2043 -4.5691
    1SAPS  H17Y  129   5.639   4.924   8.950  3.2209 -0.0805 -1.6930
    1SAPS  C318  130   5.693   4.944   8.751  0.0410 -0.7056 -0.8076
    1SAPS  H18X  131   5.676   5.011   8.664 -1.8331 -2.2435 -1.6834
    1SAPS  H18Y  132   5.654   4.846   8.715 -1.6469 -1.0905  1.7904
    1SAPS  H18Z  133   5.803   4.949   8.768 -0.3174  0.3165  1.6663
    2SAPS     N  134   4.808   6.370  10.776 -0.3333 -0.2452 -0.1853
    2SAPS   HN1  135   4.801   6.271  10.805 -0.4820  0.0021  0.6396
    2SAPS   HN2  136   4.733   6.410  10.715  0.7762  1.3866 -0.5396
    2SAPS   HN3  137   4.891   6.377  10.714 -2.3077 -0.8111 -3.1358
    2SAPS   C12  138   4.829   6.461  10.897  0.0103  0.2422  0.6768
    2SAPS  H12A  139   4.734   6.446  10.946  1.0673 -0.0844  2.6998
    2SAPS   C13  140   4.945   6.420  10.989  0.7337  0.0247  0.8997
    2SAPS  O13A  141   4.989   6.304  10.977 -0.0174 -0.4365 -0.0355
    2SAPS  O13B  142   4.976   6.497  11.083  0.1354  0.4726 -0.6797
    2SAPS   C11  143   4.827   6.610  10.846 -0.3912 -0.3523  0.1442
    2SAPS  H11A  144   4.839   6.676  10.935  2.8799 -4.7163  3.3626
    2SAPS  H11B  145   4.727   6.632  10.804 -0.3555  2.0656  1.1313
    2SAPS     P  146   5.019   6.760  10.726 -0.0714  0.2869  0.5614
    2SAPS   O13  147   5.044   6.818  10.858  0.1421 -0.5201  0.5609
    2SAPS   O14  148   5.142   6.728  10.653  0.3591 -0.1902  0.1820
    2SAPS   O12  149   4.925   6.631  10.742 -0.3469 -0.5177 -0.3238
    2SAPS   O11  150   4.925   6.848  10.643 -0.5933 -0.8038  0.6227
    2SAPS    C1  151   4.846   6.799  10.533 -0.0751 -0.3306 -0.5380
    2SAPS    HA  152   4.812   6.695  10.551  0.5299 -0.8268 -2.1064
    2SAPS    HB  153   4.759   6.866  10.516  0.9926  1.2054 -0.1416
    2SAPS    C2  154   4.928   6.794  10.401  0.0385 -0.0065 -0.2074
    2SAPS    HS  155   4.985   6.699  10.402 -0.4468 -0.3447  2.3030
    2SAPS   O21  156   5.016   6.914  10.393  0.5544  0.1505  0.2798
    2SAPS   C21  157   5.138   6.891  10.340  0.2894  0.8044 -0.3624
    2SAPS   O22  158   5.185   6.791  10.286  0.4112 -0.2305 -0.0297
    2SAPS   C22  159   5.209   7.027  10.361  0.8266  0.0912  0.4478
    2SAPS   H2R  160   5.146   7.112  10.327  1.0569  0.1259  0.0992
    2SAPS   H2S  161   5.217   7.037  10.472 -0.4854  2.7011  0.3696
    2SAPS    C3  162   4.836   6.797  10.283 -0.7594  0.0999 -0.7145
    2SAPS    HX  163   4.788   6.898  10.281  2.5276  1.8043 -1.8308
    2SAPS    HY  164   4.767   6.710  10.286 -0.3397 -0.2942 -1.9487
    2SAPS   O31  165   4.921   6.790  10.168 -0.5392 -0.2573 -0.9562
    2SAPS   C31  166   4.962   6.669  10.127  0.0546  0.0597  0.6888
    2SAPS   O32  167   4.925   6.564  10.175 -0.3246  0.2729  0.8255
    2SAPS   C32  168   5.072   6.681  10.011 -0.2711 -0.5383 -0.7383
    2SAPS   H2X  169   5.160   6.739  10.047 -0.4553 -2.1793  2.9108
    2SAPS   H2Y  170   5.024   6.730   9.924 -0.3294  0.3425 -0.2235
    2SAPS   C23  171   5.345   7.023  10.285 -0.1747 -0.4253  0.2650
    2SAPS   H3R  172   5.403   6.939  10.328 -0.6700 -0.5296  0.7447
    2SAPS   H3S  173   5.401   7.113  10.318 -2.6186  1.1028  0.4614
    2SAPS   C24  174   5.331   7.012  10.125  0.6432 -0.2362 -0.1578
    2SAPS   H4R  175   5.294   6.910  10.100 -0.3143  0.2249 -0.6597
    2SAPS   H4S  176   5.428   7.023  10.073  0.1900 -0.4696 -1.0760
    2SAPS   C25  177   5.250   7.129  10.080  0.1410 -0.0696 -0.4335
    2SAPS   H5R  178   5.256   7.229  10.126 -1.1462  0.7289 -1.9089
    2SAPS   C26  179   5.174   7.132   9.967  0.3497  0.4920 -0.1118
    2SAPS   H6R  180   5.118   7.223   9.945  0.1665  0.1685 -1.0300
    2SAPS   C27  181   5.150   7.008   9.875 -0.3315  0.2650  0.3355
    2SAPS   H7R  182   5.177   6.913   9.926  1.5677  0.8776  0.5682
    2SAPS   H7S  183   5.228   7.031   9.800 -1.9324  1.5947 -0.9946
    2SAPS   C28  184   5.020   7.007   9.799  0.6645  0.2385  0.0616
    2SAPS   H8R  185   4.927   6.976   9.849  0.9570  1.5887  1.5026
    2SAPS   C29  186   4.996   7.040   9.667  0.6147  0.6390 -0.2361
    2SAPS   H9R  187   4.895   7.027   9.626  1.4944  0.2933 -2.4299
    2SAPS  C210  188   5.103   7.091   9.581  0.7516 -0.0714  0.6971
    2SAPS  H10R  189   5.182   7.015   9.564  0.8402 -0.0313  0.9262
    2SAPS  H10S  190   5.158   7.177   9.624  2.2857 -0.5073 -0.2897
    2SAPS  C211  191   5.068   7.125   9.439 -0.1584 -0.2181  1.0088
    2SAPS  H11R  192   4.995   7.051   9.402 -0.8668  0.5318  0.8648
    2SAPS  C212  193   5.102   7.222   9.364 -0.7653 -0.1643  0.5888
    2SAPS  H12R  194   5.042   7.236   9.273  1.2353  0.7272 -0.6703
    2SAPS  C213  195   5.193   7.344   9.391  0.0510  0.6307 -0.0709
    2SAPS  H13R  196   5.280   7.342   9.322  0.4496 -1.3082  0.4380
    2SAPS  H13S  197   5.223   7.350   9.498  0.2187  0.9866 -0.1353
    2SAPS  C214  198   5.118   7.473   9.358  0.0723 -0.0534  0.5712
    2SAPS  H14R  199   5.095   7.489   9.252  2.0314 -1.9120 -0.1879
    2SAPS  C215  200   5.084   7.562   9.454  0.3399 -0.2360  0.4088
    2SAPS  H15R  201   5.025   7.648   9.418  4.2105  2.8548  0.8187
    2SAPS  C216  202   5.105   7.547   9.606  0.0542 -0.1395 -0.3966
    2SAPS  H16R  203   5.105   7.437   9.624 -1.1565 -0.6357 -2.9622
    2SAPS  H16S  204   5.012   7.590   9.647  0.3397  0.9440 -0.8585
    2SAPS  C217  205   5.228   7.611   9.673  0.3986  0.3556  0.4246
    2SAPS  H17R  206   5.215   7.721   9.676  3.8710  0.8415  0.6147
    2SAPS  H17S  207   5.319   7.602   9.609 -0.6874  1.1235 -1.3220
    2SAPS  C218  208   5.258   7.566   9.815 -0.1835 -0.2739 -0.5613
    2SAPS  H18R  209   5.340   7.623   9.864 -1.9159  0.7027  1.3325
    2SAPS  H18S  210   5.276   7.457   9.815  1.6365 -0.0235 -2.4048
    2SAPS  C219  211   5.148   7.596   9.919 -0.3829  0.6341  0.0503
    2SAPS  H19R  212   5.074   7.516   9.896  1.8410 -1.8572  1.0155
    2SAPS  H19S  213   5.101   7.697   9.920 -0.8741  0.4449 -1.4891
    2SAPS  C220  214   5.194   7.569  10.067 -0.3951 -0.1007  0.2885
    2SAPS  H20R  215   5.238   7.466  10.068 -0.3247 -0.0815 -0.3147
    2SAPS  H20S  216   5.109   7.577  10.138 -0.1970  0.9658  0.4225
    2SAPS  H20T  217   5.279   7.635  10.094 -0.4351 -1.6249  4.9630
    2SAPS   C33  218   5.140   6.551   9.963 -0.4933  0.6317 -0.3742
    2SAPS   H3X  219   5.183   6.492  10.047  0.9229 -1.0020 -2.1388
    2SAPS   H3Y  220   5.225   6.577   9.896  0.5461  0.5074  0.8585
    2SAPS   C34  221   5.051   6.453   9.881 -0.0404 -0.1875  0.2574
    2SAPS   H4X  222   4.993   6.497   9.797  0.5128  0.3445  0.1504
    2SAPS   H4Y  223   4.979   6.402   9.949 -0.4176 -0.2136 -0.1588
    2SAPS   C35  224   5.129   6.335   9.828 -0.9317  0.5965  0.1953
    2SAPS   H5X  225   5.198   6.311   9.911 -2.4432  0.1874  1.3843
    2SAPS   H5Y  226   5.173   6.356   9.728 -0.9209 -0.6713 -0.0804
    2SAPS   C36  227   5.035   6.212   9.813  0.2887 -0.5670 -0.7210
    2SAPS   H6X  228   4.954   6.232   9.740 -0.1994 -0.1640 -0.0788
    2SAPS   H6Y  229   4.978   6.197   9.907  0.8938  2.1935  0.1852
    2SAPS   C37  230   5.116   6.097   9.768 -0.2358  0.2888  0.1112
    2SAPS   H7X  231   5.072   6.000   9.800  0.5965  0.4045  1.7500
    2SAPS   H7Y  232   5.213   6.105   9.822  0.1776  2.2835 -0.8377
    2SAPS   C38  233   5.138   6.097   9.612  0.6109  0.0607 -0.2856
    2SAPS   H8X  234   5.230   6.039   9.594  0.9645  0.0816  1.2809
    2SAPS   H8Y  235   5.162   6.195   9.566 -1.2481  0.4795 -0.4766
    2SAPS   C39  236   5.016   6.047   9.528  0.4628 -0.4215 -0.2536
    2SAPS   H9X  237   4.932   6.111   9.563  1.0278  0.3947 -0.3621
    2SAPS   H9Y  238   5.003   5.939   9.552  1.7999 -0.7649 -0.9835
    2SAPS  C310  239   5.043   6.066   9.377  0.4357  0.5170  0.4972
    2SAPS  H10X  240   5.116   5.994   9.336 -0.0558 -0.0587  0.6122
    2SAPS  H10Y  241   5.095   6.164   9.365  2.0164 -0.3372  0.1696
    2SAPS  C311  242   4.911   6.039   9.303 -0.1426 -0.1698 -0.0348
    2SAPS  H11X  243   4.829   6.101   9.344 -0.2137 -0.9428  1.0335
    2SAPS  H11Y  244   4.879   5.936   9.332 -0.2054 -0.3779 -0.8131
    2SAPS  C312  245   4.934   6.052   9.150 -0.4871  0.3702 -0.1990
    2SAPS  H12X  246   5.040   6.022   9.135 -0.0429  1.8864 -0.2894
    2SAPS  H12Y  247   4.919   6.157   9.116 -0.9339 -0.0693 -1.3794
    2SAPS  C313  248   4.842   5.959   9.067 -0.2253  0.5251 -0.3415
    2SAPS  H13X  249   4.740   6.003   9.079 -0.7301 -0.9550  1.2210
    2SAPS  H13Y  250   4.846   5.858   9.113  1.6013  0.1508 -1.2329
    2SAPS  C314  251   4.872   5.942   8.916  0.1406  0.4686  1.5314
    2SAPS  H14X  252   4.980   5.919   8.902 -0.8161 -5.0181  1.2234
    2SAPS  H14Y  253   4.845   6.039   8.869 -0.4403 -0.1161  0.6244
    2SAPS  C315  254   4.803   5.826   8.852  0.5131  0.2358 -0.6661
    2SAPS  H15X  255   4.696   5.847   8.876  0.9048  1.3511  0.2315
    2SAPS  H15Y  256   4.824   5.732   8.908 -2.6772  0.9296  2.0265
    2SAPS  C316  257   4.809   5.810   8.693 -0.2182  0.5809  0.3479
    2SAPS  H16X  258   4.911   5.808   8.649 -0.5354 -0.2031 -0.3793
    2SAPS  H16Y  259   4.765   5.901   8.645  0.8992  0.2869 -1.3119
    2SAPS  C317  260   4.707   5.699   8.659 -0.0293 -0.6485  0.4581
    2SAPS  H17X  261   4.711   5.620   8.737 -2.0397 -1.2680 -0.0217
    2SAPS  H17Y  262   4.739   5.656   8.562  0.6999 -0.1508  0.4673
    2SAPS  C318  263   4.558   5.736   8.670 -0.2087 -1.0929  0.0730
    2SAPS  H18X  264   4.537   5.820   8.601  0.4214 -1.2078 -0.2666
    2SAPS  H18Y  265   4.541   5.769   8.774  4.4229 -1.0706  1.0471
    2SAPS  H18Z  266   4.505   5.644   8.637  1.0867 -2.2905  1.2125
    3SAPS     N  267   3.711   2.004  11.160 -0.4045 -0.0271 -0.0864
    3SAPS   HN1  268   3.811   2.034  11.167 -0.5413  0.3585  0.2355
    3SAPS   HN2  269   3.677   1.994  11.062 -2.4216  2.5095  0.2502
    3SAPS   HN3  270   3.645   2.082  11.179 -1.4115 -1.0728  0.8336
    3SAPS   C12  271   3.698   1.891  11.250  0.4352 -0.1820  0.3466
    3SAPS  H12A  272   3.786   1.830  11.233  1.0186  0.9646 -0.9477
    3SAPS   C13  273   3.714   1.916  11.407  0.3780  0.5096 -0.0756
    3SAPS  O13A  274   3.769   2.020  11.453  0.4447 -0.3717  1.1000
    3SAPS  O13B  275   3.702   1.808  11.474  1.0444 -0.1500 -0.5227
    3SAPS   C11  276   3.562   1.826  11.228  0.4806 -0.0688  0.0625
    3SAPS  H11A  277   3.482   1.904  11.238 -0.5398 -1.1041  0.1981
    3SAPS  H11B  278   3.537   1.762  11.315  0.8009  0.9486  0.9329
    3SAPS     P  279   3.610   1.637  11.045 -0.3053 -0.0719 -0.0648
    3SAPS   O13  280   3.757   1.631  11.079 -0.2092 -0.0723 -0.0475
    3SAPS   O14  281   3.523   1.530  11.101  0.0332 -0.4023 -0.0229
    3SAPS   O12  282   3.546   1.774  11.092  0.0263 -0.0272 -0.5420
    3SAPS   O11  283   3.602   1.638  10.883  0.0781 -0.9110 -0.0435
    3SAPS    C1  284   3.658   1.758  10.818 -0.3108  0.0938 -0.0885
    3SAPS    HA  285   3.625   1.854  10.864  0.2955 -0.3786  1.3997
    3SAPS    HB  286   3.768   1.750  10.805 -0.4676 -2.8239 -0.3582
    3SAPS    C2  287   3.595   1.782  10.682  0.7114  0.0223  0.5280
    3SAPS    HS  288   3.484   1.785  10.686  0.5636 -1.7177 -0.9604
    3SAPS   O21  289   3.636   1.662  10.608 -0.7519 -0.9293 -0.1942
    3SAPS   C21  290   3.547   1.610  10.522  0.8083 -0.4739 -0.2250
    3SAPS   O22  291   3.435   1.658  10.500 -0.1080  0.2871 -0.0768
    3SAPS   C22  292   3.622   1.495  10.455 -0.3077  1.0033  0.1365
    3SAPS   H2R  293   3.701   1.470  10.529  0.4404 -0.1323 -1.0126
    3SAPS   H2S  294   3.569   1.398  10.444 -1.0068  1.3318  0.5403
    3SAPS    C3  295   3.637   1.915  10.615 -0.6978 -0.0004  0.5879
    3SAPS    HX  296   3.743   1.928  10.645 -1.3245  1.7900  2.2597
    3SAPS    HY  297   3.582   1.996  10.667  0.2932  0.9120  0.2490
    3SAPS   O31  298   3.624   1.910  10.468  0.2174  0.3077  0.1125
    3SAPS   C31  299   3.501   1.938  10.421  0.0664 -0.1127 -0.1677
    3SAPS   O32  300   3.412   1.997  10.482 -0.5324  0.7019 -0.5536
    3SAPS   C32  301   3.502   1.903  10.277  1.4307 -0.3024  0.4266
    3SAPS   H2X  302   3.531   1.796  10.271 -1.6886 -1.4171  2.6725
    3SAPS   H2Y  303   3.582   1.955  10.220  1.3117 -1.0975 -0.5009
    3SAPS   C23  304   3.687   1.530  10.318 -0.6115 -0.2882 -0.0942
    3SAPS   H3R  305   3.782   1.475  10.305 -1.5299 -1.7466 -0.8479
    3SAPS   H3S  306   3.721   1.636  10.320  0.5484 -0.5673 -2.2467
    3SAPS   C24  307   3.587   1.497  10.208 -0.7832  0.0599 -0.0043
    3SAPS   H4R  308   3.504   1.570  10.202  1.3516  2.7901  1.3669
    3SAPS   H4S  309   3.543   1.399  10.236  0.0339 -0.1606  0.5777
    3SAPS   C25  310   3.657   1.469  10.072  0.0489 -0.2322 -0.4354
    3SAPS   H5R  311   3.677   1.362  10.057 -0.5420 -0.2355 -1.2341
    3SAPS   C26  312   3.675   1.558   9.969 -0.0636  0.2408 -0.3789
    3SAPS   H6R  313   3.718   1.509   9.881  0.6311  0.6088 -0.2566
    3SAPS   C27  314   3.639   1.701   9.968 -0.6485 -0.7502  0.0205
    3SAPS   H7R  315   3.701   1.743   9.886  2.0843 -0.8474  1.8619
    3SAPS   H7S  316   3.669   1.763  10.056  2.3873  1.3801 -2.2921
    3SAPS   C28  317   3.490   1.724   9.937  0.3716  0.0269 -0.0967
    3SAPS   H8R  318   3.417   1.696  10.013  1.4068 -2.9709 -0.0792
    3SAPS   C29  319   3.434   1.767   9.824  1.2062 -0.2052  0.2119
    3SAPS   H9R  320   3.325   1.768   9.812  1.2240  0.9343  0.0893
    3SAPS  C210  321   3.505   1.795   9.692 -0.3048 -0.2690 -0.4464
    3SAPS  H10R  322   3.611   1.821   9.708 -0.5839  1.1866 -0.8360
    3SAPS  H10S  323   3.461   1.889   9.654  1.2438  0.9428  0.6319
    3SAPS  C211  324   3.499   1.682   9.592  0.1717  0.8202  0.3677
    3SAPS  H11R  325   3.567   1.600   9.618  0.9118  1.4881  0.6118
    3SAPS  C212  326   3.433   1.683   9.472 -0.3555 -0.7284 -0.5674
    3SAPS  H12R  327   3.440   1.589   9.415  1.0607 -1.0713  0.1197
    3SAPS  C213  328   3.344   1.798   9.425 -0.2202 -0.0176 -0.2341
    3SAPS  H13R  329   3.384   1.895   9.460  0.1925 -0.2350 -0.0922
    3SAPS  H13S  330   3.242   1.791   9.467 -0.3985 -0.2016 -0.6830
    3SAPS  C214  331   3.326   1.808   9.270 -0.2887 -0.8398 -0.2012
    3SAPS  H14R  332   3.322   1.710   9.220 -4.2534 -1.0303  0.1587
    3SAPS  C215  333   3.314   1.925   9.206 -0.2820 -0.4107 -0.2566
    3SAPS  H15R  334   3.305   1.927   9.096  1.1501  1.0263 -0.3927
    3SAPS  C216  335   3.312   2.065   9.257  0.1449  0.3236 -0.5058
    3SAPS  H16R  336   3.304   2.074   9.368 -0.9659  2.6927 -0.7038
    3SAPS  H16S  337   3.218   2.117   9.229 -1.1707 -2.4064 -1.4596
    3SAPS  C217  338   3.439   2.143   9.223 -0.3443 -0.0629  0.4193
    3SAPS  H17R  339   3.526   2.106   9.281 -2.5117 -1.6389  2.8626
    3SAPS  H17S  340   3.436   2.246   9.264  2.8864 -0.3180  1.6444
    3SAPS  C218  341   3.447   2.163   9.068  0.2944  1.0442 -0.2419
    3SAPS  H18R  342   3.345   2.193   9.036  0.3330  1.8151  0.3153
    3SAPS  H18S  343   3.472   2.066   9.021 -0.1980 -0.5383  2.5600
    3SAPS  C219  344   3.554   2.272   9.041  0.2089 -0.1738 -0.0492
    3SAPS  H19R  345   3.531   2.360   9.105  0.3744  1.7886 -2.5363
    3SAPS  H19S  346   3.548   2.314   8.938 -1.4242 -1.7508 -0.6453
    3SAPS  C220  347   3.691   2.216   9.066 -0.0296 -0.3774  0.2447
    3SAPS  H20R  348   3.711   2.218   9.175  0.2840 -0.3932  0.1865
    3SAPS  H20S  349   3.773   2.272   9.016 -0.6081 -0.4898 -0.8714
    3SAPS  H20T  350   3.711   2.114   9.028  1.0700 -0.6793  1.5505
    3SAPS   C33  351   3.368   1.945  10.207 -0.1786 -0.1920  0.6191
    3SAPS   H3X  352   3.384   1.933  10.098 -1.5425  0.2510  0.3577
    3SAPS   H3Y  353   3.363   2.056  10.219  1.4709  0.0260 -0.3764
    3SAPS   C34  354   3.237   1.878  10.244 -0.6308 -0.5769  0.3502
    3SAPS   H4X  355   3.219   1.896  10.352 -0.1851  1.8078  0.0785
    3SAPS   H4Y  356   3.244   1.768  10.232  0.1302 -0.6901  1.6774
    3SAPS   C35  357   3.113   1.919  10.167  0.1115  0.5326  0.0768
    3SAPS   H5X  358   3.066   2.020  10.166 -0.4102  0.2879 -0.5095
    3SAPS   H5Y  359   3.037   1.843  10.194  0.8245 -1.5138 -3.2094
    3SAPS   C36  360   3.123   1.888  10.013  0.0060 -0.5425  0.6100
    3SAPS   H6X  361   3.098   1.780  10.010 -0.5538 -0.4033 -1.1185
    3SAPS   H6Y  362   3.225   1.902   9.971  0.2248  2.8501  1.9222
    3SAPS   C37  363   3.030   1.953   9.914  0.1593 -0.7909  0.4271
    3SAPS   H7X  364   3.032   2.064   9.921  1.1224 -0.6005 -1.7544
    3SAPS   H7Y  365   2.923   1.926   9.927 -0.3928 -1.0119 -3.2908
    3SAPS   C38  366   3.066   1.921   9.768 -0.4522 -0.2187  0.2803
    3SAPS   H8X  367   3.073   1.810   9.769  1.3028 -0.3245 -3.7980
    3SAPS   H8Y  368   3.170   1.955   9.749 -0.2924 -0.5669  0.5205
    3SAPS   C39  369   2.973   1.973   9.661  0.5520  0.1076 -0.0325
    3SAPS   H9X  370   2.873   1.933   9.687  1.3743 -0.5905  2.3684
    3SAPS   H9Y  371   3.002   1.947   9.557 -0.6058 -1.7783  0.0629
    3SAPS  C310  372   2.945   2.124   9.656 -0.4745  0.6779 -0.8907
    3SAPS  H10X  373   3.033   2.188   9.676 -1.3913  1.9756 -0.8789
    3SAPS  H10Y  374   2.869   2.145   9.734 -0.5793  0.4159 -0.9217
    3SAPS  C311  375   2.908   2.176   9.526 -0.3828  0.5555  0.1091
    3SAPS  H11X  376   2.810   2.144   9.484 -0.5490  2.0601 -0.7170
    3SAPS  H11Y  377   2.975   2.136   9.447  0.7627 -0.7522  1.6785
    3SAPS  C312  378   2.911   2.329   9.514  0.6598 -0.0403 -0.0621
    3SAPS  H12X  379   2.891   2.380   9.611  0.9197 -0.7879  0.3951
    3SAPS  H12Y  380   2.838   2.365   9.439  1.3289 -1.0633 -1.2492
    3SAPS  C313  381   3.049   2.388   9.479 -0.4972  0.8550 -0.0872
    3SAPS  H13X  382   3.092   2.335   9.391  0.0585 -2.0843  1.8075
    3SAPS  H13Y  383   3.115   2.373   9.567  0.4265  0.4111 -0.8268
    3SAPS  C314  384   3.044   2.537   9.449  0.0397  0.1376  0.4142
    3SAPS  H14X  385   3.149   2.573   9.452 -0.2574  0.9888  3.9257
    3SAPS  H14Y  386   2.991   2.583   9.535 -1.1692 -1.4474  0.5509
    3SAPS  C315  387   2.971   2.572   9.318  0.4622  0.6406 -0.2923
    3SAPS  H15X  388   2.888   2.499   9.317  1.9231 -1.0757 -0.6595
    3SAPS  H15Y  389   3.044   2.565   9.235  1.5299  1.5433  0.5144
    3SAPS  C316  390   2.914   2.710   9.338  0.3233  0.1783  0.5276
    3SAPS  H16X  391   2.986   2.779   9.388  1.6803 -0.5703 -0.3123
    3SAPS  H16Y  392   2.832   2.699   9.412 -0.4231 -2.0246 -0.5330
    3SAPS  C317  393   2.877   2.798   9.214 -0.5629 -0.0603  0.4416
    3SAPS  H17X  394   2.835   2.740   9.129 -2.3200 -0.6722  1.6660
    3SAPS  H17Y  395   2.978   2.836   9.186 -0.3673 -0.0524  1.1589
    3SAPS  C318  396   2.797   2.925   9.241  0.4055  0.6423  1.0345
    3SAPS  H18X  397   2.844   2.973   9.331  0.2911  0.7084  1.0598
    3SAPS  H18Y  398   2.690   2.900   9.253  0.3527 -0.4798 -1.2713
    3SAPS  H18Z  399   2.804   3.000   9.159  0.2545  0.0754  0.5046
    4SAPS     N  400   5.775   0.973  11.005  0.1951 -0.0348  0.7938
    4SAPS   HN1  401   5.768   1.024  10.914 -0.9155 -1.1819  0.1966
    4SAPS   HN2  402   5.762   0.872  10.983 -1.4186  0.8597 -3.4225
    4SAPS   HN3  403   5.691   1.008  11.056 -1.9909 -3.8696  0.2624
    4SAPS   C12  404   5.892   1.001  11.081  0.3461 -0.0866 -0.1621
    4SAPS  H12A  405   5.906   1.108  11.079  0.9185 -0.0870  1.7102
    4SAPS   C13  406   5.888   0.959  11.230 -0.3595 -0.1380  0.9871
    4SAPS  O13A  407   5.799   0.885  11.274 -0.0540 -0.0976 -0.5702
    4SAPS  O13B  408   5.987   0.991  11.303 -0.3600 -0.6058 -0.2590
    4SAPS   C11  409   6.007   0.931  11.006  0.1738 -0.4645  0.4881
    4SAPS  H11A  410   5.994   0.821  10.998  0.5812 -0.4422 -0.6583
    4SAPS  H11B  411   6.105   0.948  11.054  0.1182  0.0754  0.4153
    4SAPS     P  412   6.145   1.055  10.810 -0.3544  0.0656  0.1309
    4SAPS   O13  413   6.132   1.197  10.819 -0.6355  0.1583 -0.2882
    4SAPS   O14  414   6.268   0.988  10.860 -0.1692  0.1483  0.2667
    4SAPS   O12  415   6.009   0.989  10.879 -0.4951 -0.2162  0.1853
    4SAPS   O11  416   6.127   1.007  10.659  0.2608  0.2526 -0.2822
    4SAPS    C1  417   6.002   1.015  10.589 -0.7131  0.3712  0.6543
    4SAPS    HA  418   5.989   0.921  10.530  0.5413 -0.1459  1.1595
    4SAPS    HB  419   5.914   1.030  10.655 -0.3579  1.1030  0.9733
    4SAPS    C2  420   5.989   1.137  10.482  0.0252  0.4832 -0.0905
    4SAPS    HS  421   5.886   1.134  10.440 -0.5301  0.1650  1.2463
    4SAPS   O21  422   6.088   1.132  10.382 -0.1602  0.2202  0.4068
    4SAPS   C21  423   6.066   1.039  10.285 -0.1167 -0.0206 -0.3533
    4SAPS   O22  424   5.981   0.957  10.289  0.1895 -0.1584  0.0755
    4SAPS   C22  425   6.161   1.047  10.166 -0.4600 -0.7489  0.0167
    4SAPS   H2R  426   6.264   1.027  10.202 -0.1245  0.7094 -0.0799
    4SAPS   H2S  427   6.132   0.976  10.085 -1.1616 -0.3158 -0.1168
    4SAPS    C3  428   6.003   1.287  10.540 -0.1906  0.1427  0.1414
    4SAPS    HX  429   6.105   1.293  10.585  0.4201  1.7330 -1.3324
    4SAPS    HY  430   5.936   1.295  10.628 -0.4960  1.2940 -0.1803
    4SAPS   O31  431   5.992   1.391  10.438  0.1679 -0.0745 -0.0437
    4SAPS   C31  432   6.080   1.486  10.427 -0.1314  0.6049  0.2055
    4SAPS   O32  433   6.179   1.503  10.497 -0.2627  0.3680  0.4781
    4SAPS   C32  434   6.050   1.566  10.295 -0.7787 -0.5889  0.6709
    4SAPS   H2X  435   6.023   1.490  10.218 -1.4631  0.2697  0.0482
    4SAPS   H2Y  436   6.142   1.625  10.277  0.4897 -2.6830 -0.1131
    4SAPS   C23  437   6.156   1.186  10.092 -0.3271 -0.1445 -0.2795
    4SAPS   H3R  438   6.245   1.176  10.026  1.0351 -2.5137  1.7447
    4SAPS   H3S  439   6.183   1.259  10.171 -1.8836  1.1837 -0.9157
    4SAPS   C24  440   6.033   1.231  10.021 -0.0474  0.0986 -0.0218
    4SAPS   H4R  441   6.034   1.342  10.009  2.0750 -0.0937 -2.4557
    4SAPS   H4S  442   5.947   1.223  10.091  0.6199  0.3635  0.8487
    4SAPS   C25  443   6.000   1.167   9.887  0.6560 -0.1832  0.1800
    4SAPS   H5R  444   5.927   1.085   9.891 -0.7813  1.0704  2.8681
    4SAPS   C26  445   6.062   1.189   9.773  0.3186  0.5516 -0.5712
    4SAPS   H6R  446   6.027   1.137   9.683 -0.1991 -0.9036  0.4180
    4SAPS   C27  447   6.185   1.278   9.755  1.4232 -0.3863 -0.6845
    4SAPS   H7R  448   6.213   1.312   9.856 -0.0607  0.5394 -0.5475
    4SAPS   H7S  449   6.148   1.364   9.695 -1.6666 -1.8644 -1.1636
    4SAPS   C28  450   6.287   1.193   9.678 -0.2743  0.3509  0.3345
    4SAPS   H8R  451   6.372   1.157   9.737  0.0625 -0.9242 -0.8778
    4SAPS   C29  452   6.284   1.169   9.549 -0.1448  0.7047  0.9714
    4SAPS   H9R  453   6.366   1.112   9.503 -0.1683  0.4300  1.2632
    4SAPS  C210  454   6.184   1.223   9.448 -0.1247  0.2830  0.4271
    4SAPS  H10R  455   6.180   1.333   9.463 -0.0045  0.4692 -0.8643
    4SAPS  H10S  456   6.087   1.183   9.483 -0.6413  1.0295 -0.1421
    4SAPS  C211  457   6.204   1.186   9.296  0.4039  0.1136 -0.8388
    4SAPS  H11R  458   6.310   1.195   9.268 -0.2726  2.1204 -3.0644
    4SAPS  C212  459   6.110   1.146   9.218  0.3464  0.8081  0.1648
    4SAPS  H12R  460   6.149   1.123   9.118  0.0172 -1.0408  0.4258
    4SAPS  C213  461   5.960   1.124   9.251 -0.5765  0.0076 -0.0175
    4SAPS  H13R  462   5.924   1.169   9.346  0.0598 -2.3997  1.4427
    4SAPS  H13S  463   5.942   1.014   9.256  1.1240 -0.2526  1.1243
    4SAPS  C214  464   5.881   1.168   9.133 -0.0040  0.1145 -0.0894
    4SAPS  H14R  465   5.923   1.243   9.064 -2.5680  1.2694 -0.5193
    4SAPS  C215  466   5.751   1.134   9.111  0.5665 -0.0993 -0.5776
    4SAPS  H15R  467   5.705   1.143   9.012 -0.6492  0.5047  0.0218
    4SAPS  C216  468   5.683   1.045   9.213 -0.4003 -0.2248 -0.6140
    4SAPS  H16R  469   5.713   1.077   9.315 -2.2291 -0.4202  0.0125
    4SAPS  H16S  470   5.723   0.942   9.204  0.5902  0.0297  0.6021
    4SAPS  C217  471   5.533   1.040   9.204  0.5054 -1.0733 -0.2156
    4SAPS  H17R  472   5.493   1.025   9.102 -0.3359  0.1567 -0.0881
    4SAPS  H17S  473   5.484   1.134   9.238  0.3564 -1.7017  1.4138
    4SAPS  C218  474   5.464   0.941   9.308 -0.4837 -0.7190 -0.7688
    4SAPS  H18R  475   5.353   0.936   9.299 -0.5852  1.4046 -1.1867
    4SAPS  H18S  476   5.479   0.980   9.411 -0.0513 -0.0392 -1.0844
    4SAPS  C219  477   5.517   0.797   9.301 -0.0284  0.0181 -0.1536
    4SAPS  H19R  478   5.459   0.736   9.374  0.9727 -0.2170  0.4651
    4SAPS  H19S  479   5.625   0.788   9.328 -0.1076 -2.9030 -0.4445
    4SAPS  C220  480   5.510   0.721   9.163 -0.0781 -0.7313 -0.9628
    4SAPS  H20R  481   5.511   0.614   9.193  3.8468 -0.7785 -0.7906
    4SAPS  H20S  482   5.599   0.742   9.101  1.5568 -1.4376  1.0244
    4SAPS  H20T  483   5.429   0.778   9.113 -1.3925  1.5782  3.2648
    4SAPS   C33  484   5.942   1.666  10.332  0.2169 -0.0264 -0.2116
    4SAPS   H3X  485   5.982   1.748  10.395 -2.1357  1.3510 -0.3802
    4SAPS   H3Y  486   5.863   1.637  10.405  0.8935  1.7306  1.2641
    4SAPS   C34  487   5.882   1.730  10.203  0.9799  0.1234 -0.9075
    4SAPS   H4X  488   5.968   1.765  10.142  0.2369  2.2428 -0.8190
    4SAPS   H4Y  489   5.821   1.815  10.239  0.2368 -0.5229 -0.5941
    4SAPS   C35  490   5.805   1.622  10.125 -0.3879  0.5688  0.1287
    4SAPS   H5X  491   5.701   1.611  10.159 -2.2125  3.5391 -3.6454
    4SAPS   H5Y  492   5.846   1.521  10.146  0.2961  1.2074  2.0971
    4SAPS   C36  493   5.799   1.650   9.970 -0.0534  0.0630  0.0627
    4SAPS   H6X  494   5.900   1.663   9.926 -0.5502  1.9561 -0.6045
    4SAPS   H6Y  495   5.738   1.743   9.965  0.0870  0.0927 -1.5642
    4SAPS   C37  496   5.729   1.538   9.894 -0.3463 -1.0312 -0.2055
    4SAPS   H7X  497   5.629   1.525   9.941  0.0838 -1.4305  0.6120
    4SAPS   H7Y  498   5.770   1.435   9.902 -1.2114 -1.2756  1.3612
    4SAPS   C38  499   5.726   1.573   9.740 -0.2185  0.1753 -0.1664
    4SAPS   H8X  500   5.679   1.671   9.717  2.4263  1.8857  1.2321
    4SAPS   H8Y  501   5.675   1.493   9.683 -0.1171 -0.4175  0.5557
    4SAPS   C39  502   5.868   1.566   9.675 -0.0865  0.5183 -0.6200
    4SAPS   H9X  503   5.914   1.468   9.700  0.7108  0.8289 -0.8306
    4SAPS   H9Y  504   5.934   1.641   9.725  0.8636 -1.7775  1.7739
    4SAPS  C310  505   5.865   1.601   9.526  0.4346 -0.4989  0.2780
    4SAPS  H10X  506   5.972   1.607   9.500  0.7377  1.3881  1.7157
    4SAPS  H10Y  507   5.815   1.700   9.514 -1.6235 -1.5428 -0.3711
    4SAPS  C311  508   5.793   1.491   9.438 -0.1809 -0.6296 -0.4147
    4SAPS  H11X  509   5.683   1.491   9.453 -0.2108 -1.2797 -0.5988
    4SAPS  H11Y  510   5.841   1.393   9.457  3.9451  1.2200 -0.2423
    4SAPS  C312  511   5.822   1.512   9.288  0.7907  0.1140 -0.3608
    4SAPS  H12X  512   5.782   1.426   9.230 -1.1376  0.0052  1.0175
    4SAPS  H12Y  513   5.932   1.516   9.275  0.8596 -1.7758 -0.6360
    4SAPS  C313  514   5.747   1.637   9.227 -0.0433 -0.2205  0.2930
    4SAPS  H13X  515   5.785   1.725   9.284 -0.3725  1.0106 -1.3069
    4SAPS  H13Y  516   5.638   1.631   9.246 -0.3821  0.5900 -1.2508
    4SAPS  C314  517   5.770   1.662   9.079 -0.2508  0.5871 -0.6190
    4SAPS  H14X  518   5.730   1.583   9.012  1.1956  0.2064 -1.0842
    4SAPS  H14Y  519   5.879   1.667   9.060  0.1594  0.4278  1.4653
    4SAPS  C315  520   5.717   1.802   9.043 -0.4054  0.6373  0.9256
    4SAPS  H15X  521   5.751   1.863   9.129  1.7026  0.2427  0.4354
    4SAPS  H15Y  522   5.608   1.807   9.062 -0.4693  0.5784  0.5808
    4SAPS  C316  523   5.758   1.859   8.909 -0.0458 -0.1741 -0.1993
    4SAPS  H16X  524   5.671   1.920   8.877 -0.4957 -0.1033  1.1245
    4SAPS  H16Y  525   5.758   1.775   8.836 -2.4038 -0.9972  0.6808
    4SAPS  C317  526   5.889   1.937   8.912  0.4677 -0.1114  0.0133
    4SAPS  H17X  527   5.961   1.880   8.975  1.0598  0.9034  0.2824
    4SAPS  H17Y  528   5.874   2.033   8.966  1.5623  0.2726 -0.3283
    4SAPS  C318  529   5.948   1.947   8.774  0.8174 -0.0037 -0.6488
    4SAPS  H18X  530   6.051   1.987   8.759 -0.4723  3.7617 -0.5414
    4SAPS  H18Y  531   5.888   2.012   8.707 -0.7276  0.1444  0.8017
    4SAPS  H18Z  532   5.963   1.845   8.732 -1.5062 -0.8974  0.4912
    5SAPS     N  533   2.741   2.330  10.812  0.5236 -0.3675 -0.7200
    5SAPS   HN1  534   2.773   2.233  10.791 -0.1537 -0.8004  0.1392
    5SAPS   HN2  535   2.641   2.319  10.838  0.4052  1.2519 -0.3808
    5SAPS   HN3  536   2.757   2.398  10.735 -1.8926 -1.5955 -2.4598
    5SAPS   C12  537   2.807   2.377  10.935 -0.1673 -0.4984 -0.4562
    5SAPS  H12A  538   2.773   2.325  11.023  3.1925 -1.4134  0.4754
    5SAPS   C13  539   2.963   2.353  10.900 -0.6722  0.1059  0.4431
    5SAPS  O13A  540   3.000   2.283  10.803 -0.0929  0.1782 -0.3421
    5SAPS  O13B  541   3.041   2.378  10.996 -0.2036  0.5424 -0.0103
    5SAPS   C11  542   2.772   2.525  10.956 -0.2268 -0.4430  0.1021
    5SAPS  H11A  543   2.811   2.579  10.867 -0.0138 -0.6742  0.0553
    5SAPS  H11B  544   2.832   2.561  11.042 -0.5501 -1.5874  0.8300
    5SAPS     P  545   2.564   2.670  10.957  0.2210 -0.1312  0.3427
    5SAPS   O13  546   2.422   2.642  10.985  0.3716  0.4244 -0.0977
    5SAPS   O14  547   2.626   2.783  11.033  0.3779 -0.3565  0.0363
    5SAPS   O12  548   2.638   2.534  10.986  0.1578  0.2956 -0.0282
    5SAPS   O11  549   2.598   2.697  10.803  0.1113  0.7610  0.2423
    5SAPS    C1  550   2.541   2.607  10.709 -0.3832  0.5718  0.6521
    5SAPS    HA  551   2.584   2.505  10.712 -0.4520  0.1416 -4.6042
    5SAPS    HB  552   2.432   2.593  10.722 -0.7582  1.0923 -1.5253
    5SAPS    C2  553   2.562   2.646  10.560 -0.3926  0.4219 -0.1181
    5SAPS    HS  554   2.537   2.556  10.499  0.1074  0.3257 -0.1850
    5SAPS   O21  555   2.699   2.688  10.525  0.1157  0.1224 -0.0318
    5SAPS   C21  556   2.798   2.609  10.552  0.0456  0.5298 -0.5632
    5SAPS   O22  557   2.781   2.501  10.607 -0.1365  0.5335  0.4485
    5SAPS   C22  558   2.940   2.664  10.527  0.6342  0.6747  0.3050
    5SAPS   H2R  559   2.938   2.732  10.439  2.4143 -0.9738 -1.1049
    5SAPS   H2S  560   2.961   2.737  10.608 -0.5024  1.2458  0.0955
    5SAPS    C3  561   2.467   2.760  10.515 -0.0629  0.7388 -1.1836
    5SAPS    HX  562   2.480   2.765  10.405 -2.7252 -1.4121 -1.6877
    5SAPS    HY  563   2.503   2.856  10.556  2.5770 -0.5126 -0.3229
    5SAPS   O31  564   2.324   2.744  10.548 -0.0324  0.1012 -0.1563
    5SAPS   C31  565   2.258   2.846  10.502  0.4147 -0.3907  0.1801
    5SAPS   O32  566   2.302   2.955  10.477  0.3621  0.1309  0.0312
    5SAPS   C32  567   2.120   2.801  10.451  0.4648  0.6655  0.8165
    5SAPS   H2X  568   2.047   2.875  10.489 -0.7187 -0.0507  0.0012
    5SAPS   H2Y  569   2.100   2.700  10.493 -2.3196  0.3360 -1.0298
    5SAPS   C23  570   3.047   2.548  10.515 -0.0503 -0.1035 -0.6724
    5SAPS   H3R  571   3.030   2.490  10.608 -0.1977 -0.6366 -1.0230
    5SAPS   H3S  572   3.149   2.592  10.516  0.7020 -1.6082 -2.6833
    5SAPS   C24  573   3.039   2.469  10.383  0.6636 -0.3555 -0.4152
    5SAPS   H4R  574   3.059   2.535  10.295 -0.0145 -1.7962 -1.6935
    5SAPS   H4S  575   2.934   2.442  10.364  0.6324  1.0499 -2.5847
    5SAPS   C25  576   3.133   2.347  10.380 -0.3027 -0.6193 -0.2266
    5SAPS   H5R  577   3.073   2.260  10.412  0.1784 -0.3737  1.4165
    5SAPS   C26  578   3.265   2.344  10.351 -0.8197 -0.2209 -0.1476
    5SAPS   H6R  579   3.332   2.258  10.368 -0.4500  0.1113  0.1198
    5SAPS   C27  580   3.348   2.464  10.303 -0.0571  0.5207 -0.3702
    5SAPS   H7R  581   3.340   2.549  10.374  0.7979  1.0374 -0.8823
    5SAPS   H7S  582   3.299   2.496  10.209  1.3826  0.5776 -1.1256
    5SAPS   C28  583   3.498   2.442  10.287 -0.0634 -0.3063  0.2386
    5SAPS   H8R  584   3.556   2.465  10.378  1.3085 -3.1870  0.1974
    5SAPS   C29  585   3.560   2.383  10.186 -0.0763  0.7431  0.0157
    5SAPS   H9R  586   3.668   2.363  10.187 -0.2974 -0.6601  1.5457
    5SAPS  C210  587   3.488   2.326  10.067  0.1804  0.5113  1.2754
    5SAPS  H10R  588   3.463   2.404   9.992  0.2790  0.7803  1.5181
    5SAPS  H10S  589   3.389   2.285  10.094 -1.8348  3.3333 -1.1878
    5SAPS  C211  590   3.565   2.208  10.004  0.0360 -0.4030 -0.1560
    5SAPS  H11R  591   3.646   2.169  10.068 -0.7064  0.7806  1.5852
    5SAPS  C212  592   3.549   2.152   9.884  0.3266 -0.3670  0.1075
    5SAPS  H12R  593   3.615   2.069   9.853 -1.5828 -1.3356 -1.6095
    5SAPS  C213  594   3.438   2.192   9.784 -0.0797 -0.6365 -0.3081
    5SAPS  H13R  595   3.387   2.290   9.795 -0.4890 -0.5800 -2.3064
    5SAPS  H13S  596   3.357   2.118   9.798  2.2179 -3.2104  0.2943
    5SAPS  C214  597   3.496   2.200   9.646  0.2523 -0.1205  0.2718
    5SAPS  H14R  598   3.488   2.110   9.584 -0.5691 -1.0736  1.7012
    5SAPS  C215  599   3.560   2.311   9.587  0.6231  0.1530  0.2178
    5SAPS  H15R  600   3.603   2.295   9.487  0.2170  3.0078 -0.4871
    5SAPS  C216  601   3.578   2.436   9.662  0.7677 -0.2741  0.1047
    5SAPS  H16R  602   3.669   2.485   9.622  0.7967 -0.4305 -0.0203
    5SAPS  H16S  603   3.595   2.407   9.768 -2.5245 -0.8140  0.6002
    5SAPS  C217  604   3.453   2.532   9.656  0.5533 -0.0820 -1.0022
    5SAPS  H17R  605   3.484   2.611   9.727 -1.0688 -1.6969  1.6899
    5SAPS  H17S  606   3.361   2.478   9.687  2.3481 -2.0832  1.2508
    5SAPS  C218  607   3.429   2.594   9.517 -0.3776  0.4463 -0.6680
    5SAPS  H18R  608   3.433   2.517   9.437 -0.4416 -0.1212 -0.1371
    5SAPS  H18S  609   3.328   2.640   9.520 -0.6433 -0.1731  0.2715
    5SAPS  C219  610   3.521   2.703   9.487  0.2493 -1.1073  0.9553
    5SAPS  H19R  611   3.629   2.675   9.488  0.4006 -0.5595  0.1887
    5SAPS  H19S  612   3.509   2.775   9.570 -0.0263 -0.3626  0.2797
    5SAPS  C220  613   3.505   2.764   9.346 -0.0436 -0.0723  0.3620
    5SAPS  H20R  614   3.407   2.818   9.344 -0.8482 -1.4164  1.5102
    5SAPS  H20S  615   3.502   2.680   9.274 -1.1471 -0.7356  1.1493
    5SAPS  H20T  616   3.589   2.834   9.329 -0.1835  0.2803  1.0888
    5SAPS   C33  617   2.121   2.799  10.292  0.4347 -0.0348  0.5061
    5SAPS   H3X  618   2.173   2.885  10.244  0.5063  1.1498  2.6188
    5SAPS   H3Y  619   2.011   2.814  10.282  0.2820 -1.4050 -0.1005
    5SAPS   C34  620   2.153   2.658  10.232  0.3511 -0.3850 -0.9300
    5SAPS   H4X  621   2.092   2.588  10.294 -0.7478  0.8446 -0.5549
    5SAPS   H4Y  622   2.262   2.641  10.234  0.9593  2.8279 -0.9724
    5SAPS   C35  623   2.091   2.651  10.097  0.0510 -0.2380  0.8186
    5SAPS   H5X  624   1.984   2.671  10.080  0.4874  0.0584 -2.0992
    5SAPS   H5Y  625   2.126   2.556  10.051  1.2885  0.1298  0.9508
    5SAPS   C36  626   2.173   2.752  10.007  0.9182 -0.8779 -0.2701
    5SAPS   H6X  627   2.272   2.775  10.051 -0.3764  1.7298  1.5183
    5SAPS   H6Y  628   2.125   2.851  10.019  1.9142 -0.6398  2.5892
    5SAPS   C37  629   2.187   2.713   9.866 -1.3545 -0.0229  0.4270
    5SAPS   H7X  630   2.248   2.621   9.854  0.1423  0.8364  1.2125
    5SAPS   H7Y  631   2.233   2.802   9.817  0.0481 -0.1447  1.4715
    5SAPS   C38  632   2.054   2.681   9.799 -0.4029  0.4010  0.4808
    5SAPS   H8X  633   1.989   2.771   9.805  1.0849  1.5713 -0.1210
    5SAPS   H8Y  634   1.992   2.605   9.850  0.1754 -0.6386 -0.3391
    5SAPS   C39  635   2.072   2.637   9.650  0.0682  0.9406  0.1012
    5SAPS   H9X  636   1.986   2.583   9.606  1.0730 -2.6942  2.1809
    5SAPS   H9Y  637   2.160   2.570   9.639 -1.0863 -0.4864 -0.9103
    5SAPS  C310  638   2.109   2.750   9.556 -0.8589 -0.1780  0.0227
    5SAPS  H10X  639   2.211   2.784   9.586  0.0290 -1.3424 -1.5081
    5SAPS  H10Y  640   2.039   2.835   9.568 -1.3727 -0.8269  1.9070
    5SAPS  C311  641   2.115   2.704   9.412  0.2332 -0.1475 -0.1022
    5SAPS  H11X  642   2.015   2.681   9.368 -0.6077  0.6717  1.3101
    5SAPS  H11Y  643   2.164   2.605   9.399  0.9524  0.3937 -1.7294
    5SAPS  C312  644   2.188   2.807   9.321 -0.0637  0.5496  1.0713
    5SAPS  H12X  645   2.196   2.759   9.221 -1.6901  2.7231 -0.1836
    5SAPS  H12Y  646   2.294   2.818   9.353 -0.1606  2.2049  0.8837
    5SAPS  C313  647   2.116   2.944   9.308  1.2051  0.2656 -0.4993
    5SAPS  H13X  648   2.185   3.026   9.278  0.2240  3.0093  3.8291
    5SAPS  H13Y  649   2.099   2.974   9.413  1.9192  0.2962 -0.3872
    5SAPS  C314  650   1.983   2.937   9.229  0.9171  0.6127  0.7697
    5SAPS  H14X  651   1.933   3.034   9.252  1.6582  1.1212  0.2743
    5SAPS  H14Y  652   1.919   2.852   9.262  1.3880  0.1070  0.3848
    5SAPS  C315  653   1.994   2.915   9.075 -0.4667 -0.8616 -0.2668
    5SAPS  H15X  654   1.892   2.906   9.033 -2.2899  1.3366  3.2496
    5SAPS  H15Y  655   2.045   2.817   9.066 -3.3244 -2.6159  1.1754
    5SAPS  C316  656   2.081   3.022   9.018 -0.6294  0.1320  0.5157
    5SAPS  H16X  657   2.180   3.032   9.066 -1.2931  1.2327  1.7334
    5SAPS  H16Y  658   2.027   3.119   9.032 -2.3187 -0.7904  0.7148
    5SAPS  C317  659   2.104   2.998   8.875 -0.0618 -0.1404  0.6228
    5SAPS  H17X  660   2.000   2.987   8.837 -0.0881 -1.9228  1.1046
    5SAPS  H17Y  661   2.151   2.898   8.860 -1.1409 -0.6128  0.2923
    5SAPS  C318  662   2.186   3.111   8.805 -0.3009  0.5343 -0.0730
    5SAPS  H18X  663   2.204   3.081   8.700  0.4632 -1.3167  0.5254
    5SAPS  H18Y  664   2.282   3.118   8.860 -0.4368 -0.6151  0.3445
    5SAPS  H18Z  665   2.128   3.203   8.826  0.6521  1.5807 -1.8248
    6SAPS     N  666   1.722   1.484  10.769  0.1679 -0.0519 -0.6093
    6SAPS   HN1  667   1.734   1.512  10.670 -0.8822 -0.1570 -0.7771
    6SAPS   HN2  668   1.707   1.575  10.818  1.9394  1.7470 -3.1491
    6SAPS   HN3  669   1.816   1.462  10.809  0.1517  0.9392  0.0299
    6SAPS   C12  670   1.621   1.376  10.787 -0.1069 -0.0507 -0.4612
    6SAPS  H12A  671   1.611   1.357  10.893 -0.2927  2.3021 -0.0033
    6SAPS   C13  672   1.481   1.423  10.736  0.4054  0.1608 -0.1936
    6SAPS  O13A  673   1.451   1.536  10.696  0.5085 -0.3049 -0.4725
    6SAPS  O13B  674   1.381   1.339  10.764  0.1571  0.4700  0.0952
    6SAPS   C11  675   1.665   1.247  10.719 -0.7236 -0.1507 -0.6133
    6SAPS  H11A  676   1.692   1.279  10.616  0.0158 -1.0532 -0.7143
    6SAPS  H11B  677   1.578   1.178  10.727 -1.7178  0.9267 -1.6355
    6SAPS     P  678   1.817   1.042  10.820 -0.2686 -0.2124  0.0342
    6SAPS   O13  679   1.909   1.032  10.935 -0.3598  0.3463 -0.2870
    6SAPS   O14  680   1.687   0.971  10.835 -0.1978  0.1141  0.0534
    6SAPS   O12  681   1.787   1.197  10.785  0.5575  1.0349  0.0056
    6SAPS   O11  682   1.883   1.000  10.681 -0.0486 -0.3555  0.2179
    6SAPS    C1  683   1.992   1.088  10.643 -0.1581  0.0580 -0.4232
    6SAPS    HA  684   1.972   1.197  10.644  1.4751  0.3818  0.2501
    6SAPS    HB  685   2.082   1.066  10.704 -0.4982 -1.0977 -0.3266
    6SAPS    C2  686   2.042   1.066  10.498 -0.5814 -0.5823 -0.2918
    6SAPS    HS  687   2.122   1.142  10.485  0.7778 -1.7315  1.0344
    6SAPS   O21  688   1.936   1.079  10.395 -0.5890  0.2049 -0.5961
    6SAPS   C21  689   1.905   1.199  10.369  0.5990  0.0345 -0.0168
    6SAPS   O22  690   1.949   1.301  10.412  0.0851  0.1924 -0.2796
    6SAPS   C22  691   1.783   1.195  10.287  0.2283  0.4910  0.5176
    6SAPS   H2R  692   1.715   1.115  10.324  0.6461  0.4062  1.1108
    6SAPS   H2S  693   1.722   1.287  10.300  0.8169  0.9131  0.3102
    6SAPS    C3  694   2.097   0.926  10.484  0.3562  0.9483 -0.2568
    6SAPS    HX  695   2.008   0.862  10.502  0.3149  1.6788  2.7098
    6SAPS    HY  696   2.166   0.922  10.571  1.6090  2.0165 -1.1630
    6SAPS   O31  697   2.156   0.908  10.351  0.1829 -0.4895  0.0370
    6SAPS   C31  698   2.167   0.786  10.307 -0.1798  1.3706 -0.0541
    6SAPS   O32  699   2.125   0.683  10.361 -0.6274  0.4546  0.3163
    6SAPS   C32  700   2.221   0.789  10.163 -0.1439 -0.6553  1.0265
    6SAPS   H2X  701   2.135   0.829  10.105 -0.9388 -0.7823  2.0883
    6SAPS   H2Y  702   2.245   0.685  10.132  1.6032  0.1888 -0.5853
    6SAPS   C23  703   1.818   1.163  10.135 -0.1868  0.1228  0.3800
    6SAPS   H3R  704   1.718   1.161  10.085  0.2068  0.4209 -0.4531
    6SAPS   H3S  705   1.865   1.063  10.137 -1.2115 -0.5182 -2.4580
    6SAPS   C24  706   1.902   1.270  10.070  0.7808  0.4219 -0.0135
    6SAPS   H4R  707   1.993   1.290  10.130 -1.1184  3.4296  2.1190
    6SAPS   H4S  708   1.843   1.364  10.067 -0.9246 -0.6113 -1.4495
    6SAPS   C25  709   1.937   1.208   9.934 -0.0695 -0.2801 -0.1168
    6SAPS   H5R  710   1.990   1.111   9.937  0.5514 -0.0529 -2.2628
    6SAPS   C26  711   1.923   1.274   9.817  0.4136 -0.7751 -0.0627
    6SAPS   H6R  712   1.953   1.221   9.725 -0.5482  0.9931 -1.4604
    6SAPS   C27  713   1.873   1.416   9.795 -0.0305 -0.4417 -0.3245
    6SAPS   H7R  714   1.950   1.486   9.757  0.6741 -0.8146  0.3739
    6SAPS   H7S  715   1.863   1.470   9.891  0.9773 -1.6383  0.4898
    6SAPS   C28  716   1.745   1.432   9.717  0.9645 -0.8811  0.4560
    6SAPS   H8R  717   1.655   1.442   9.779  1.2737 -0.1843  0.8088
    6SAPS   C29  718   1.725   1.429   9.586  0.2684  0.8668 -0.1296
    6SAPS   H9R  719   1.620   1.446   9.556 -0.0932 -1.2721 -0.2938
    6SAPS  C210  720   1.832   1.407   9.481 -0.1815 -0.8561  0.4017
    6SAPS  H10R  721   1.931   1.374   9.521  0.3083 -2.3882 -1.8615
    6SAPS  H10S  722   1.849   1.507   9.435  2.0709 -1.4550 -0.2316
    6SAPS  C211  723   1.780   1.317   9.373 -0.1545 -0.0686 -0.8028
    6SAPS  H11R  724   1.799   1.212   9.401  0.3327  0.6902  2.1098
    6SAPS  C212  725   1.725   1.356   9.257 -1.0315  0.4688 -0.0270
    6SAPS  H12R  726   1.692   1.278   9.187 -2.0084  1.3976 -0.6333
    6SAPS  C213  727   1.709   1.501   9.225 -0.2428 -0.0055  0.7591
    6SAPS  H13R  728   1.732   1.506   9.116 -0.3735 -1.9920  0.5995
    6SAPS  H13S  729   1.788   1.569   9.264  0.8382  2.0248 -4.2035
    6SAPS  C214  730   1.570   1.559   9.258 -0.5079  0.2371  0.4319
    6SAPS  H14R  731   1.533   1.525   9.357 -0.3539 -0.8746  0.1283
    6SAPS  C215  732   1.482   1.621   9.175 -0.6387  0.9571  0.2566
    6SAPS  H15R  733   1.382   1.655   9.208 -0.7669 -0.2782  1.2362
    6SAPS  C216  734   1.509   1.655   9.028  0.9862 -0.1697 -0.3608
    6SAPS  H16R  735   1.427   1.605   8.972  1.7930 -1.6723 -0.2518
    6SAPS  H16S  736   1.604   1.615   8.988  1.9225  0.1029  1.4739
    6SAPS  C217  737   1.524   1.803   8.984  0.1531 -0.3444 -0.0199
    6SAPS  H17R  738   1.450   1.859   9.045  0.6581 -0.1038  0.3848
    6SAPS  H17S  739   1.498   1.812   8.876 -1.1224  1.2624  0.3795
    6SAPS  C218  740   1.659   1.851   9.028 -0.9621 -0.0787  0.5651
    6SAPS  H18R  741   1.737   1.812   8.959 -1.6534  0.7710 -0.7606
    6SAPS  H18S  742   1.680   1.825   9.134 -1.8147 -0.4084  0.6580
    6SAPS  C219  743   1.666   2.000   9.013 -0.5730  0.2941  0.2283
    6SAPS  H19R  744   1.759   2.040   9.058 -0.2408 -0.2922  0.0773
    6SAPS  H19S  745   1.579   2.047   9.064  0.7304  1.0793  1.7923
    6SAPS  C220  746   1.692   2.034   8.862 -0.4416  0.8502 -0.4447
    6SAPS  H20R  747   1.792   1.998   8.827 -1.1768  0.3837 -2.1646
    6SAPS  H20S  748   1.685   2.140   8.829 -2.4198  0.8341 -0.1656
    6SAPS  H20T  749   1.615   1.975   8.809 -1.1178  1.0519  0.2998
    6SAPS   C33  750   2.346   0.885  10.150 -0.8660  0.1163  0.0540
    6SAPS   H3X  751   2.437   0.843  10.198  0.8526  2.4127 -0.9895
    6SAPS   H3Y  752   2.336   0.984  10.201 -2.5600 -0.0798  0.1636
    6SAPS   C34  753   2.399   0.899  10.003 -0.2038  0.1973  0.3228
    6SAPS   H4X  754   2.431   0.804   9.955  2.0596  1.8288 -1.6631
    6SAPS   H4Y  755   2.491   0.963  10.002  0.0201 -0.1202 -0.4833
    6SAPS   C35  756   2.285   0.952   9.910  0.0542 -0.2671 -0.2063
    6SAPS   H5X  757   2.248   1.041   9.966  1.5277  0.2370  0.0210
    6SAPS   H5Y  758   2.209   0.873   9.893  0.0804 -0.0102 -1.6213
    6SAPS   C36  759   2.336   0.995   9.768  0.6701 -0.0515  0.5551
    6SAPS   H6X  760   2.397   0.915   9.721 -1.0552 -0.6427 -0.7887
    6SAPS   H6Y  761   2.396   1.088   9.784  0.8717 -0.6051  3.5677
    6SAPS   C37  762   2.208   1.010   9.674 -0.3159 -0.2850  0.0655
    6SAPS   H7X  763   2.160   1.107   9.695 -0.2274 -0.0347 -0.8200
    6SAPS   H7Y  764   2.144   0.925   9.706  0.7835 -0.2660  2.5209
    6SAPS   C38  765   2.262   1.009   9.531 -0.4030  0.6887 -0.2170
    6SAPS   H8X  766   2.290   0.906   9.499  1.9561  1.2524 -0.1410
    6SAPS   H8Y  767   2.357   1.067   9.540 -0.0416 -0.0720  1.4132
    6SAPS   C39  768   2.163   1.068   9.422 -0.1338 -0.2314  0.3562
    6SAPS   H9X  769   2.144   1.170   9.461 -2.7263 -0.1653 -0.8869
    6SAPS   H9Y  770   2.067   1.011   9.421 -0.6582  0.5800 -1.6173
    6SAPS  C310  771   2.217   1.085   9.278  0.1422 -0.0959 -0.6341
    6SAPS  H10X  772   2.250   0.995   9.223  0.5733  0.2537 -0.9613
    6SAPS  H10Y  773   2.300   1.157   9.294  0.2433 -0.8663  3.3512
    6SAPS  C311  774   2.119   1.166   9.186 -1.3516 -0.4125  0.7178
    6SAPS  H11X  775   2.094   1.267   9.224 -3.8213 -0.3612 -0.8336
    6SAPS  H11Y  776   2.025   1.107   9.188 -1.3890 -0.3493  0.8170
    6SAPS  C312  777   2.176   1.170   9.044  0.7282 -0.2423  0.1314
    6SAPS  H12X  778   2.215   1.070   9.014 -1.8708 -0.9538 -1.2124
    6SAPS  H12Y  779   2.250   1.253   9.043  0.7701 -0.1758 -2.8495
    6SAPS  C313  780   2.073   1.191   8.928  0.0526  0.7250  0.0759
    6SAPS  H13X  781   2.012   1.098   8.931  2.6960 -1.1142  1.6985
    6SAPS  H13Y  782   2.129   1.185   8.832  0.3295  0.0748  0.2651
    6SAPS  C314  783   1.991   1.320   8.952 -1.0658  0.6282  0.2263
    6SAPS  H14X  784   2.073   1.395   8.952  0.5941 -1.0932  0.4744
    6SAPS  H14Y  785   1.944   1.324   9.052  1.2744 -0.1287  1.4329
    6SAPS  C315  786   1.894   1.346   8.837 -0.3199 -0.1215  0.0585
    6SAPS  H15X  787   1.853   1.246   8.810  1.1084 -0.6094 -0.4196
    6SAPS  H15Y  788   1.948   1.376   8.744  0.7348 -0.1270  0.6544
    6SAPS  C316  789   1.780   1.444   8.856  0.7562  0.0108 -0.1364
    6SAPS  H16X  790   1.818   1.546   8.875  1.8748 -0.7032  1.7833
    6SAPS  H16Y  791   1.730   1.411   8.950  1.0866  1.0217  0.4091
    6SAPS  C317  792   1.674   1.452   8.742  0.4316  0.1515 -0.0610
    6SAPS  H17X  793   1.583   1.498   8.786  1.6541  3.3101 -0.5152
    6SAPS  H17Y  794   1.647   1.348   8.714 -0.1371  0.3484 -0.2548
    6SAPS  C318  795   1.724   1.523   8.623 -0.4507 -0.0665 -0.4490
    6SAPS  H18X  796   1.821   1.487   8.583  0.0434 -0.3554  0.9431
    6SAPS  H18Y  797   1.743   1.633   8.632 -0.1707  0.1199 -2.7070
    6SAPS  H18Z  798   1.658   1.502   8.537 -0.5423 -1.2206 -0.1133
    7SAPS     N  799   4.019   2.113  10.778 -0.3907 -0.1316 -0.0660
    7SAPS   HN1  800   3.923   2.136  10.746  0.2732 -0.8951 -2.9343
    7SAPS   HN2  801   4.079   2.172  10.716  0.7890 -1.6026 -0.4011
    7SAPS   HN3  802   4.055   2.019  10.750 -0.1392 -0.4812  1.3777
    7SAPS   C12  803   4.050   2.145  10.926  1.2161 -0.2728  0.7198
    7SAPS  H12A  804   4.001   2.240  10.944 -1.4808 -1.1584 -1.2579
    7SAPS   C13  805   3.991   2.051  11.034  0.1017 -0.3159  0.5558
    7SAPS  O13A  806   3.962   1.935  10.994  0.1961 -0.1723  0.1099
    7SAPS  O13B  807   4.019   2.069  11.147  0.4876  0.0684 -0.6496
    7SAPS   C11  808   4.201   2.162  10.943  0.1601 -0.2815 -0.0549
    7SAPS  H11A  809   4.241   2.067  10.901  0.6914  0.2921 -0.8795
    7SAPS  H11B  810   4.241   2.173  11.046  0.0991 -1.4185  0.0983
    7SAPS     P  811   4.289   2.409  10.909 -0.2566 -0.0491 -0.1582
    7SAPS   O13  812   4.176   2.477  10.981  0.3646  0.0429  0.1210
    7SAPS   O14  813   4.415   2.387  10.984  0.3275 -0.0422  0.3644
    7SAPS   O12  814   4.238   2.267  10.859  0.2253  0.1348 -0.0531
    7SAPS   O11  815   4.308   2.491  10.776  0.4213  0.0628 -0.5937
    7SAPS    C1  816   4.232   2.489  10.653 -0.0741 -0.4491 -0.2386
    7SAPS    HA  817   4.147   2.418  10.650 -1.4771  1.0551  1.3979
    7SAPS    HB  818   4.200   2.592  10.627  1.1658  0.1113  0.3585
    7SAPS    C2  819   4.331   2.451  10.536  0.1743 -0.1222  0.4298
    7SAPS    HS  820   4.273   2.445  10.441  0.6112  3.7179 -0.2459
    7SAPS   O21  821   4.399   2.328  10.566  0.2814  0.2785  0.5045
    7SAPS   C21  822   4.322   2.217  10.563  1.1864  0.4299 -0.2079
    7SAPS   O22  823   4.203   2.215  10.537 -0.2866  0.0988  0.3993
    7SAPS   C22  824   4.408   2.097  10.591 -0.2806 -0.4600  0.3827
    7SAPS   H2R  825   4.461   2.114  10.687  1.4348 -1.0204 -0.4248
    7SAPS   H2S  826   4.344   2.007  10.599  0.4378 -0.9852  0.3290
    7SAPS    C3  827   4.438   2.567  10.511 -0.1058 -0.0751 -0.2943
    7SAPS    HX  828   4.523   2.535  10.447  1.2067  1.7452  0.4420
    7SAPS    HY  829   4.475   2.600  10.611 -2.0337 -0.6809  0.6624
    7SAPS   O31  830   4.379   2.687  10.450  0.3964  0.4657 -0.1755
    7SAPS   C31  831   4.343   2.679  10.324  0.3012 -0.5280 -0.1081
    7SAPS   O32  832   4.350   2.574  10.262 -0.6259 -0.6163  0.6319
    7SAPS   C32  833   4.279   2.810  10.275  0.0112 -0.2634 -0.4510
    7SAPS   H2X  834   4.345   2.891  10.313  1.3400 -1.7844  0.5844
    7SAPS   H2Y  835   4.174   2.825  10.308  0.3869  3.1322 -0.4326
    7SAPS   C23  836   4.520   2.068  10.485 -0.3673 -1.0461  0.1976
    7SAPS   H3R  837   4.595   2.000  10.530 -0.2990 -0.6142  0.7554
    7SAPS   H3S  838   4.573   2.163  10.461  0.3694 -1.2332  1.0412
    7SAPS   C24  839   4.463   2.012  10.358  0.4536  0.0886 -0.2109
    7SAPS   H4R  840   4.373   1.955  10.390  0.3987  0.5609  0.5050
    7SAPS   H4S  841   4.532   1.937  10.315 -0.3794 -1.1224  0.4800
    7SAPS   C25  842   4.414   2.105  10.249  0.0786 -0.5881  0.3402
    7SAPS   H5R  843   4.318   2.150  10.280  0.4388 -0.7026  1.6883
    7SAPS   C26  844   4.459   2.122  10.119 -0.0410 -0.1669 -0.0486
    7SAPS   H6R  845   4.408   2.193  10.052 -0.6615 -1.0421 -0.5157
    7SAPS   C27  846   4.589   2.065  10.060  0.4957 -0.1885 -0.0893
    7SAPS   H7R  847   4.669   2.054  10.137 -2.2389 -0.4784  2.9622
    7SAPS   H7S  848   4.631   2.150  10.003  0.4256  0.0991  0.2844
    7SAPS   C28  849   4.562   1.935   9.989  0.2720  0.0249  0.7164
    7SAPS   H8R  850   4.543   1.849  10.055 -1.9889  1.3318  1.9051
    7SAPS   C29  851   4.537   1.922   9.854  0.5147 -0.2039  0.8750
    7SAPS   H9R  852   4.527   1.825   9.803 -1.8795 -0.3682  1.5295
    7SAPS  C210  853   4.537   2.031   9.747 -0.5445  0.0433 -0.4280
    7SAPS  H10R  854   4.608   2.012   9.663  1.8614  1.2130  1.2042
    7SAPS  H10S  855   4.573   2.128   9.786  1.5305 -0.5841 -0.6506
    7SAPS  C211  856   4.400   2.037   9.698  0.3722 -0.0113 -0.3172
    7SAPS  H11R  857   4.326   2.088   9.762  1.2662  0.2414  0.5283
    7SAPS  C212  858   4.365   2.009   9.570  0.1959 -1.2877 -0.3399
    7SAPS  H12R  859   4.261   2.035   9.544 -0.7140 -3.8468  0.5084
    7SAPS  C213  860   4.451   1.958   9.455  0.7310 -0.1347  0.7161
    7SAPS  H13R  861   4.432   1.849   9.443  0.4470 -0.0551  0.4035
    7SAPS  H13S  862   4.560   1.964   9.471  1.0021  1.5311 -1.2905
    7SAPS  C214  863   4.423   2.025   9.323  0.0241 -0.0553  0.9965
    7SAPS  H14R  864   4.503   2.091   9.286  0.3928 -1.1010 -0.1404
    7SAPS  C215  865   4.314   2.015   9.243  0.6485 -0.0496  0.3409
    7SAPS  H15R  866   4.306   2.066   9.146 -1.9325 -0.7824  0.0942
    7SAPS  C216  867   4.191   1.938   9.268  0.5286  0.2071  0.2655
    7SAPS  H16R  868   4.204   1.882   9.363 -0.7584 -0.4925  0.0436
    7SAPS  H16S  869   4.185   1.858   9.191  1.1397  0.6694 -0.2750
    7SAPS  C217  870   4.077   2.035   9.258  0.3776  0.1144 -0.2780
    7SAPS  H17R  871   4.065   2.075   9.156 -3.6032  0.7027  0.2507
    7SAPS  H17S  872   4.091   2.123   9.324  0.1404 -0.4229  0.5212
    7SAPS  C218  873   3.937   1.973   9.288 -0.7401 -0.7426  0.5615
    7SAPS  H18R  874   3.945   1.877   9.232 -1.9047 -1.2518  1.2287
    7SAPS  H18S  875   3.854   2.030   9.241 -1.0027 -0.4392  1.3628
    7SAPS  C219  876   3.923   1.946   9.435 -0.0934  0.1730  0.1290
    7SAPS  H19R  877   3.970   2.031   9.489  1.7395  0.5795 -1.9712
    7SAPS  H19S  878   3.962   1.844   9.460 -1.5700 -0.4193  0.0990
    7SAPS  C220  879   3.779   1.936   9.473  0.3317  0.1335 -0.3268
    7SAPS  H20R  880   3.740   1.842   9.426  2.2661 -0.1848 -1.3618
    7SAPS  H20S  881   3.711   2.018   9.441 -1.5865 -0.6510  1.4417
    7SAPS  H20T  882   3.767   1.924   9.583 -3.5921 -1.6886 -0.7533
    7SAPS   C33  883   4.284   2.825  10.124  0.2498  0.1760  0.3488
    7SAPS   H3X  884   4.220   2.751  10.071  1.7882 -0.6813 -0.3899
    7SAPS   H3Y  885   4.389   2.806  10.093  0.6436  0.8401  1.2333
    7SAPS   C34  886   4.243   2.967  10.086  0.0851 -0.3887 -0.1379
    7SAPS   H4X  887   4.316   3.037  10.132 -0.9340  0.7313 -0.1937
    7SAPS   H4Y  888   4.146   3.006  10.123  0.6943  1.0294  0.0069
    7SAPS   C35  889   4.247   2.979   9.928  0.0741  0.2641  0.0808
    7SAPS   H5X  890   4.345   2.940   9.893  0.1865 -0.5346  1.2343
    7SAPS   H5Y  891   4.241   3.089   9.913 -0.8807  0.7265  3.2055
    7SAPS   C36  892   4.132   2.907   9.852  0.1347 -0.8002 -0.5403
    7SAPS   H6X  893   4.034   2.937   9.895  1.1194 -0.3391  1.4756
    7SAPS   H6Y  894   4.137   2.797   9.866  0.9817 -0.6883  0.0845
    7SAPS   C37  895   4.146   2.937   9.704 -0.2693 -0.1091  0.1469
    7SAPS   H7X  896   4.100   2.858   9.641  1.8963 -0.1430 -1.5158
    7SAPS   H7Y  897   4.255   2.941   9.681  0.3344  0.1815  2.7233
    7SAPS   C38  898   4.067   3.067   9.670  0.2050 -0.0187  0.2960
    7SAPS   H8X  899   4.057   3.140   9.754  0.7623  1.2820 -0.7326
    7SAPS   H8Y  900   3.962   3.044   9.646  0.1006  0.5526  0.1778
    7SAPS   C39  901   4.119   3.135   9.541 -0.6553 -0.2802 -0.2249
    7SAPS   H9X  902   4.107   3.068   9.453  0.1611 -0.3767 -0.2728
    7SAPS   H9Y  903   4.228   3.150   9.556 -0.4886 -2.9159  1.9784
    7SAPS  C310  904   4.037   3.262   9.510 -0.8092  0.9364 -1.4375
    7SAPS  H10X  905   4.056   3.340   9.587 -0.8729 -0.9396  0.5457
    7SAPS  H10Y  906   3.931   3.233   9.518 -0.6505  0.8997  3.5907
    7SAPS  C311  907   4.053   3.308   9.363 -0.7934 -0.3240  0.0896
    7SAPS  H11X  908   4.030   3.222   9.297  0.9303 -0.7144 -0.0538
    7SAPS  H11Y  909   4.163   3.319   9.350 -0.6847  1.5789  2.0113
    7SAPS  C312  910   3.966   3.427   9.307  0.3317 -0.4316 -0.4899
    7SAPS  H12X  911   4.023   3.519   9.329  2.1162 -2.0749  2.3671
    7SAPS  H12Y  912   3.871   3.429   9.364  1.2125  3.3659  1.1694
    7SAPS  C313  913   3.944   3.404   9.161  0.0578 -0.6868 -0.4288
    7SAPS  H13X  914   3.888   3.312   9.137  1.0671 -0.8828 -2.1632
    7SAPS  H13Y  915   4.042   3.408   9.110  0.3593  0.7689  0.1854
    7SAPS  C314  916   3.863   3.519   9.101  0.1121 -0.7762 -0.0545
    7SAPS  H14X  917   3.899   3.619   9.132 -2.0990  0.1326 -0.1820
    7SAPS  H14Y  918   3.762   3.514   9.148  1.6971 -0.8332  3.6919
    7SAPS  C315  919   3.843   3.512   8.944 -0.0328 -0.3043  0.0448
    7SAPS  H15X  920   3.836   3.402   8.938  1.3638 -0.3477 -1.2292
    7SAPS  H15Y  921   3.934   3.550   8.894  0.0782 -1.1446 -0.4040
    7SAPS  C316  922   3.714   3.571   8.890  0.1619 -0.0638  0.4770
    7SAPS  H16X  923   3.715   3.679   8.916  0.0480  0.7331 -2.5209
    7SAPS  H16Y  924   3.628   3.534   8.950  1.0077 -1.8627  0.6252
    7SAPS  C317  925   3.688   3.543   8.740 -0.2308 -0.8763  0.2859
    7SAPS  H17X  926   3.769   3.578   8.673 -0.9333 -0.0303 -0.1425
    7SAPS  H17Y  927   3.591   3.594   8.720 -0.6548 -2.7731 -3.1230
    7SAPS  C318  928   3.644   3.400   8.714  0.7242 -0.4471  0.8305
    7SAPS  H18X  929   3.608   3.379   8.611  0.4627  0.3955  0.7402
    7SAPS  H18Y  930   3.563   3.368   8.783  1.2137  0.7440  1.9976
    7SAPS  H18Z  931   3.728   3.330   8.735 -0.2339 -1.5604  1.0833
    8SAPS     N  932   1.397   3.153  11.031 -0.2210 -0.0030  0.2181
    8SAPS   HN1  933   1.419   3.224  10.958  0.9662 -0.4970  0.0816
    8SAPS   HN2  934   1.477   3.089  11.041 -0.6537 -0.4099  1.2321
    8SAPS   HN3  935   1.306   3.105  11.014 -0.9033  1.1446  0.4485
    8SAPS   C12  936   1.388   3.223  11.161  0.3198 -0.6506 -0.1083
    8SAPS  H12A  937   1.329   3.312  11.142  3.1056  0.7953 -3.0805
    8SAPS   C13  938   1.332   3.130  11.267  0.3550  0.6106 -0.1787
    8SAPS  O13A  939   1.302   3.009  11.232  0.0838 -0.4575 -0.5586
    8SAPS  O13B  940   1.302   3.173  11.384 -0.0968 -0.2757  0.1560
    8SAPS   C11  941   1.515   3.283  11.211 -0.3924 -0.2865 -0.4898
    8SAPS  H11A  942   1.584   3.205  11.250 -2.0493 -2.0022 -0.8161
    8SAPS  H11B  943   1.485   3.351  11.292  1.7536 -0.4327  0.4918
    8SAPS     P  944   1.732   3.406  11.143 -0.1549 -0.0766 -0.0914
    8SAPS   O13  945   1.765   3.534  11.077 -0.1911  0.4664  0.7504
    8SAPS   O14  946   1.730   3.419  11.285 -0.0006 -0.1535  0.3154
    8SAPS   O12  947   1.580   3.362  11.106  0.1053 -0.0764 -0.2130
    8SAPS   O11  948   1.823   3.284  11.098 -0.3321 -0.4860  0.0673
    8SAPS    C1  949   1.809   3.227  10.962 -0.2744 -0.0560 -0.1424
    8SAPS    HA  950   1.805   3.117  10.972 -0.5643  0.0179  0.6288
    8SAPS    HB  951   1.707   3.257  10.927 -0.9418 -0.2723  1.5143
    8SAPS    C2  952   1.914   3.263  10.856 -0.4232  0.3783  0.5187
    8SAPS    HS  953   2.011   3.241  10.905 -0.0026  1.4595  0.2012
    8SAPS   O21  954   1.931   3.404  10.840  0.3823 -0.4084 -0.0027
    8SAPS   C21  955   1.838   3.472  10.771  0.8637  0.2123 -0.0517
    8SAPS   O22  956   1.727   3.432  10.738  0.0220  0.1795  0.2826
    8SAPS   C22  957   1.894   3.607  10.732 -0.4826  0.0812  0.1908
    8SAPS   H2R  958   1.908   3.667  10.824 -0.7097 -0.4946  0.6051
    8SAPS   H2S  959   1.996   3.594  10.689 -0.1961  0.0459  0.8665
    8SAPS    C3  960   1.908   3.178  10.724  0.4989 -0.1997 -0.0855
    8SAPS    HX  961   1.803   3.166  10.692  0.3038  1.2170 -0.0638
    8SAPS    HY  962   1.948   3.077  10.745 -0.1990 -1.2812 -3.3919
    8SAPS   O31  963   1.990   3.226  10.617  0.6713  0.4266 -0.0269
    8SAPS   C31  964   1.973   3.160  10.500  0.7357  0.3481  0.2152
    8SAPS   O32  965   1.906   3.060  10.487  0.2992  0.5100 -0.6090
    8SAPS   C32  966   2.043   3.247  10.397  0.0736 -0.4629  0.4964
    8SAPS   H2X  967   2.128   3.299  10.444  0.3178 -0.8833  0.5294
    8SAPS   H2Y  968   1.964   3.313  10.355 -1.4749 -2.4529  0.0828
    8SAPS   C23  969   1.802   3.690  10.637  0.3577 -0.0782  0.3006
    8SAPS   H3R  970   1.836   3.795  10.627 -1.3430  0.4606 -0.2499
    8SAPS   H3S  971   1.700   3.690  10.683 -0.1958  0.1539 -0.8851
    8SAPS   C24  972   1.793   3.627  10.500 -0.0948 -0.8068  0.4401
    8SAPS   H4R  973   1.749   3.525  10.504  0.4569 -1.2003 -2.0881
    8SAPS   H4S  974   1.899   3.609  10.472 -0.6398 -0.1475 -2.3278
    8SAPS   C25  975   1.710   3.712  10.413 -0.9252  0.2061  0.1631
    8SAPS   H5R  976   1.635   3.766  10.473 -0.8091  0.1724  0.3417
    8SAPS   C26  977   1.706   3.727  10.280 -0.5035  0.5667  0.0579
    8SAPS   H6R  978   1.626   3.777  10.223  2.0623  2.6600 -2.0097
    8SAPS   C27  979   1.801   3.661  10.177 -0.1482  0.2083  0.5206
    8SAPS   H7R  980   1.889   3.616  10.228  0.8613 -1.9553 -2.7632
    8SAPS   H7S  981   1.831   3.743  10.108  2.3736 -0.7092  0.4264
    8SAPS   C28  982   1.751   3.543  10.100  0.6921 -0.2412 -0.4135
    8SAPS   H8R  983   1.682   3.470  10.145 -3.0139  1.2116 -3.2609
    8SAPS   C29  984   1.770   3.515   9.969 -0.3880  0.2581  0.2551
    8SAPS   H9R  985   1.724   3.421   9.937  0.7724 -1.3914  3.0977
    8SAPS  C210  986   1.847   3.601   9.870  0.7019 -0.1008 -0.5354
    8SAPS  H10R  987   1.872   3.540   9.781  0.0432  0.5930 -1.2213
    8SAPS  H10S  988   1.941   3.636   9.917 -0.4886 -0.5592  2.4414
    8SAPS  C211  989   1.760   3.720   9.837  0.4278  0.4533  0.2997
    8SAPS  H11R  990   1.724   3.787   9.916  0.4523 -0.1498  0.8242
    8SAPS  C212  991   1.731   3.747   9.710 -0.5174  0.4457 -0.0291
    8SAPS  H12R  992   1.686   3.845   9.689 -0.2631  0.2594 -1.5594
    8SAPS  C213  993   1.770   3.665   9.586 -0.6679 -0.0850 -0.1408
    8SAPS  H13R  994   1.709   3.572   9.590 -2.1143  0.8500  0.5603
    8SAPS  H13S  995   1.878   3.639   9.593 -0.2680  0.9725 -1.8146
    8SAPS  C214  996   1.740   3.736   9.462  0.1768 -0.1348  0.5934
    8SAPS  H14R  997   1.635   3.737   9.430  0.9706 -0.2222 -2.2817
    8SAPS  C215  998   1.824   3.799   9.373  0.2723  0.3249  0.0920
    8SAPS  H15R  999   1.783   3.836   9.277  0.9984  1.4129  0.1818
    8SAPS  C216 1000   1.974   3.811   9.384 -0.0227 -0.0103  0.2309
    8SAPS  H16R 1001   2.004   3.800   9.491  0.6781 -2.9290 -0.1715
    8SAPS  H16S 1002   2.005   3.909   9.344 -0.6720  0.6416  1.2633
    8SAPS  C217 1003   2.062   3.716   9.291  0.3577 -0.7831 -0.5541
    8SAPS  H17R 1004   2.057   3.616   9.338  2.5117 -1.0913 -0.8486
    8SAPS  H17S 1005   2.164   3.759   9.303 -0.6127  1.0143  2.0213
    8SAPS  C218 1006   2.037   3.716   9.137 -0.5756  0.3588  0.2990
    8SAPS  H18R 1007   2.034   3.820   9.098 -0.1368  1.3455  2.7158
    8SAPS  H18S 1008   1.943   3.663   9.110 -0.2580 -0.4550  0.7578
    8SAPS  C219 1009   2.150   3.632   9.075  0.4315  0.5803  0.4748
    8SAPS  H19R 1010   2.149   3.531   9.122 -0.3357 -0.2586 -1.2805
    8SAPS  H19S 1011   2.250   3.674   9.103 -0.1654  0.5916  2.8377
    8SAPS  C220 1012   2.123   3.611   8.921 -0.1056  0.1106  0.3502
    8SAPS  H20R 1013   2.110   3.712   8.878 -2.2852  0.1603  0.9754
    8SAPS  H20S 1014   2.020   3.570   8.917  0.6443 -2.2369  2.1835
    8SAPS  H20T 1015   2.193   3.532   8.888  0.2444 -0.2545  1.8665
    8SAPS   C33 1016   2.090   3.145  10.286 -0.4735 -0.7014  0.6898
    8SAPS   H3X 1017   2.018   3.063  10.267 -0.1542 -0.7498 -0.3832
    8SAPS   H3Y 1018   2.187   3.113  10.331 -0.4366 -2.0810 -0.3241
    8SAPS   C34 1019   2.118   3.219  10.148 -0.6943 -0.0341 -0.1667
    8SAPS   H4X 1020   2.197   3.296  10.164 -1.1327  0.7653 -1.6068
    8SAPS   H4Y 1021   2.027   3.274  10.115 -2.7116 -1.6599  2.3463
    8SAPS   C35 1022   2.171   3.114  10.044 -0.1776 -0.2217 -0.6214
    8SAPS   H5X 1023   2.079   3.059  10.015  0.5087 -2.5784  1.2809
    8SAPS   H5Y 1024   2.236   3.033  10.085  0.6216 -0.2731 -1.9362
    8SAPS   C36 1025   2.246   3.182   9.925 -0.1508  0.1713 -0.3727
    8SAPS   H6X 1026   2.325   3.247   9.968  0.1206 -0.5345  0.2350
    8SAPS   H6Y 1027   2.169   3.246   9.878 -0.5889  1.1431  1.5488
    8SAPS   C37 1028   2.308   3.086   9.817  0.5234 -0.6642  0.0161
    8SAPS   H7X 1029   2.230   3.021   9.772 -0.0888 -1.3096  1.9031
    8SAPS   H7Y 1030   2.372   3.018   9.877  0.2155  1.1063  2.5656
    8SAPS   C38 1031   2.392   3.160   9.708 -0.3799 -0.6729  0.3201
    8SAPS   H8X 1032   2.479   3.214   9.749 -1.1092  2.4460 -1.8881
    8SAPS   H8Y 1033   2.329   3.234   9.654  0.2708 -0.7161 -0.5126
    8SAPS   C39 1034   2.461   3.063   9.610 -0.0142 -0.4622  0.3646
    8SAPS   H9X 1035   2.379   3.000   9.568 -0.9609  1.4078 -0.7151
    8SAPS   H9Y 1036   2.524   2.997   9.673  0.0035 -2.0616 -1.2562
    8SAPS  C310 1037   2.540   3.123   9.496  0.0172 -0.0393  0.1053
    8SAPS  H10X 1038   2.614   3.045   9.465 -0.5980 -1.3160  1.7081
    8SAPS  H10Y 1039   2.600   3.205   9.541  1.0405 -1.1691  0.8724
    8SAPS  C311 1040   2.444   3.152   9.385  0.9146 -0.2374  0.1190
    8SAPS  H11X 1041   2.377   3.236   9.415  1.5217  0.0118  0.8203
    8SAPS  H11Y 1042   2.365   3.080   9.355 -0.6500  1.4130  0.0379
    8SAPS  C312 1043   2.517   3.195   9.256 -0.4825 -0.0847 -0.0160
    8SAPS  H12X 1044   2.588   3.114   9.227 -0.0171  0.0500  0.7228
    8SAPS  H12Y 1045   2.578   3.281   9.290 -1.0130  0.9866 -1.6204
    8SAPS  C313 1046   2.429   3.240   9.144 -0.1295  0.4843  0.1933
    8SAPS  H13X 1047   2.341   3.289   9.191  0.8318  2.2987  0.1560
    8SAPS  H13Y 1048   2.392   3.146   9.096  0.6611 -0.1902  0.8774
    8SAPS  C314 1049   2.504   3.337   9.049 -0.7205  0.3346 -0.5919
    8SAPS  H14X 1050   2.438   3.343   8.960  1.8636  2.5489 -2.5711
    8SAPS  H14Y 1051   2.600   3.303   9.004 -1.1924 -1.3433 -0.4185
    8SAPS  C315 1052   2.513   3.487   9.087  0.9851 -0.1737  0.1057
    8SAPS  H15X 1053   2.581   3.495   9.174  0.4673 -0.0009  0.5031
    8SAPS  H15Y 1054   2.411   3.509   9.126  0.7116 -3.5883  1.6562
    8SAPS  C316 1055   2.576   3.574   8.974 -0.1569  0.9558 -0.0934
    8SAPS  H16X 1056   2.489   3.609   8.913 -1.1278  1.9534  1.7698
    8SAPS  H16Y 1057   2.635   3.511   8.904 -2.3726  0.6690 -1.8444
    8SAPS  C317 1058   2.639   3.709   9.023 -0.2377  0.9854 -0.4733
    8SAPS  H17X 1059   2.717   3.683   9.098  0.7559 -2.2220 -2.3876
    8SAPS  H17Y 1060   2.561   3.763   9.080  1.0679 -0.5303  3.0585
    8SAPS  C318 1061   2.688   3.785   8.900  0.4944  0.7550 -0.5059
    8SAPS  H18X 1062   2.599   3.795   8.834  1.0750  0.7204 -1.3021
    8SAPS  H18Y 1063   2.749   3.717   8.836 -0.9783 -1.7372  0.5818
    8SAPS  H18Z 1064   2.739   3.881   8.922  1.8212  0.1618 -0.9010
    9SAPS     N 1065   6.618   4.784   6.592  0.1331 -0.1443 -0.6018
    9SAPS   HN1 1066   6.519   4.756   6.575  0.2571 -0.6488 -0.4943
    9SAPS   HN2 1067   6.666   4.708   6.643 -1.5047 -0.0356  1.2471
    9SAPS   HN3 1068   6.614   4.876   6.641  0.8720  0.6369 -1.9571
    9SAPS   C12 1069   6.691   4.809   6.458  0.2775  0.9109  0.1761
    9SAPS  H12A 1070   6.797   4.810   6.479  0.1372  0.0424  1.0195
    9SAPS   C13 1071   6.680   4.702   6.349 -0.1324  0.2403  0.1402
    9SAPS  O13A 1072   6.620   4.595   6.373 -0.6948 -0.0823  0.0211
    9SAPS  O13B 1073   6.749   4.709   6.241 -0.0001  1.0755  0.2313
    9SAPS   C11 1074   6.647   4.946   6.408  0.5193 -0.2704 -0.0104
    9SAPS  H11A 1075   6.536   4.953   6.411  0.4218 -1.6398  0.1635
    9SAPS  H11B 1076   6.690   4.961   6.307 -0.2033 -0.7835 -0.4045
    9SAPS     P 1077   6.686   5.192   6.482  0.0850  0.3371  0.1238
    9SAPS   O13 1078   6.710   5.231   6.337  0.2780 -0.5828 -1.2937
    9SAPS   O14 1079   6.551   5.220   6.534  0.2534  0.0209  0.5445
    9SAPS   O12 1080   6.711   5.038   6.496  0.0783  0.1856  0.1241
    9SAPS   O11 1081   6.786   5.255   6.580  0.0007 -0.0936 -0.0932
    9SAPS    C1 1082   6.917   5.194   6.611  0.0373 -0.0506  0.4235
    9SAPS    HA 1083   6.975   5.152   6.526  1.5532  1.6741  0.5621
    9SAPS    HB 1084   6.984   5.275   6.647  0.3862 -0.9631  1.9385
    9SAPS    C2 1085   6.913   5.103   6.741 -0.0414  0.4174 -0.8530
    9SAPS    HS 1086   6.829   5.030   6.736  3.2438 -3.7014 -0.8410
    9SAPS   O21 1087   6.909   5.184   6.859 -0.3448  0.5722  0.3720
    9SAPS   C21 1088   6.825   5.150   6.958 -0.1536  0.1558 -0.5463
    9SAPS   O22 1089   6.748   5.053   6.963  0.3306 -0.2882 -0.3043
    9SAPS   C22 1090   6.847   5.252   7.077  0.6386  0.2333 -0.7908
    9SAPS   H2R 1091   6.953   5.255   7.110  0.0287  2.4197  1.3012
    9SAPS   H2S 1092   6.808   5.351   7.045 -1.7217 -0.0925  0.8886
    9SAPS    C3 1093   7.042   5.018   6.755 -0.6137 -0.7518  0.1576
    9SAPS    HX 1094   7.124   5.089   6.778 -2.2768  1.4061 -0.2059
    9SAPS    HY 1095   7.068   4.965   6.661 -0.2575 -1.8647  0.8664
    9SAPS   O31 1096   7.034   4.930   6.869  0.1961  0.2452  0.8754
    9SAPS   C31 1097   6.941   4.829   6.854  0.0047 -0.5970  0.2152
    9SAPS   O32 1098   6.888   4.800   6.749 -0.4687  0.3319  0.1724
    9SAPS   C32 1099   6.930   4.768   6.997 -0.1868 -0.5222 -0.2900
    9SAPS   H2X 1100   6.946   4.855   7.064 -3.3729  0.2450 -0.3704
    9SAPS   H2Y 1101   7.013   4.695   6.996  0.6129  0.3678 -0.9181
    9SAPS   C23 1102   6.769   5.191   7.198  0.3939  0.1815 -0.1240
    9SAPS   H3R 1103   6.809   5.093   7.230 -1.4368 -1.1897 -1.8120
    9SAPS   H3S 1104   6.664   5.173   7.167  0.5725  0.9408 -1.2354
    9SAPS   C24 1105   6.745   5.309   7.297 -1.1164  0.0184  0.0549
    9SAPS   H4R 1106   6.675   5.280   7.378 -0.6406 -0.1162  0.4256
    9SAPS   H4S 1107   6.708   5.406   7.257  1.0968  1.7982  1.9767
    9SAPS   C25 1108   6.879   5.325   7.374 -0.4505  0.0359 -0.2654
    9SAPS   H5R 1109   6.954   5.396   7.337 -0.6676 -0.0133 -0.7970
    9SAPS   C26 1110   6.913   5.250   7.484  0.1298 -0.2831  0.4392
    9SAPS   H6R 1111   7.012   5.267   7.529  0.4437 -1.4993  0.2464
    9SAPS   C27 1112   6.838   5.134   7.552  0.2631  0.0453  0.1500
    9SAPS   H7R 1113   6.753   5.110   7.485  0.6848  1.3242 -0.9040
    9SAPS   H7S 1114   6.790   5.166   7.647  3.0828  0.9923  1.3500
    9SAPS   C28 1115   6.931   5.019   7.575  0.6307  0.0030  0.0381
    9SAPS   H8R 1116   6.936   4.948   7.492 -1.0717 -2.4416  1.8913
    9SAPS   C29 1117   7.011   5.005   7.689 -0.5422  0.0989  1.2157
    9SAPS   H9R 1118   7.071   4.913   7.695  1.3524  1.0977 -0.9080
    9SAPS  C210 1119   7.001   5.098   7.807 -0.1153 -0.2995  0.9025
    9SAPS  H10R 1120   6.894   5.103   7.834  0.0551 -2.4655  2.2222
    9SAPS  H10S 1121   7.031   5.203   7.785  2.5749 -0.5588  2.7727
    9SAPS  C211 1122   7.070   5.060   7.936  0.3502  0.6351  0.0646
    9SAPS  H11R 1123   7.173   5.024   7.921  0.2659  1.2341 -2.2934
    9SAPS  C212 1124   7.025   5.070   8.064  0.0097  0.4635  0.4718
    9SAPS  H12R 1125   7.091   5.034   8.144  3.1566 -2.2692 -2.9981
    9SAPS  C213 1126   6.894   5.118   8.103  0.2759 -0.5765  0.4573
    9SAPS  H13R 1127   6.849   5.176   8.020 -1.3009 -0.3164  1.4556
    9SAPS  H13S 1128   6.912   5.186   8.189 -0.2960  1.1109 -0.7033
    9SAPS  C214 1129   6.812   4.996   8.136 -0.9140  0.6447  0.2167
    9SAPS  H14R 1130   6.783   4.938   8.047 -1.5367 -0.1275  0.9063
    9SAPS  C215 1131   6.787   4.941   8.256 -0.1116 -0.1248  1.5815
    9SAPS  H15R 1132   6.732   4.846   8.253  1.5345 -1.1564 -2.1381
    9SAPS  C216 1133   6.833   4.988   8.388 -0.0403  0.2768  0.1356
    9SAPS  H16R 1134   6.887   5.085   8.393  1.0086 -0.3540  1.5892
    9SAPS  H16S 1135   6.893   4.907   8.434 -1.1070 -0.7457 -0.2239
    9SAPS  C217 1136   6.714   5.002   8.483 -0.0630 -0.9000 -0.5236
    9SAPS  H17R 1137   6.644   4.916   8.473  0.6071 -1.7208  1.2417
    9SAPS  H17S 1138   6.663   5.098   8.460  0.0819 -0.3546  1.2159
    9SAPS  C218 1139   6.754   5.010   8.636 -0.2318 -0.3046  0.2464
    9SAPS  H18R 1140   6.815   5.102   8.649  2.2442 -1.5152 -1.6845
    9SAPS  H18S 1141   6.818   4.919   8.646 -1.5188 -1.4157 -1.1531
    9SAPS  C219 1142   6.640   5.002   8.736 -0.0526  0.0999  0.0135
    9SAPS  H19R 1143   6.571   4.922   8.704 -0.6416  0.2175  0.9474
    9SAPS  H19S 1144   6.579   5.095   8.732 -0.2969 -0.0975 -1.5430
    9SAPS  C220 1145   6.677   4.975   8.877 -0.0061  0.1754 -0.4114
    9SAPS  H20R 1146   6.741   4.886   8.891  0.8440  0.4460 -2.2450
    9SAPS  H20S 1147   6.586   4.956   8.938  0.2602 -2.8555 -0.8449
    9SAPS  H20T 1148   6.721   5.071   8.913 -1.6608  0.4705  0.9693
    9SAPS   C33 1149   6.803   4.701   7.026  0.3051  0.6063 -0.6498
    9SAPS   H3X 1150   6.786   4.634   6.938  0.0968  1.0746 -0.9743
    9SAPS   H3Y 1151   6.715   4.768   7.032 -0.5355 -0.3388 -1.6603
    9SAPS   C34 1152   6.803   4.607   7.148  0.0216 -0.2782  0.2605
    9SAPS   H4X 1153   6.903   4.559   7.145  0.1112 -0.2378  1.9981
    9SAPS   H4Y 1154   6.736   4.520   7.129  0.4232 -0.0265 -2.9641
    9SAPS   C35 1155   6.766   4.686   7.276 -0.0927  0.1453 -0.4887
    9SAPS   H5X 1156   6.657   4.706   7.276 -0.2691 -0.7909 -0.1889
    9SAPS   H5Y 1157   6.819   4.784   7.278 -2.5337  1.6737 -3.0799
    9SAPS   C36 1158   6.790   4.597   7.402  0.8839 -0.4298  0.3012
    9SAPS   H6X 1159   6.893   4.556   7.400  0.7008 -0.8933 -0.1777
    9SAPS   H6Y 1160   6.716   4.514   7.395  1.0142 -0.5748  0.6136
    9SAPS   C37 1161   6.753   4.664   7.543 -0.1386  0.0508  0.1213
    9SAPS   H7X 1162   6.645   4.690   7.540 -0.1452 -0.0303 -2.3863
    9SAPS   H7Y 1163   6.811   4.758   7.550  0.2630 -0.2231  0.5463
    9SAPS   C38 1164   6.777   4.573   7.658 -0.3693 -0.2736 -0.2074
    9SAPS   H8X 1165   6.884   4.545   7.675 -0.5114  0.0227  1.2964
    9SAPS   H8Y 1166   6.713   4.483   7.652 -0.0257 -0.5026 -0.5063
    9SAPS   C39 1167   6.717   4.630   7.778  0.1493  0.0227  1.0052
    9SAPS   H9X 1168   6.612   4.659   7.757  0.0463 -1.7812 -1.4463
    9SAPS   H9Y 1169   6.773   4.717   7.818  0.4628  0.8859 -1.1755
    9SAPS  C310 1170   6.708   4.534   7.900  0.2945  0.6267 -0.1403
    9SAPS  H10X 1171   6.806   4.484   7.917 -0.3376 -0.5277  0.2284
    9SAPS  H10Y 1172   6.632   4.458   7.871 -0.3239  2.0970 -2.6489
    9SAPS  C311 1173   6.670   4.608   8.029  0.2062  0.0037 -0.1366
    9SAPS  H11X 1174   6.583   4.673   8.004  0.7581  1.2769  1.1516
    9SAPS  H11Y 1175   6.756   4.671   8.060  0.3736  0.2466 -1.0728
    9SAPS  C312 1176   6.636   4.520   8.149  0.3567  0.0608  0.9147
    9SAPS  H12X 1177   6.723   4.453   8.164 -0.6882 -1.6139 -0.1998
    9SAPS  H12Y 1178   6.554   4.453   8.114  1.2360 -0.8050  0.4625
    9SAPS  C313 1179   6.609   4.598   8.279 -0.3628  0.0919  0.7350
    9SAPS  H13X 1180   6.531   4.676   8.263 -0.1184  0.0758 -0.6978
    9SAPS  H13Y 1181   6.711   4.639   8.297 -0.4721  3.0320 -3.6157
    9SAPS  C314 1182   6.577   4.516   8.406 -0.6001  0.4516  0.1987
    9SAPS  H14X 1183   6.661   4.444   8.413  0.0037  1.0721 -0.4625
    9SAPS  H14Y 1184   6.478   4.467   8.401 -0.7869  0.7894  0.5049
    9SAPS  C315 1185   6.568   4.606   8.526  0.1531  0.0136 -0.0005
    9SAPS  H15X 1186   6.491   4.686   8.518  1.3468  1.3833  1.4137
    9SAPS  H15Y 1187   6.664   4.661   8.537 -1.6797  3.3406  0.9316
    9SAPS  C316 1188   6.530   4.529   8.650  0.1494  0.9725 -0.6530
    9SAPS  H16X 1189   6.591   4.436   8.660 -2.4956 -0.7985 -0.0967
    9SAPS  H16Y 1190   6.426   4.491   8.650 -0.1857  1.2031  4.5794
    9SAPS  C317 1191   6.540   4.611   8.780 -0.0214 -0.0775  0.6582
    9SAPS  H17X 1192   6.520   4.716   8.751  0.6527  0.0613  0.6635
    9SAPS  H17Y 1193   6.647   4.613   8.812  0.1532  0.3020  0.0574
    9SAPS  C318 1194   6.450   4.569   8.891 -0.8756  0.4369 -0.4684
    9SAPS  H18X 1195   6.476   4.630   8.981 -1.8237  0.7267 -0.3829
    9SAPS  H18Y 1196   6.478   4.466   8.923  0.5884  1.4526  1.8409
    9SAPS  H18Z 1197   6.342   4.564   8.869 -0.3192 -0.3136 -3.3865
   10SAPS     N 1198   6.592   4.328   6.342  0.0430 -0.3588 -0.2741
   10SAPS   HN1 1199   6.608   4.430   6.348  1.9879 -0.7000  2.0557
   10SAPS   HN2 1200   6.660   4.288   6.411 -3.0163 -2.9481  1.5458
   10SAPS   HN3 1201   6.609   4.301   6.243 -0.6217  1.6596 -0.9831
   10SAPS   C12 1202   6.455   4.296   6.378 -0.7820  0.3577 -0.0070
   10SAPS  H12A 1203   6.396   4.363   6.317 -0.7732  0.4110  0.0437
   10SAPS   C13 1204   6.426   4.147   6.342  0.2151 -1.0252 -0.2241
   10SAPS  O13A 1205   6.506   4.069   6.278 -0.4337 -0.4356  0.4251
   10SAPS  O13B 1206   6.308   4.103   6.359 -0.1102  0.4827  0.7132
   10SAPS   C11 1207   6.433   4.321   6.530  0.3032  0.4384 -0.0162
   10SAPS  H11A 1208   6.518   4.267   6.577 -0.8431 -0.6697  0.8804
   10SAPS  H11B 1209   6.341   4.269   6.566  0.8241  0.0612  0.8068
   10SAPS     P 1210   6.305   4.547   6.582 -0.2711  0.1515  0.4368
   10SAPS   O13 1211   6.363   4.676   6.609 -0.0352  0.2309 -0.0730
   10SAPS   O14 1212   6.220   4.528   6.465  0.2754  0.0642 -0.1141
   10SAPS   O12 1213   6.428   4.458   6.565  0.0983 -0.2135 -0.1821
   10SAPS   O11 1214   6.218   4.499   6.704 -0.5686 -0.2213 -0.0209
   10SAPS    C1 1215   6.277   4.456   6.825  0.5680 -0.0613  0.2050
   10SAPS    HA 1216   6.208   4.386   6.878  0.4247 -0.0385  0.0526
   10SAPS    HB 1217   6.359   4.386   6.801 -0.3807 -0.4120 -2.4329
   10SAPS    C2 1218   6.324   4.573   6.919  1.1243 -0.2393  0.0238
   10SAPS    HS 1219   6.413   4.618   6.869 -1.2820  0.3156 -4.2483
   10SAPS   O21 1220   6.356   4.535   7.054  0.5080 -0.2991  0.1954
   10SAPS   C21 1221   6.454   4.445   7.067  0.6389  0.0776 -0.5107
   10SAPS   O22 1222   6.536   4.415   6.983 -0.6085  0.1072 -0.0165
   10SAPS   C22 1223   6.448   4.400   7.217 -0.6609  0.0015 -0.1322
   10SAPS   H2R 1224   6.442   4.483   7.291  0.6609 -1.0731  1.2443
   10SAPS   H2S 1225   6.353   4.343   7.220 -0.1464 -1.0699 -2.2045
   10SAPS    C3 1226   6.205   4.672   6.931 -0.1141 -0.0564 -0.1810
   10SAPS    HX 1227   6.113   4.610   6.938  0.2224 -0.7908 -1.7593
   10SAPS    HY 1228   6.194   4.728   6.835  2.2929  2.2224  0.7444
   10SAPS   O31 1229   6.203   4.752   7.051 -0.3130  0.1723 -0.0861
   10SAPS   C31 1230   6.291   4.848   7.047  0.3823  0.0203  0.1384
   10SAPS   O32 1231   6.356   4.889   6.949 -0.1261  0.2117  0.0684
   10SAPS   C32 1232   6.314   4.908   7.184 -0.1223  0.2077 -0.1352
   10SAPS   H2X 1233   6.282   4.827   7.254 -0.7107 -0.9249 -1.6599
   10SAPS   H2Y 1234   6.252   4.999   7.198 -0.2258  0.0540  0.4294
   10SAPS   C23 1235   6.565   4.307   7.263  0.6089  0.6633  0.4781
   10SAPS   H3R 1236   6.653   4.361   7.305 -0.3947  0.4773  3.0131
   10SAPS   H3S 1237   6.606   4.257   7.173  2.0005  0.0904  1.3960
   10SAPS   C24 1238   6.532   4.188   7.365  0.6656 -0.4831 -0.3571
   10SAPS   H4R 1239   6.479   4.236   7.450  0.4001  2.2885 -1.9860
   10SAPS   H4S 1240   6.619   4.132   7.407 -0.5194 -0.9049  1.6450
   10SAPS   C25 1241   6.449   4.086   7.291 -0.6704  0.3807  0.6019
   10SAPS   H5R 1242   6.495   4.035   7.205 -0.9234  1.5902 -0.2754
   10SAPS   C26 1243   6.325   4.050   7.326 -0.3376  0.3424 -0.0472
   10SAPS   H6R 1244   6.280   3.981   7.253 -0.2499  0.6969 -0.4359
   10SAPS   C27 1245   6.246   4.107   7.437  0.4648 -0.5678 -0.6335
   10SAPS   H7R 1246   6.226   4.215   7.418 -2.6756 -0.6622  1.5133
   10SAPS   H7S 1247   6.299   4.107   7.534 -1.9910  0.2207  0.7952
   10SAPS   C28 1248   6.114   4.033   7.448  0.5416  0.0354  0.2552
   10SAPS   H8R 1249   6.075   3.984   7.358  0.5127  0.0251  0.2736
   10SAPS   C29 1250   6.035   4.020   7.557 -0.0817  0.0802  0.6858
   10SAPS   H9R 1251   5.939   3.972   7.533 -0.0277  1.4328 -2.9965
   10SAPS  C210 1252   6.053   4.057   7.697  0.3831  0.8737  0.0201
   10SAPS  H10R 1253   6.128   4.139   7.692 -0.5808  1.7125 -1.5056
   10SAPS  H10S 1254   6.096   3.969   7.750 -0.9929 -0.2062 -0.5708
   10SAPS  C211 1255   5.930   4.104   7.764  0.2044  0.2737 -0.0791
   10SAPS  H11R 1256   5.847   4.125   7.695 -1.7796 -1.1874  1.6958
   10SAPS  C212 1257   5.913   4.139   7.890  0.0937  0.2758 -0.5866
   10SAPS  H12R 1258   5.813   4.181   7.911  0.6331  0.7701  1.2340
   10SAPS  C213 1259   6.016   4.138   8.007  1.0161 -0.2941  0.3651
   10SAPS  H13R 1260   6.052   4.242   8.025 -2.6794  1.0391  0.7984
   10SAPS  H13S 1261   6.110   4.082   7.987  0.8790 -1.5113  2.7868
   10SAPS  C214 1262   5.945   4.104   8.132 -0.2668 -0.3592  0.2425
   10SAPS  H14R 1263   5.899   4.005   8.124 -1.5731  0.2722 -0.3613
   10SAPS  C215 1264   5.945   4.170   8.244  0.3923 -0.0689  0.5012
   10SAPS  H15R 1265   5.902   4.115   8.329 -0.5857  0.1777  0.1798
   10SAPS  C216 1266   6.017   4.298   8.274  0.5441  0.2757  0.0565
   10SAPS  H16R 1267   5.991   4.379   8.203 -2.9605 -0.0552  0.7673
   10SAPS  H16S 1268   6.128   4.286   8.279  0.3371 -1.7385  3.9805
   10SAPS  C217 1269   5.957   4.351   8.406  0.6519 -0.4709 -0.3807
   10SAPS  H17R 1270   5.846   4.344   8.409  0.5406  0.4340 -1.6440
   10SAPS  H17S 1271   5.976   4.460   8.416 -1.3209 -0.0029 -1.0899
   10SAPS  C218 1272   6.013   4.276   8.533 -0.2547  0.0234  0.2494
   10SAPS  H18R 1273   6.061   4.186   8.489  1.4252  0.6449  0.7259
   10SAPS  H18S 1274   5.928   4.247   8.599 -0.9488 -0.7433 -0.9509
   10SAPS  C219 1275   6.122   4.352   8.611 -0.7797  0.4404 -0.2017
   10SAPS  H19R 1276   6.080   4.446   8.652 -1.1268 -0.3058  1.2253
   10SAPS  H19S 1277   6.209   4.383   8.548 -0.9074 -1.1248 -1.2139
   10SAPS  C220 1278   6.168   4.265   8.729 -0.0360  0.7828 -0.0697
   10SAPS  H20R 1279   6.218   4.170   8.702 -0.1625  0.2896  1.3286
   10SAPS  H20S 1280   6.086   4.238   8.798  1.0915 -1.5565  0.4487
   10SAPS  H20T 1281   6.244   4.320   8.790  1.5378 -1.5753  0.2165
   10SAPS   C33 1282   6.464   4.930   7.222 -0.5882 -0.1194 -0.0416
   10SAPS   H3X 1283   6.517   5.008   7.164 -0.8669 -1.4701 -2.2246
   10SAPS   H3Y 1284   6.528   4.840   7.211  2.1183  1.8192 -1.0396
   10SAPS   C34 1285   6.485   4.942   7.370  0.6450 -0.5153  0.0641
   10SAPS   H4X 1286   6.591   4.937   7.405  0.0496  0.6568  2.1799
   10SAPS   H4Y 1287   6.439   4.857   7.426  0.1005  1.2815  2.4966
   10SAPS   C35 1288   6.414   5.067   7.417  0.2357 -0.6218 -0.2864
   10SAPS   H5X 1289   6.304   5.060   7.402  0.3629 -1.3495 -0.9066
   10SAPS   H5Y 1290   6.450   5.154   7.358  0.8909  0.7107  1.9804
   10SAPS   C36 1291   6.447   5.111   7.554 -0.5589 -0.4207  0.2084
   10SAPS   H6X 1292   6.387   5.201   7.581  1.1836  0.7092  0.4460
   10SAPS   H6Y 1293   6.553   5.141   7.568 -0.4038 -0.4632 -0.8460
   10SAPS   C37 1294   6.418   5.004   7.662  0.0480  0.2307 -0.1522
   10SAPS   H7X 1295   6.485   4.915   7.651  1.6789  1.3230  0.5964
   10SAPS   H7Y 1296   6.318   4.959   7.642  0.5031 -1.3580  0.9272
   10SAPS   C38 1297   6.435   5.054   7.812  0.3359  0.5880  0.9483
   10SAPS   H8X 1298   6.389   5.155   7.815 -1.7786 -0.2912 -0.0908
   10SAPS   H8Y 1299   6.542   5.071   7.839  0.4184 -0.0811  1.0806
   10SAPS   C39 1300   6.375   4.963   7.916  0.7343  0.6234 -0.3267
   10SAPS   H9X 1301   6.426   4.865   7.917  0.6796  0.5919 -0.5325
   10SAPS   H9Y 1302   6.271   4.940   7.886  0.6217 -0.2362  0.6821
   10SAPS  C310 1303   6.377   5.024   8.053  0.4629  0.0426 -0.0915
   10SAPS  H10X 1304   6.325   5.122   8.059  0.7788  0.1129  2.0036
   10SAPS  H10Y 1305   6.482   5.044   8.083  0.0587  1.2567  0.5699
   10SAPS  C311 1306   6.304   4.930   8.149  0.4025  1.0260  0.4270
   10SAPS  H11X 1307   6.357   4.833   8.148  1.3652  1.5316 -1.1371
   10SAPS  H11Y 1308   6.203   4.908   8.107  1.0603 -1.9436  0.2306
   10SAPS  C312 1309   6.309   4.978   8.294  0.4253  1.2289  0.3488
   10SAPS  H12X 1310   6.293   5.088   8.302 -0.9412  1.1599 -1.0688
   10SAPS  H12Y 1311   6.416   4.971   8.326 -0.5292 -2.3774  3.4685
   10SAPS  C313 1312   6.224   4.893   8.392  0.3350  0.1495 -0.4757
   10SAPS  H13X 1313   6.258   4.788   8.400  0.6880  0.1179 -2.0918
   10SAPS  H13Y 1314   6.119   4.892   8.357  0.4650  1.3877 -0.9863
   10SAPS  C314 1315   6.238   4.966   8.530  1.2359  0.2360  0.0382
   10SAPS  H14X 1316   6.209   5.073   8.519 -1.3839 -0.2689  1.3377
   10SAPS  H14Y 1317   6.347   4.966   8.549  1.3296  1.5617 -0.4031
   10SAPS  C315 1318   6.150   4.905   8.639  0.7764 -0.3769 -0.1384
   10SAPS  H15X 1319   6.169   4.796   8.645 -2.1324 -0.8946  0.9807
   10SAPS  H15Y 1320   6.041   4.915   8.625  0.3571 -0.6681  2.4096
   10SAPS  C316 1321   6.187   4.956   8.782  0.8158 -0.3756  1.2080
   10SAPS  H16X 1322   6.183   5.067   8.790 -0.3886 -0.3282  0.3014
   10SAPS  H16Y 1323   6.288   4.918   8.807  0.5285  0.1456  3.3755
   10SAPS  C317 1324   6.083   4.909   8.878 -0.0470 -0.1624  0.3144
   10SAPS  H17X 1325   6.064   4.800   8.872 -0.2344 -0.1802  1.1166
   10SAPS  H17Y 1326   5.989   4.967   8.866  0.6590  0.5522 -2.5248
   10SAPS  C318 1327   6.134   4.938   9.026 -0.4696  0.1420 -0.3203
   10SAPS  H18X 1328   6.046   4.913   9.089  0.4086 -0.3595  0.7487
   10SAPS  H18Y 1329   6.162   5.045   9.039 -2.5036  0.4929  1.5824
   10SAPS  H18Z 1330   6.222   4.874   9.048 -0.1175  0.8606  0.4169
   11SAPS     N 1331   1.400   0.141   5.756  0.4545  0.4045 -0.6286
   11SAPS   HN1 1332   1.391   0.041   5.726 -1.9763  0.3681  0.0064
   11SAPS   HN2 1333   1.452   0.193   5.683  0.1935  0.3873 -0.8298
   11SAPS   HN3 1334   1.460   0.151   5.840  0.1133  2.5858 -0.5943
   11SAPS   C12 1335   1.263   0.202   5.796  0.1131  0.4861  0.4010
   11SAPS  H12A 1336   1.291   0.287   5.857  1.4152  2.1715 -2.3678
   11SAPS   C13 1337   1.177   0.253   5.675 -1.3116  0.2608  0.2175
   11SAPS  O13A 1338   1.205   0.233   5.555 -0.4513 -0.1034 -0.7102
   11SAPS  O13B 1339   1.072   0.308   5.709 -0.5294 -0.0542 -0.3019
   11SAPS   C11 1340   1.176   0.095   5.871  0.1872 -0.3282 -0.8224
   11SAPS  H11A 1341   1.144   0.017   5.799 -0.7459 -1.2829  0.5651
   11SAPS  H11B 1342   1.084   0.143   5.911  1.8065  0.6023  2.0858
   11SAPS     P 1343   1.248   0.100   6.124  0.1192  0.1810 -0.3587
   11SAPS   O13 1344   1.344   0.017   6.207  0.2903  0.6087  0.5392
   11SAPS   O14 1345   1.272   0.243   6.111 -0.1297 -0.1284  0.3058
   11SAPS   O12 1346   1.256   0.042   5.977 -0.3772 -0.2964 -0.1472
   11SAPS   O11 1347   1.093   0.064   6.168  0.3679  0.2291 -0.1180
   11SAPS    C1 1348   1.066   0.038   6.308  0.1473 -0.2671  0.2692
   11SAPS    HA 1349   0.967  -0.011   6.321 -0.5744  1.1733  0.3706
   11SAPS    HB 1350   1.130  -0.039   6.355  1.0070 -0.3841 -1.0422
   11SAPS    C2 1351   1.066   0.152   6.403 -0.3363  0.0085  0.9221
   11SAPS    HS 1352   0.991   0.224   6.366 -0.8760 -1.7998 -1.7902
   11SAPS   O21 1353   1.198   0.208   6.421 -0.5693  0.0458  0.1224
   11SAPS   C21 1354   1.205   0.337   6.435 -0.2564  0.2434 -0.2839
   11SAPS   O22 1355   1.105   0.406   6.463  0.6693 -0.4954 -0.3075
   11SAPS   C22 1356   1.352   0.390   6.422 -0.4544 -0.6706 -0.0799
   11SAPS   H2R 1357   1.404   0.396   6.520 -0.1294  1.9790 -0.3375
   11SAPS   H2S 1358   1.396   0.326   6.343  1.1599  1.8266 -1.3193
   11SAPS    C3 1359   1.007   0.106   6.542  0.4321  0.0625 -1.1025
   11SAPS    HX 1360   0.914   0.052   6.514  1.6639 -0.9555 -3.4518
   11SAPS    HY 1361   0.978   0.193   6.604  1.3035 -0.5704  0.2311
   11SAPS   O31 1362   1.093   0.015   6.618 -0.2484  0.2294  0.3200
   11SAPS   C31 1363   1.183   0.068   6.700  0.2772 -0.2885  0.3143
   11SAPS   O32 1364   1.213   0.185   6.706 -0.1011  0.0137 -0.0546
   11SAPS   C32 1365   1.237  -0.045   6.796  0.0461 -0.2087  0.1497
   11SAPS   H2X 1366   1.345  -0.035   6.820  0.5971  1.8559 -2.7141
   11SAPS   H2Y 1367   1.242  -0.137   6.733 -0.1051 -0.0960 -0.0290
   11SAPS   C23 1368   1.356   0.530   6.359 -0.2117  0.0685 -0.1146
   11SAPS   H3R 1369   1.289   0.525   6.270 -1.4326  0.8767  0.7253
   11SAPS   H3S 1370   1.456   0.551   6.316  0.7447 -3.5202  0.0160
   11SAPS   C24 1371   1.313   0.646   6.454  0.2427  0.4781  0.2559
   11SAPS   H4R 1372   1.212   0.616   6.491  0.0409  0.0147 -0.6374
   11SAPS   H4S 1373   1.307   0.733   6.386 -0.9418 -0.5898 -1.0812
   11SAPS   C25 1374   1.405   0.685   6.560 -0.1091 -0.4623 -0.0698
   11SAPS   H5R 1375   1.502   0.714   6.517 -0.4267  0.3370 -0.2704
   11SAPS   C26 1376   1.391   0.683   6.691  0.0553  0.6612  0.7559
   11SAPS   H6R 1377   1.474   0.722   6.752  0.1280 -1.0349  1.8114
   11SAPS   C27 1378   1.264   0.630   6.758 -0.0826  0.2179  0.2320
   11SAPS   H7R 1379   1.172   0.629   6.695 -0.4721 -0.7486  0.7966
   11SAPS   H7S 1380   1.223   0.708   6.826 -1.6223  0.2937 -0.7242
   11SAPS   C28 1381   1.286   0.491   6.818 -0.8408  0.3146  0.4412
   11SAPS   H8R 1382   1.254   0.410   6.751  0.9201  1.1966 -1.5673
   11SAPS   C29 1383   1.350   0.449   6.925  0.2828 -0.6949 -0.1308
   11SAPS   H9R 1384   1.351   0.340   6.941 -3.9739 -0.4366  4.4183
   11SAPS  C210 1385   1.410   0.547   7.027  0.0472  0.5060  0.2585
   11SAPS  H10R 1386   1.320   0.579   7.084 -1.8114 -0.4654 -1.9597
   11SAPS  H10S 1387   1.451   0.639   6.981  0.9856 -0.6239 -1.2344
   11SAPS  C211 1388   1.510   0.472   7.121  0.0244  0.2307 -0.4924
   11SAPS  H11R 1389   1.454   0.400   7.182  1.5949  0.0724  0.8273
   11SAPS  C212 1390   1.645   0.489   7.129  0.3786 -0.5200  0.3227
   11SAPS  H12R 1391   1.697   0.422   7.199 -1.1536 -2.7151 -0.5310
   11SAPS  C213 1392   1.734   0.576   7.037 -0.2881 -0.6364  0.4120
   11SAPS  H13R 1393   1.683   0.614   6.946 -0.0285 -0.4188  0.3571
   11SAPS  H13S 1394   1.817   0.516   6.991  2.8289  3.3354  0.3181
   11SAPS  C214 1395   1.798   0.704   7.093  0.3459 -0.0929  0.9759
   11SAPS  H14R 1396   1.722   0.764   7.146  0.0454  1.4653 -1.0799
   11SAPS  C215 1397   1.930   0.743   7.089 -0.1081  0.4965  0.0984
   11SAPS  H15R 1398   1.968   0.830   7.144  0.1416 -0.4455  1.4810
   11SAPS  C216 1399   2.047   0.670   7.033 -0.7766  0.3735  0.1341
   11SAPS  H16R 1400   2.054   0.681   6.923  0.8676 -3.0807 -0.2634
   11SAPS  H16S 1401   2.023   0.562   7.043 -0.0997  0.2548  0.5852
   11SAPS  C217 1402   2.183   0.695   7.114 -0.0376 -0.4999 -0.6618
   11SAPS  H17R 1403   2.212   0.802   7.104  0.0558 -0.3130  1.3239
   11SAPS  H17S 1404   2.260   0.628   7.070  2.2608  1.1974  0.5080
   11SAPS  C218 1405   2.172   0.652   7.258  0.3923 -0.7691 -0.7725
   11SAPS  H18R 1406   2.176   0.541   7.260  2.2480 -0.7221 -0.1445
   11SAPS  H18S 1407   2.071   0.668   7.300 -0.0419 -1.2961 -1.5953
   11SAPS  C219 1408   2.274   0.715   7.360 -0.0346 -0.5370  0.9025
   11SAPS  H19R 1409   2.239   0.821   7.363  2.8763  0.6505 -1.6748
   11SAPS  H19S 1410   2.381   0.718   7.332 -0.0566 -0.5497  0.8165
   11SAPS  C220 1411   2.259   0.642   7.489  0.6311 -0.0340 -0.2649
   11SAPS  H20R 1412   2.329   0.672   7.570  1.0069 -3.3003  0.7718
   11SAPS  H20S 1413   2.274   0.531   7.486  0.2885 -0.2067  2.2603
   11SAPS  H20T 1414   2.165   0.659   7.545  1.2295  1.1420  0.4296
   11SAPS   C33 1415   1.149  -0.064   6.922  0.0639 -0.4739 -1.5258
   11SAPS   H3X 1416   1.161  -0.171   6.952 -0.8300 -0.7847 -2.2250
   11SAPS   H3Y 1417   1.038  -0.064   6.920 -0.0792 -0.9723  1.6148
   11SAPS   C34 1418   1.179   0.029   7.045 -0.9456  0.2381 -0.2246
   11SAPS   H4X 1419   1.138   0.131   7.025 -1.5863  0.2627  1.1183
   11SAPS   H4Y 1420   1.289   0.037   7.062 -0.9945 -1.6916  1.3687
   11SAPS   C35 1421   1.104  -0.017   7.165  0.1195  0.1977 -0.2449
   11SAPS   H5X 1422   1.124  -0.126   7.170  1.2929  0.4797  2.5071
   11SAPS   H5Y 1423   0.997   0.013   7.160 -0.0312 -0.4987 -2.3849
   11SAPS   C36 1424   1.156   0.047   7.295  0.0261 -0.0843  0.5889
   11SAPS   H6X 1425   1.192   0.147   7.264 -1.3725 -0.1485 -1.5092
   11SAPS   H6Y 1426   1.226  -0.023   7.345  1.7633  1.0029 -0.2516
   11SAPS   C37 1427   1.051   0.065   7.410 -0.2964 -0.2996 -0.1935
   11SAPS   H7X 1428   0.977  -0.017   7.416 -0.6375  0.0510  0.6348
   11SAPS   H7Y 1429   0.989   0.155   7.390 -0.0356  0.0139  0.3540
   11SAPS   C38 1430   1.105   0.090   7.553  0.4064  0.0464 -0.5020
   11SAPS   H8X 1431   1.157   0.188   7.559 -1.6147  1.1518 -0.2559
   11SAPS   H8Y 1432   1.184   0.014   7.572  1.2350  1.2045  0.9247
   11SAPS   C39 1433   0.995   0.084   7.662 -0.2326  0.1762 -0.2118
   11SAPS   H9X 1434   0.927  -0.003   7.644 -0.5781  0.9250 -2.9416
   11SAPS   H9Y 1435   0.940   0.180   7.663 -2.7178 -1.1097 -1.8211
   11SAPS  C310 1436   1.028   0.049   7.815 -0.1922  0.0556  0.3550
   11SAPS  H10X 1437   1.081  -0.049   7.816  0.3094  0.3279  0.9118
   11SAPS  H10Y 1438   0.929   0.051   7.864 -0.8301 -1.3161 -0.7973
   11SAPS  C311 1439   1.122   0.146   7.883  0.3777 -0.2065 -0.1754
   11SAPS  H11X 1440   1.086   0.250   7.875 -0.8281 -0.6806 -1.2756
   11SAPS  H11Y 1441   1.219   0.152   7.830  0.5893  1.2888  0.3518
   11SAPS  C312 1442   1.145   0.110   8.028 -0.1553 -0.3369  0.1659
   11SAPS  H12X 1443   1.232   0.163   8.073 -0.5701  2.9883 -2.5687
   11SAPS  H12Y 1444   1.161   0.000   8.023 -0.1188 -0.4459  2.2300
   11SAPS  C313 1445   1.031   0.148   8.125 -0.4131  0.3231 -1.3779
   11SAPS  H13X 1446   0.947   0.086   8.089 -0.0118 -0.4653 -0.9802
   11SAPS  H13Y 1447   1.009   0.257   8.135  0.1047  0.2246  3.6480
   11SAPS  C314 1448   1.077   0.100   8.270 -0.3496 -0.2349  0.8645
   11SAPS  H14X 1449   1.172   0.154   8.287 -1.4294  1.2832  2.4297
   11SAPS  H14Y 1450   1.073  -0.011   8.269  1.4127 -0.3609 -2.0826
   11SAPS  C315 1451   0.986   0.170   8.367  0.2877  0.6016  0.0891
   11SAPS  H15X 1452   0.980   0.273   8.328  1.7101 -0.0857 -2.1413
   11SAPS  H15Y 1453   1.025   0.172   8.472  0.8619  0.6782 -0.1193
   11SAPS  C316 1454   0.840   0.116   8.359  0.3482  0.3179  0.1948
   11SAPS  H16X 1455   0.837   0.010   8.390  1.3707  0.6114  1.3712
   11SAPS  H16Y 1456   0.801   0.123   8.255 -2.8540 -1.6916  1.1311
   11SAPS  C317 1457   0.738   0.191   8.445 -0.6296  0.4877 -0.0443
   11SAPS  H17X 1458   0.726   0.299   8.423 -0.4304  0.9987  2.0726
   11SAPS  H17Y 1459   0.772   0.179   8.551 -0.3358 -0.7173 -0.2624
   11SAPS  C318 1460   0.601   0.114   8.434 -0.1804  0.0569  0.4096
   11SAPS  H18X 1461   0.528   0.128   8.516  1.5071  1.2632  1.7635
   11SAPS  H18Y 1462   0.629   0.007   8.435 -0.6462 -0.0662  1.5974
   11SAPS  H18Z 1463   0.548   0.131   8.337  0.0387  0.0379  0.2874
   12SAPS     N 1464   0.251   1.450   6.150  0.1679  0.4899 -0.3679
   12SAPS   HN1 1465   0.194   1.472   6.234 -1.4587  1.0877 -1.5592
   12SAPS   HN2 1466   0.231   1.351   6.126 -0.4786  0.3918  0.5327
   12SAPS   HN3 1467   0.350   1.457   6.179  0.6961  1.0803 -2.1830
   12SAPS   C12 1468   0.230   1.547   6.040 -0.6213  0.3904 -0.2080
   12SAPS  H12A 1469   0.303   1.531   5.962  0.4425  0.2987  0.7861
   12SAPS   C13 1470   0.107   1.516   5.950  0.2435  0.1125  0.3647
   12SAPS  O13A 1471   0.062   1.394   5.945 -0.6782  0.2849  0.2527
   12SAPS  O13B 1472   0.093   1.589   5.850 -0.1398 -0.1451 -0.7461
   12SAPS   C11 1473   0.228   1.690   6.094 -0.4171  0.3281  0.1876
   12SAPS  H11A 1474   0.224   1.763   6.010  2.0592  0.2181 -0.1156
   12SAPS  H11B 1475   0.320   1.697   6.155 -1.0696 -0.9899  1.3883
   12SAPS     P 1476   0.044   1.846   6.192 -0.2762 -0.3557 -0.4006
   12SAPS   O13 1477   0.009   1.888   6.057  0.2050 -0.4563  0.3149
   12SAPS   O14 1478  -0.064   1.830   6.292  0.3190  0.6864  0.7931
   12SAPS   O12 1479   0.116   1.710   6.188  0.1704  0.7877 -0.8137
   12SAPS   O11 1480   0.161   1.935   6.252 -0.1044 -0.4603 -0.3099
   12SAPS    C1 1481   0.130   2.036   6.348 -0.1480 -0.8594  0.6753
   12SAPS    HA 1482   0.191   2.124   6.319 -0.6076 -0.9634 -0.6665
   12SAPS    HB 1483   0.026   2.076   6.341 -0.8310 -2.4286  1.2855
   12SAPS    C2 1484   0.159   1.987   6.487  0.5426  0.1844 -0.3998
   12SAPS    HS 1485   0.075   1.920   6.516  0.7764 -0.1147 -0.4071
   12SAPS   O21 1486   0.139   2.089   6.586  0.3818 -0.4798  0.3658
   12SAPS   C21 1487   0.232   2.187   6.589 -0.9834  0.1505  0.1673
   12SAPS   O22 1488   0.330   2.203   6.517 -0.2267  0.1918  0.4360
   12SAPS   C22 1489   0.195   2.288   6.700 -0.4477  0.7588 -0.5024
   12SAPS   H2R 1490   0.214   2.397   6.689 -2.1851  1.4105  1.9013
   12SAPS   H2S 1491   0.084   2.284   6.706 -0.5837  0.6896 -2.5161
   12SAPS    C3 1492   0.290   1.907   6.500  0.0985 -0.4173  0.0636
   12SAPS    HX 1493   0.370   1.977   6.468  0.5883 -1.9520 -2.3249
   12SAPS    HY 1494   0.299   1.821   6.430  0.3092 -0.3614  0.0209
   12SAPS   O31 1495   0.306   1.868   6.636 -0.0018 -0.7746 -0.0215
   12SAPS   C31 1496   0.232   1.758   6.676 -0.2239  0.9589 -0.0049
   12SAPS   O32 1497   0.192   1.671   6.603 -0.4212  0.0866 -0.0599
   12SAPS   C32 1498   0.236   1.752   6.827  0.9436 -0.1309  0.2751
   12SAPS   H2X 1499   0.330   1.803   6.859  1.9338 -0.3610 -2.0269
   12SAPS   H2Y 1500   0.256   1.645   6.849 -1.4309 -0.9684 -1.2736
   12SAPS   C23 1501   0.260   2.250   6.837 -0.0971  0.5254 -0.8121
   12SAPS   H3R 1502   0.364   2.289   6.829  0.3922 -0.5105  0.2231
   12SAPS   H3S 1503   0.261   2.139   6.848  0.0369  0.5186 -0.8916
   12SAPS   C24 1504   0.199   2.310   6.961  0.3446 -0.5511  1.1710
   12SAPS   H4R 1505   0.187   2.414   6.923  2.7921 -0.3597  0.7713
   12SAPS   H4S 1506   0.276   2.311   7.042  1.3558 -4.0572  0.4021
   12SAPS   C25 1507   0.073   2.238   7.002 -0.5471 -0.0328  0.4812
   12SAPS   H5R 1508   0.012   2.191   6.924 -2.6887  1.9843  0.8035
   12SAPS   C26 1509   0.037   2.214   7.129  0.7487  0.0715 -0.6498
   12SAPS   H6R 1510  -0.067   2.181   7.143 -0.3350  2.9030 -1.3438
   12SAPS   C27 1511   0.090   2.249   7.263  0.1873 -0.0619 -0.0846
   12SAPS   H7R 1512   0.198   2.222   7.272  0.6577  1.6676 -0.1746
   12SAPS   H7S 1513   0.041   2.190   7.344  1.8052 -2.3074 -0.6477
   12SAPS   C28 1514   0.075   2.395   7.305  0.5672 -0.0412  0.2863
   12SAPS   H8R 1515   0.082   2.470   7.225  0.1641  0.7606  0.9834
   12SAPS   C29 1516   0.049   2.443   7.424  0.4663 -0.0882 -0.0669
   12SAPS   H9R 1517   0.029   2.551   7.433  2.6445  0.1937  2.7633
   12SAPS  C210 1518   0.029   2.376   7.557 -0.0174 -0.3440  0.2485
   12SAPS  H10R 1519   0.128   2.343   7.594 -0.6925 -2.9934 -0.1025
   12SAPS  H10S 1520  -0.026   2.282   7.537  1.2581 -1.6277  2.4456
   12SAPS  C211 1521  -0.061   2.441   7.659 -0.3786  0.4824  0.1361
   12SAPS  H11R 1522  -0.119   2.529   7.627 -1.2554 -0.1326 -0.0106
   12SAPS  C212 1523  -0.077   2.389   7.783 -0.6338  0.1829 -0.7005
   12SAPS  H12R 1524  -0.159   2.425   7.846 -1.1480 -0.8920 -0.7365
   12SAPS  C213 1525  -0.011   2.271   7.841  0.5402  0.8955  0.0657
   12SAPS  H13R 1526   0.002   2.203   7.754  1.9334  0.8638  0.2651
   12SAPS  H13S 1527  -0.084   2.214   7.901  0.0069  2.5957  1.1072
   12SAPS  C214 1528   0.123   2.284   7.919 -0.0233  0.9057  0.3503
   12SAPS  H14R 1529   0.208   2.318   7.858 -0.3476  0.2936 -0.4622
   12SAPS  C215 1530   0.133   2.273   8.052 -0.3831 -0.1683 -0.7830
   12SAPS  H15R 1531   0.231   2.288   8.099  0.7244 -0.4657 -2.8583
   12SAPS  C216 1532   0.021   2.245   8.148 -0.0651 -0.3369  0.3816
   12SAPS  H16R 1533   0.057   2.221   8.250  0.5291 -1.5995 -0.0970
   12SAPS  H16S 1534  -0.043   2.158   8.122 -2.5983  0.9281  2.0338
   12SAPS  C217 1535  -0.074   2.361   8.159  1.0364  0.7549  0.2122
   12SAPS  H17R 1536  -0.099   2.407   8.060 -1.4867 -0.0321  0.4104
   12SAPS  H17S 1537  -0.031   2.447   8.215 -1.2317  3.1129 -1.4158
   12SAPS  C218 1538  -0.217   2.321   8.209 -0.6394  0.8627 -0.1476
   12SAPS  H18R 1539  -0.245   2.226   8.157 -1.1365  1.1988 -0.5052
   12SAPS  H18S 1540  -0.294   2.397   8.186 -2.9072 -1.4196 -0.5851
   12SAPS  C219 1541  -0.236   2.309   8.364 -0.6374  0.0665 -0.9510
   12SAPS  H19R 1542  -0.339   2.338   8.394  0.3586  0.7460  2.1620
   12SAPS  H19S 1543  -0.168   2.367   8.429 -1.4793  0.9005 -0.8001
   12SAPS  C220 1544  -0.214   2.165   8.412 -0.2634  0.4479 -0.2473
   12SAPS  H20R 1545  -0.201   2.166   8.522 -0.1303 -0.7198 -0.2408
   12SAPS  H20S 1546  -0.116   2.126   8.377  0.2909  0.6272  1.0736
   12SAPS  H20T 1547  -0.297   2.094   8.391  0.0457 -0.7838  2.4090
   12SAPS   C33 1548   0.109   1.794   6.906  0.9785 -0.3494  0.6572
   12SAPS   H3X 1549   0.016   1.748   6.867  0.8482  0.2351  0.2648
   12SAPS   H3Y 1550   0.099   1.903   6.887 -1.1876 -0.3951  1.2604
   12SAPS   C34 1551   0.127   1.783   7.062  0.2976 -0.7680  0.2383
   12SAPS   H4X 1552   0.038   1.838   7.100 -0.1320 -0.1201 -1.6108
   12SAPS   H4Y 1553   0.222   1.828   7.100 -0.7644  2.0839 -0.1851
   12SAPS   C35 1554   0.111   1.634   7.109  0.4055  0.3809 -0.2356
   12SAPS   H5X 1555   0.106   1.646   7.220  3.5389 -1.2660  0.1904
   12SAPS   H5Y 1556   0.198   1.570   7.084 -0.9348 -0.4389 -3.2173
   12SAPS   C36 1557  -0.016   1.569   7.053  0.2375 -0.8172 -0.3094
   12SAPS   H6X 1558   0.007   1.545   6.947  0.8286 -0.1044 -0.3530
   12SAPS   H6Y 1559  -0.100   1.641   7.046  0.1358 -0.7793  1.0001
   12SAPS   C37 1560  -0.064   1.442   7.131 -0.1400  0.2840  0.2151
   12SAPS   H7X 1561   0.019   1.368   7.135  0.5685  1.0816  0.7250
   12SAPS   H7Y 1562  -0.146   1.396   7.072 -2.1821  0.0042  3.0768
   12SAPS   C38 1563  -0.133   1.477   7.264 -0.2707 -0.5411 -0.4797
   12SAPS   H8X 1564  -0.189   1.571   7.245 -0.6652 -0.6846 -0.0410
   12SAPS   H8Y 1565  -0.046   1.498   7.330  1.0317  0.2611 -2.3617
   12SAPS   C39 1566  -0.227   1.369   7.323  0.1786  0.1538 -0.4164
   12SAPS   H9X 1567  -0.180   1.269   7.318  0.3499  0.2883 -2.6548
   12SAPS   H9Y 1568  -0.324   1.369   7.268 -0.2431 -2.9873  0.1513
   12SAPS  C310 1569  -0.261   1.393   7.470 -0.0269  0.0147 -0.6524
   12SAPS  H10X 1570  -0.308   1.494   7.470 -1.7578 -0.7462 -1.0600
   12SAPS  H10Y 1571  -0.165   1.389   7.525 -0.2226  1.0368 -0.2168
   12SAPS  C311 1572  -0.356   1.282   7.528  0.2243  0.9501  1.1117
   12SAPS  H11X 1573  -0.310   1.183   7.510 -0.8212  0.5413  0.6326
   12SAPS  H11Y 1574  -0.460   1.284   7.488  0.2503  1.2167  1.0545
   12SAPS  C312 1575  -0.380   1.309   7.674 -0.0960 -0.5799 -0.4478
   12SAPS  H12X 1576  -0.434   1.405   7.682 -3.1358 -2.3002  2.3889
   12SAPS  H12Y 1577  -0.289   1.328   7.734 -0.3873 -3.2020  0.9909
   12SAPS  C313 1578  -0.462   1.207   7.754 -0.2983  0.0632  0.3614
   12SAPS  H13X 1579  -0.408   1.111   7.742 -0.3926 -0.0041  0.4882
   12SAPS  H13Y 1580  -0.564   1.187   7.717 -0.3798  1.7184 -0.4010
   12SAPS  C314 1581  -0.453   1.245   7.905  0.3057 -0.7068  0.7906
   12SAPS  H14X 1582  -0.497   1.344   7.930  0.1469 -0.0934 -1.5751
   12SAPS  H14Y 1583  -0.350   1.250   7.944  1.0826 -2.4758 -0.8378
   12SAPS  C315 1584  -0.532   1.141   7.990  0.2783 -0.3802  0.5915
   12SAPS  H15X 1585  -0.480   1.045   7.969  1.3532 -0.0336  1.5796
   12SAPS  H15Y 1586  -0.638   1.123   7.963  0.7754 -2.7756 -0.0460
   12SAPS  C316 1587  -0.539   1.166   8.142 -0.4385 -1.1383  0.5144
   12SAPS  H16X 1588  -0.605   1.254   8.160  0.1721 -0.9651  2.1585
   12SAPS  H16Y 1589  -0.436   1.198   8.168 -0.5264 -0.5688  0.1620
   12SAPS  C317 1590  -0.606   1.053   8.210 -0.2120 -0.1305  0.1257
   12SAPS  H17X 1591  -0.534   0.969   8.214 -1.8108 -1.5183  2.0732
   12SAPS  H17Y 1592  -0.692   1.013   8.151 -1.1086  0.2434  1.1403
   12SAPS  C318 1593  -0.638   1.079   8.357  0.2822 -0.0911  0.5658
   12SAPS  H18X 1594  -0.719   1.154   8.370  0.5578  0.1005  1.1953
   12SAPS  H18Y 1595  -0.557   1.103   8.429  1.4861 -0.7240 -0.5543
   12SAPS  H18Z 1596  -0.673   0.983   8.400 -0.3715 -1.3472 -2.5030
   13SAPS     N 1597   2.854   5.963   6.469  0.0708 -0.4311 -0.6245
   13SAPS   HN1 1598   2.801   6.020   6.538 -0.1681 -0.9844 -0.3412
   13SAPS   HN2 1599   2.857   5.866   6.508 -1.0966 -0.1580  0.1931
   13SAPS   HN3 1600   2.950   6.001   6.458  0.5772 -1.3127  0.4415
   13SAPS   C12 1601   2.789   5.958   6.337 -0.1101 -0.4730  0.5311
   13SAPS  H12A 1602   2.799   6.054   6.288 -1.7075 -0.4648  0.1504
   13SAPS   C13 1603   2.818   5.833   6.250 -0.0864  0.0064  0.1189
   13SAPS  O13A 1604   2.861   5.730   6.307 -0.1701  0.1558  0.1563
   13SAPS  O13B 1605   2.788   5.830   6.131 -0.2641  0.2756  0.1081
   13SAPS   C11 1606   2.634   5.953   6.363  0.2441  0.7685  0.0955
   13SAPS  H11A 1607   2.584   5.958   6.264 -1.2158 -0.5732  0.7096
   13SAPS  H11B 1608   2.620   6.041   6.429  0.7620  0.0696  1.1801
   13SAPS     P 1609   2.454   5.783   6.473 -0.1952  0.0222  0.3511
   13SAPS   O13 1610   2.366   5.779   6.355 -0.1748 -0.1698 -0.0349
   13SAPS   O14 1611   2.476   5.654   6.535  0.8415  0.1957 -0.1840
   13SAPS   O12 1612   2.599   5.825   6.427  0.1525  0.1581  0.0937
   13SAPS   O11 1613   2.408   5.892   6.575  0.0955 -0.7584  0.5034
   13SAPS    C1 1614   2.492   5.909   6.690 -0.4876 -0.6419 -0.0795
   13SAPS    HA 1615   2.490   5.814   6.747 -1.2422 -0.4970  0.1508
   13SAPS    HB 1616   2.598   5.923   6.660 -0.5844 -1.5987 -0.9126
   13SAPS    C2 1617   2.454   6.026   6.790  0.4083 -0.5604 -0.4201
   13SAPS    HS 1618   2.528   6.033   6.873 -0.8100  0.0001  0.6599
   13SAPS   O21 1619   2.321   5.994   6.855  0.0530  0.0415  0.4296
   13SAPS   C21 1620   2.330   5.883   6.932  0.1798  0.2298 -0.4478
   13SAPS   O22 1621   2.430   5.847   6.987 -0.5194 -0.6042  0.8452
   13SAPS   C22 1622   2.197   5.804   6.924 -0.1847 -0.3011 -0.6429
   13SAPS   H2R 1623   2.118   5.874   6.890  1.0572  1.8794  0.7579
   13SAPS   H2S 1624   2.215   5.732   6.842  2.0265 -1.0625  0.4382
   13SAPS    C3 1625   2.439   6.175   6.740  0.6642  0.4768  0.5920
   13SAPS    HX 1626   2.381   6.179   6.645  1.7790  1.2192 -0.0887
   13SAPS    HY 1627   2.540   6.202   6.702  0.9003 -1.2028 -0.0682
   13SAPS   O31 1628   2.390   6.263   6.843  0.1277  0.5828 -0.3184
   13SAPS   C31 1629   2.464   6.267   6.949  0.2167 -0.2166  0.2543
   13SAPS   O32 1630   2.583   6.233   6.961 -0.7027  0.1216 -0.0810
   13SAPS   C32 1631   2.394   6.342   7.055 -0.1190 -0.5552  0.2074
   13SAPS   H2X 1632   2.285   6.343   7.031  0.4650 -2.5833 -3.1847
   13SAPS   H2Y 1633   2.435   6.445   7.054  0.2587 -0.6847  1.0231
   13SAPS   C23 1634   2.170   5.729   7.063  0.2104 -0.0007  0.9098
   13SAPS   H3R 1635   2.065   5.693   7.062 -0.9394  2.9573  2.4487
   13SAPS   H3S 1636   2.169   5.796   7.152 -0.8079  1.9848 -0.5346
   13SAPS   C24 1637   2.271   5.606   7.077  0.1896  0.0834 -0.2901
   13SAPS   H4R 1638   2.371   5.633   7.118 -0.5142  1.1780  0.7830
   13SAPS   H4S 1639   2.294   5.549   6.984 -0.2758 -1.6625  0.6219
   13SAPS   C25 1640   2.204   5.496   7.157 -0.7806 -0.9685  1.0967
   13SAPS   H5R 1641   2.137   5.434   7.097 -0.1674  1.7240 -2.7275
   13SAPS   C26 1642   2.232   5.471   7.286  1.0810  0.3006 -0.4410
   13SAPS   H6R 1643   2.174   5.403   7.350 -0.6034  0.4561 -1.7082
   13SAPS   C27 1644   2.324   5.545   7.381  0.7135 -0.0246  0.0675
   13SAPS   H7R 1645   2.272   5.613   7.452  0.3976 -2.8458  2.7461
   13SAPS   H7S 1646   2.385   5.617   7.322 -1.8062  2.1858  0.0130
   13SAPS   C28 1647   2.414   5.454   7.458  0.0246  0.0958  0.2161
   13SAPS   H8R 1648   2.460   5.379   7.393 -0.7304  1.9234 -2.5799
   13SAPS   C29 1649   2.433   5.448   7.596 -0.2296  0.3993 -0.2574
   13SAPS   H9R 1650   2.497   5.366   7.633 -0.4073 -0.1149 -1.0523
   13SAPS  C210 1651   2.367   5.533   7.702 -0.0324  0.7773 -0.2639
   13SAPS  H10R 1652   2.289   5.470   7.750  0.4381  0.3255 -0.0868
   13SAPS  H10S 1653   2.313   5.613   7.647  2.5228  0.9487 -2.7608
   13SAPS  C211 1654   2.461   5.581   7.813  0.0051 -0.7434  0.5320
   13SAPS  H11R 1655   2.548   5.642   7.783 -0.2092 -0.0448  1.3204
   13SAPS  C212 1656   2.445   5.571   7.945  0.0930 -0.4831 -0.8239
   13SAPS  H12R 1657   2.521   5.625   8.004 -2.0364 -1.0994  2.7755
   13SAPS  C213 1658   2.335   5.510   8.029  0.0014 -0.2920 -0.1009
   13SAPS  H13R 1659   2.261   5.467   7.958  0.0594 -3.0591  1.4000
   13SAPS  H13S 1660   2.273   5.582   8.086  1.2307 -1.0315  2.3223
   13SAPS  C214 1661   2.381   5.406   8.132 -0.1169  0.1371 -0.4657
   13SAPS  H14R 1662   2.470   5.361   8.086  0.4722  0.5512  0.2597
   13SAPS  C215 1663   2.318   5.359   8.245  0.4812  0.1857  0.4908
   13SAPS  H15R 1664   2.360   5.268   8.290  0.7115 -0.3620 -0.7844
   13SAPS  C216 1665   2.188   5.417   8.294 -0.2317  0.6282  0.0151
   13SAPS  H16R 1666   2.101   5.348   8.283 -0.2746  0.9635 -2.0851
   13SAPS  H16S 1667   2.160   5.515   8.252  0.8630  1.8832  2.0560
   13SAPS  C217 1668   2.196   5.428   8.449  0.4967 -0.0559  1.2072
   13SAPS  H17R 1669   2.201   5.323   8.487  0.9033 -0.0467  1.1747
   13SAPS  H17S 1670   2.102   5.479   8.480  1.0107  3.5069 -2.2537
   13SAPS  C218 1671   2.305   5.519   8.507 -0.0073  0.5734  0.4084
   13SAPS  H18R 1672   2.404   5.475   8.482  0.6659  1.2782  1.6920
   13SAPS  H18S 1673   2.300   5.521   8.618 -1.4384  0.9350  0.3596
   13SAPS  C219 1674   2.306   5.665   8.449 -0.7092  0.3363 -0.3164
   13SAPS  H19R 1675   2.234   5.732   8.502  0.3908  1.1554  0.1796
   13SAPS  H19S 1676   2.271   5.671   8.344  0.9841  0.7002 -0.8920
   13SAPS  C220 1677   2.449   5.740   8.446  0.3328 -0.0845  0.3461
   13SAPS  H20R 1678   2.530   5.679   8.402  0.2607 -0.0597  0.1781
   13SAPS  H20S 1679   2.479   5.762   8.551  1.4981 -1.2567  0.2734
   13SAPS  H20T 1680   2.432   5.833   8.388  0.0114 -0.6672 -0.5155
   13SAPS   C33 1681   2.416   6.298   7.196 -0.6603  0.4123  0.5339
   13SAPS   H3X 1682   2.383   6.378   7.267  0.5215  0.5234  0.9905
   13SAPS   H3Y 1683   2.519   6.265   7.221 -1.0344 -1.1571  0.1057
   13SAPS   C34 1684   2.339   6.167   7.223  0.9262 -0.5689  0.0223
   13SAPS   H4X 1685   2.343   6.083   7.151 -0.5392  0.7221 -1.6818
   13SAPS   H4Y 1686   2.231   6.194   7.226  1.0619 -0.1249  1.0464
   13SAPS   C35 1687   2.371   6.118   7.364 -0.2052  0.0096 -0.6957
   13SAPS   H5X 1688   2.362   6.202   7.436 -0.5720 -0.2746 -0.4029
   13SAPS   H5Y 1689   2.475   6.079   7.364 -0.1055  0.2191 -2.1907
   13SAPS   C36 1690   2.261   6.011   7.416 -0.3481  0.0314  0.5592
   13SAPS   H6X 1691   2.257   5.933   7.338  0.6298 -0.4518  0.9791
   13SAPS   H6Y 1692   2.161   6.060   7.417 -0.1086  0.5322  1.3645
   13SAPS   C37 1693   2.318   5.937   7.539 -0.2321 -0.0101 -0.2288
   13SAPS   H7X 1694   2.421   5.912   7.509 -1.1334  0.1064 -3.9298
   13SAPS   H7Y 1695   2.272   5.836   7.546 -0.4619  0.0002 -1.3440
   13SAPS   C38 1696   2.311   6.014   7.665 -1.2335 -0.2598 -0.0147
   13SAPS   H8X 1697   2.388   6.094   7.667 -1.7216  0.2686 -1.2599
   13SAPS   H8Y 1698   2.349   5.945   7.744  0.6125 -0.3287 -0.8924
   13SAPS   C39 1699   2.177   6.069   7.711 -1.6932  0.5349 -0.3391
   13SAPS   H9X 1700   2.119   5.987   7.759  0.4916  0.1771  1.9172
   13SAPS   H9Y 1701   2.120   6.120   7.631 -3.2884  0.6327  0.8249
   13SAPS  C310 1702   2.202   6.165   7.831 -0.5253 -0.6167 -0.3775
   13SAPS  H10X 1703   2.105   6.212   7.856 -0.3953  0.6631 -2.1402
   13SAPS  H10Y 1704   2.269   6.245   7.793  0.1918 -1.1132 -0.1979
   13SAPS  C311 1705   2.267   6.101   7.953 -0.2284  0.0479 -0.5150
   13SAPS  H11X 1706   2.279   6.180   8.029  0.6933 -0.3055 -0.2831
   13SAPS  H11Y 1707   2.362   6.054   7.918 -0.7152  0.2967 -2.2939
   13SAPS  C312 1708   2.180   5.994   8.024  0.2942 -0.4148 -0.6323
   13SAPS  H12X 1709   2.183   5.903   7.960  0.5990  0.0746 -1.3287
   13SAPS  H12Y 1710   2.075   6.027   8.042  0.1995 -1.5466  1.2207
   13SAPS  C313 1711   2.232   5.956   8.168  0.1327 -0.1972  0.7946
   13SAPS  H13X 1712   2.343   5.956   8.169  0.2742  3.5043  1.0607
   13SAPS  H13Y 1713   2.196   5.854   8.191  0.9956 -0.5517  0.6103
   13SAPS  C314 1714   2.194   6.064   8.266  0.1214 -0.5670  0.0489
   13SAPS  H14X 1715   2.089   6.087   8.239 -0.2563 -1.2193  0.9211
   13SAPS  H14Y 1716   2.261   6.151   8.249  2.8569 -2.5001  0.2485
   13SAPS  C315 1717   2.195   6.017   8.404 -0.2905 -0.0432  0.1060
   13SAPS  H15X 1718   2.296   5.985   8.437 -0.8068 -0.1458  1.6945
   13SAPS  H15Y 1719   2.136   5.923   8.409 -0.0841 -0.1815 -0.0474
   13SAPS  C316 1720   2.143   6.119   8.510 -0.2953 -0.2671  0.3416
   13SAPS  H16X 1721   2.213   6.205   8.511  0.5110 -0.8820  2.4064
   13SAPS  H16Y 1722   2.159   6.071   8.609 -0.5267 -0.1816  0.4210
   13SAPS  C317 1723   1.994   6.151   8.484 -0.6297  0.3081  0.5849
   13SAPS  H17X 1724   1.943   6.053   8.474  1.6118 -0.8961  0.2566
   13SAPS  H17Y 1725   1.982   6.209   8.391 -1.4684 -0.9986 -0.1531
   13SAPS  C318 1726   1.922   6.222   8.600  0.1296 -0.3349  0.0458
   13SAPS  H18X 1727   1.816   6.191   8.589  0.6397 -2.0825 -0.3402
   13SAPS  H18Y 1728   1.920   6.333   8.590  0.1453 -0.0402  2.6375
   13SAPS  H18Z 1729   1.958   6.216   8.705  0.5431  1.9289  0.0963
   14SAPS     N 1730   1.859   1.666   5.938 -0.1308  0.0365  0.0722
   14SAPS   HN1 1731   1.908   1.742   5.989  0.7293  1.2203 -2.3776
   14SAPS   HN2 1732   1.895   1.584   5.991  3.2469  0.4317 -1.4100
   14SAPS   HN3 1733   1.876   1.665   5.835 -0.7648 -0.5663 -0.0384
   14SAPS   C12 1734   1.716   1.697   5.962  0.1657 -0.0926  0.4053
   14SAPS  H12A 1735   1.695   1.769   5.885  1.6712  1.0709  1.0177
   14SAPS   C13 1736   1.622   1.572   5.950  0.4316  0.3704  0.0388
   14SAPS  O13A 1737   1.666   1.456   5.934  0.2393 -0.1071 -0.0725
   14SAPS  O13B 1738   1.494   1.592   5.953 -0.4092 -0.0130  0.4084
   14SAPS   C11 1739   1.698   1.755   6.104 -0.5616 -0.4035  0.2509
   14SAPS  H11A 1740   1.709   1.680   6.185 -0.4489  0.5391  1.1340
   14SAPS  H11B 1741   1.594   1.791   6.115 -0.2967  0.4746 -0.0187
   14SAPS     P 1742   1.746   2.009   6.138  0.2346 -0.0750 -0.3414
   14SAPS   O13 1743   1.867   2.099   6.140  0.4594  0.5309 -0.8207
   14SAPS   O14 1744   1.642   2.037   6.037  0.5808 -0.3089  0.1739
   14SAPS   O12 1745   1.787   1.859   6.123 -0.0526 -0.0124  0.4760
   14SAPS   O11 1746   1.673   2.023   6.279  0.5675 -0.5525 -0.1317
   14SAPS    C1 1747   1.741   2.014   6.407  0.0156  1.1330  0.4360
   14SAPS    HA 1748   1.842   2.061   6.403  0.4407  0.1951 -2.4667
   14SAPS    HB 1749   1.682   2.065   6.485  1.1759 -1.0855  2.9127
   14SAPS    C2 1750   1.761   1.871   6.460  0.2890 -0.0124  0.1889
   14SAPS    HS 1751   1.816   1.820   6.378  1.3228  0.6316  0.4633
   14SAPS   O21 1752   1.623   1.820   6.475  0.4215  0.6996  0.1681
   14SAPS   C21 1753   1.617   1.689   6.482  0.1965  0.0187 -0.3101
   14SAPS   O22 1754   1.706   1.607   6.466 -0.2263 -0.3821 -0.4331
   14SAPS   C22 1755   1.480   1.642   6.537 -0.3238  0.2565 -0.6802
   14SAPS   H2R 1756   1.407   1.661   6.455  1.1284  1.0550 -1.8307
   14SAPS   H2S 1757   1.480   1.533   6.556 -0.1824  0.3852  0.1000
   14SAPS    C3 1758   1.838   1.877   6.597 -0.0041  0.6448 -0.0737
   14SAPS    HX 1759   1.798   1.968   6.646  3.7122  1.4425  1.8182
   14SAPS    HY 1760   1.946   1.902   6.586 -0.1928  1.4853 -0.0853
   14SAPS   O31 1761   1.823   1.760   6.690 -0.6201 -0.0466  0.4850
   14SAPS   C31 1762   1.913   1.658   6.663 -0.3957 -0.2185  0.8939
   14SAPS   O32 1763   2.009   1.678   6.587 -0.2116 -0.0199 -0.5107
   14SAPS   C32 1764   1.891   1.521   6.716  0.2930  0.2045 -0.5901
   14SAPS   H2X 1765   1.942   1.440   6.659  0.8518  0.0458  0.1114
   14SAPS   H2Y 1766   1.783   1.494   6.716  0.6336 -1.2509 -0.4006
   14SAPS   C23 1767   1.446   1.711   6.670  0.2604 -0.3910  1.0562
   14SAPS   H3R 1768   1.415   1.817   6.657 -0.7682 -0.9398 -1.5028
   14SAPS   H3S 1769   1.539   1.711   6.731  2.1519  1.8097 -1.5617
   14SAPS   C24 1770   1.338   1.642   6.755 -0.0296 -0.4380  0.6107
   14SAPS   H4R 1771   1.361   1.533   6.750 -0.0691 -0.4066 -0.2920
   14SAPS   H4S 1772   1.240   1.656   6.704  0.0415 -2.8016 -0.3173
   14SAPS   C25 1773   1.321   1.679   6.902  0.8406  0.6496  0.3243
   14SAPS   H5R 1774   1.315   1.789   6.910 -0.8667  0.6197 -0.1921
   14SAPS   C26 1775   1.315   1.615   7.013 -0.8751  0.6160 -0.4200
   14SAPS   H6R 1776   1.280   1.668   7.102 -1.1222  1.1560 -0.8346
   14SAPS   C27 1777   1.305   1.463   7.024 -1.0024 -0.3650 -0.1418
   14SAPS   H7R 1778   1.408   1.423   7.013 -1.2887 -0.8676 -1.1791
   14SAPS   H7S 1779   1.255   1.423   6.933 -1.4393 -0.8882  0.3226
   14SAPS   C28 1780   1.260   1.415   7.159  0.0384  0.5982  0.5183
   14SAPS   H8R 1781   1.159   1.371   7.156  1.2544 -2.4820  0.8958
   14SAPS   C29 1782   1.328   1.404   7.271  0.5417  0.1921  0.3029
   14SAPS   H9R 1783   1.273   1.367   7.358  0.9409  1.7714  1.2738
   14SAPS  C210 1784   1.474   1.436   7.300 -0.1980 -0.2655 -0.5254
   14SAPS  H10R 1785   1.525   1.445   7.202 -1.8734  3.5881 -1.2418
   14SAPS  H10S 1786   1.524   1.354   7.355 -0.8147  0.2600  0.8580
   14SAPS  C211 1787   1.496   1.573   7.365  0.3811  0.0294  0.9652
   14SAPS  H11R 1788   1.533   1.660   7.309  1.5707 -0.7596  0.4843
   14SAPS  C212 1789   1.465   1.600   7.493 -0.2207 -0.2962  0.8346
   14SAPS  H12R 1790   1.473   1.708   7.511 -0.4983  0.1114 -1.1884
   14SAPS  C213 1791   1.406   1.503   7.592  0.5785 -0.4501 -0.0290
   14SAPS  H13R 1792   1.399   1.401   7.548 -2.0718 -0.5442  0.4187
   14SAPS  H13S 1793   1.297   1.525   7.601  0.4967  0.1114 -1.9143
   14SAPS  C214 1794   1.471   1.498   7.724 -0.5200 -0.0017  0.3763
   14SAPS  H14R 1795   1.578   1.522   7.734 -0.1627 -0.9752 -0.9482
   14SAPS  C215 1796   1.408   1.474   7.837  0.4281  0.1648 -0.6851
   14SAPS  H15R 1797   1.460   1.502   7.930  0.6101 -0.7111 -0.5182
   14SAPS  C216 1798   1.258   1.449   7.852  0.6635  0.6016  0.6898
   14SAPS  H16R 1799   1.228   1.371   7.779  0.1043 -0.0207  1.5633
   14SAPS  H16S 1800   1.198   1.536   7.819  0.1872  0.7925  1.9924
   14SAPS  C217 1801   1.216   1.427   8.001 -0.4817 -0.5681  0.0710
   14SAPS  H17R 1802   1.105   1.417   7.997 -0.6092  0.9038 -0.6724
   14SAPS  H17S 1803   1.254   1.516   8.056 -0.1530 -0.6842  0.0313
   14SAPS  C218 1804   1.284   1.309   8.073 -0.3253 -0.0626  0.4695
   14SAPS  H18R 1805   1.394   1.324   8.075  0.2684 -3.0634 -1.7953
   14SAPS  H18S 1806   1.270   1.230   7.996 -0.7507  1.8698 -1.5067
   14SAPS  C219 1807   1.227   1.258   8.212  0.0679 -0.7807  0.6473
   14SAPS  H19R 1808   1.272   1.157   8.227  1.0608 -0.1915  1.8390
   14SAPS  H19S 1809   1.118   1.247   8.194 -0.0514  0.8697  0.2112
   14SAPS  C220 1810   1.274   1.341   8.337  0.1350  0.2837  0.5828
   14SAPS  H20R 1811   1.237   1.298   8.432  1.4059 -0.6235  0.7001
   14SAPS  H20S 1812   1.255   1.450   8.329  1.4546  0.4849 -0.1111
   14SAPS  H20T 1813   1.384   1.327   8.351  0.2721  0.3100 -0.4309
   14SAPS   C33 1814   1.958   1.506   6.857  0.0842 -0.4401  0.1312
   14SAPS   H3X 1815   2.067   1.527   6.853 -0.2097  1.3721  0.9154
   14SAPS   H3Y 1816   1.952   1.400   6.889  1.5272 -1.1514 -1.7867
   14SAPS   C34 1817   1.891   1.590   6.964  0.1012 -1.0507 -0.5450
   14SAPS   H4X 1818   1.784   1.566   6.977  0.5508 -1.5800  3.2349
   14SAPS   H4Y 1819   1.914   1.698   6.950  2.9891 -1.2201  1.8878
   14SAPS   C35 1820   1.958   1.562   7.103  0.3449 -0.1273 -0.5150
   14SAPS   H5X 1821   2.067   1.572   7.081  0.0690  1.3629 -1.2858
   14SAPS   H5Y 1822   1.934   1.457   7.131 -2.4451  0.5192 -0.2632
   14SAPS   C36 1823   1.909   1.660   7.211  0.6596  0.3210 -0.4719
   14SAPS   H6X 1824   1.798   1.655   7.217  0.6700 -2.2976 -1.3636
   14SAPS   H6Y 1825   1.943   1.763   7.188 -0.2524  0.5378 -0.8950
   14SAPS   C37 1826   1.954   1.609   7.349  0.9431  0.2544 -0.0287
   14SAPS   H7X 1827   2.062   1.608   7.372  0.6730 -1.0753  1.3258
   14SAPS   H7Y 1828   1.914   1.505   7.357  0.0324  0.5639 -0.4620
   14SAPS   C38 1829   1.896   1.689   7.457  0.1520  0.0685  0.8675
   14SAPS   H8X 1830   1.791   1.655   7.472  0.1411 -0.0518  0.5323
   14SAPS   H8Y 1831   1.889   1.789   7.410 -0.8776 -0.8968 -1.1712
   14SAPS   C39 1832   1.977   1.690   7.590  0.0887 -0.2842  0.1071
   14SAPS   H9X 1833   2.045   1.777   7.579  0.0959  0.2919  3.7091
   14SAPS   H9Y 1834   2.043   1.602   7.606 -0.1707 -0.7438 -1.1677
   14SAPS  C310 1835   1.898   1.717   7.713  0.4141 -0.0139 -1.3180
   14SAPS  H10X 1836   1.830   1.635   7.742 -3.0555  2.7895 -0.8446
   14SAPS  H10Y 1837   1.839   1.811   7.705  1.8572  1.2477  1.4144
   14SAPS  C311 1838   1.977   1.748   7.834  0.1702 -0.0666  0.7406
   14SAPS  H11X 1839   2.056   1.820   7.804 -0.5126  0.2045 -0.5022
   14SAPS  H11Y 1840   2.021   1.653   7.872  2.0289  0.2432 -0.4574
   14SAPS  C312 1841   1.907   1.808   7.951  0.2049  0.0817  0.0319
   14SAPS  H12X 1842   1.870   1.909   7.923  1.0608  0.0187 -1.4217
   14SAPS  H12Y 1843   1.983   1.817   8.032  1.8659 -1.0842 -1.3225
   14SAPS  C313 1844   1.793   1.715   8.008 -0.0129 -0.1912  0.7776
   14SAPS  H13X 1845   1.827   1.614   8.041 -2.6424 -1.6641 -0.6805
   14SAPS  H13Y 1846   1.714   1.692   7.934  0.6237  2.0052 -0.6705
   14SAPS  C314 1847   1.719   1.774   8.123  1.0342 -0.6786 -0.3987
   14SAPS  H14X 1848   1.684   1.875   8.092  1.5052 -0.6597 -0.8646
   14SAPS  H14Y 1849   1.791   1.797   8.204  0.9774 -0.7587 -0.3239
   14SAPS  C315 1850   1.602   1.682   8.168  0.1601  0.1616 -0.3333
   14SAPS  H15X 1851   1.650   1.597   8.223  0.6212  0.7792  0.2367
   14SAPS  H15Y 1852   1.536   1.644   8.087  0.3406 -1.3075  0.1655
   14SAPS  C316 1853   1.493   1.744   8.258  0.2565 -0.2110 -0.0219
   14SAPS  H16X 1854   1.400   1.683   8.260 -1.4396  2.1211 -1.3250
   14SAPS  H16Y 1855   1.454   1.838   8.213 -0.2819 -0.0467  0.7657
   14SAPS  C317 1856   1.530   1.771   8.402  0.2715 -0.1417 -0.7282
   14SAPS  H17X 1857   1.599   1.858   8.399 -1.7431  1.5422 -0.3528
   14SAPS  H17Y 1858   1.578   1.674   8.427 -0.3211 -0.5716 -1.2214
   14SAPS  C318 1859   1.424   1.787   8.508 -0.1350  0.3046  0.3744
   14SAPS  H18X 1860   1.453   1.778   8.614 -0.3827  2.9271  0.7302
   14SAPS  H18Y 1861   1.343   1.712   8.493 -0.2612  0.4936  0.0885
   14SAPS  H18Z 1862   1.363   1.880   8.502 -1.8368 -0.7598  0.5334
   15SAPS     N 1863   1.849   1.387   6.367  0.1674  0.1761  0.1273
   15SAPS   HN1 1864   1.931   1.337   6.407  1.5212  2.8392  0.8961
   15SAPS   HN2 1865   1.844   1.488   6.392 -0.6067  0.4215 -0.9381
   15SAPS   HN3 1866   1.761   1.343   6.402 -0.1729  1.3310  0.7598
   15SAPS   C12 1867   1.847   1.358   6.220 -1.0157 -0.5279 -0.6297
   15SAPS  H12A 1868   1.748   1.394   6.193  0.1958  1.8532 -2.2041
   15SAPS   C13 1869   1.955   1.433   6.142 -0.3254  0.2524  0.2390
   15SAPS  O13A 1870   2.026   1.523   6.194 -0.2653 -0.0113  0.1008
   15SAPS  O13B 1871   1.963   1.415   6.015  0.0950 -0.3881  0.3610
   15SAPS   C11 1872   1.869   1.206   6.196 -0.8318  1.0911 -0.1944
   15SAPS  H11A 1873   1.892   1.195   6.088  0.9260  0.1424  0.2535
   15SAPS  H11B 1874   1.773   1.155   6.219 -0.8758  0.5423 -1.5023
   15SAPS     P 1875   1.986   0.989   6.270 -0.8199 -0.4730  0.0815
   15SAPS   O13 1876   1.962   0.938   6.132  0.2726  0.0926  0.3190
   15SAPS   O14 1877   2.113   0.953   6.331  0.2757  0.4387 -0.0114
   15SAPS   O12 1878   1.972   1.152   6.280  0.1742 -0.0346  0.6341
   15SAPS   O11 1879   1.867   0.942   6.360  0.2326  0.3249  0.0977
   15SAPS    C1 1880   1.871   0.971   6.503 -0.4161 -0.0121 -0.2584
   15SAPS    HA 1881   1.975   0.973   6.542 -0.4997 -1.6071  0.1271
   15SAPS    HB 1882   1.831   1.073   6.518  0.4034  0.2822 -0.0344
   15SAPS    C2 1883   1.804   0.864   6.588 -0.7090 -0.0158 -0.2004
   15SAPS    HS 1884   1.698   0.850   6.558 -0.4724 -0.5757 -0.7680
   15SAPS   O21 1885   1.816   0.902   6.726  0.0911  0.3547  0.0552
   15SAPS   C21 1886   1.726   0.987   6.764  0.2135  0.1293  0.1568
   15SAPS   O22 1887   1.650   1.046   6.692 -0.2377 -0.4469  0.0063
   15SAPS   C22 1888   1.731   1.004   6.916  0.3255  0.0109 -0.5916
   15SAPS   H2R 1889   1.640   0.947   6.945 -0.2271 -0.2812 -2.7278
   15SAPS   H2S 1890   1.815   0.955   6.969 -0.0955 -1.9810 -1.6581
   15SAPS    C3 1891   1.859   0.719   6.572  0.1573  0.4833 -0.3236
   15SAPS    HX 1892   1.958   0.717   6.623  1.2026  1.1994 -2.2062
   15SAPS    HY 1893   1.879   0.709   6.463  2.2697  0.3478  0.0370
   15SAPS   O31 1894   1.757   0.628   6.624 -0.0946 -0.0938  0.0945
   15SAPS   C31 1895   1.792   0.501   6.601  0.1671  0.5515  0.1343
   15SAPS   O32 1896   1.904   0.477   6.565 -0.6261  0.2432 -0.2549
   15SAPS   C32 1897   1.667   0.408   6.623 -0.0023 -0.4327  0.0505
   15SAPS   H2X 1898   1.633   0.359   6.529  2.2731 -2.1830  0.0500
   15SAPS   H2Y 1899   1.592   0.476   6.667 -0.0976 -0.0659 -0.6595
   15SAPS   C23 1900   1.714   1.155   6.945 -0.1179 -0.4555 -0.0470
   15SAPS   H3R 1901   1.607   1.178   6.929 -0.1457 -1.0564 -0.7727
   15SAPS   H3S 1902   1.763   1.218   6.868 -0.9020 -1.0183 -1.0313
   15SAPS   C24 1903   1.760   1.195   7.087  0.6835  0.8421 -0.2509
   15SAPS   H4R 1904   1.768   1.305   7.098 -1.9860  1.3919 -2.7534
   15SAPS   H4S 1905   1.863   1.152   7.093  0.6948  0.4820 -2.3269
   15SAPS   C25 1906   1.678   1.138   7.203  0.8334  0.7573  0.1799
   15SAPS   H5R 1907   1.584   1.096   7.165  1.0838  0.2970  0.0625
   15SAPS   C26 1908   1.712   1.125   7.337  0.1148  0.1752 -0.1685
   15SAPS   H6R 1909   1.635   1.095   7.410  1.5447 -1.6896  0.6578
   15SAPS   C27 1910   1.839   1.175   7.402 -0.4556 -0.1982  0.1590
   15SAPS   H7R 1911   1.813   1.275   7.442 -1.8108  0.7006 -2.6686
   15SAPS   H7S 1912   1.917   1.205   7.329 -0.4424  0.5959  0.4895
   15SAPS   C28 1913   1.896   1.093   7.516  0.2974 -1.3496  0.0391
   15SAPS   H8R 1914   1.926   0.993   7.482  0.2807 -1.1030 -0.7299
   15SAPS   C29 1915   1.905   1.137   7.642  0.2507  0.0602  0.0732
   15SAPS   H9R 1916   1.956   1.072   7.715 -2.6574 -1.0105  1.2902
   15SAPS  C210 1917   1.865   1.265   7.709 -0.9724 -0.4957 -0.4249
   15SAPS  H10R 1918   1.774   1.238   7.767  0.6848 -2.1716  1.5708
   15SAPS  H10S 1919   1.836   1.348   7.641 -0.8820 -0.2903 -0.2133
   15SAPS  C211 1920   1.973   1.308   7.801 -0.1498  0.6233 -0.3139
   15SAPS  H11R 1921   2.056   1.354   7.745 -1.5440  1.2706 -1.9529
   15SAPS  C212 1922   1.960   1.326   7.929 -0.2920  0.6186 -0.0075
   15SAPS  H12R 1923   2.050   1.360   7.983  1.7285 -2.5614 -1.0515
   15SAPS  C213 1924   1.843   1.309   8.016  0.1820  0.9871  0.0511
   15SAPS  H13R 1925   1.772   1.238   7.970 -0.0862  0.9460  0.5221
   15SAPS  H13S 1926   1.787   1.404   8.029  0.2416  1.0178  0.0829
   15SAPS  C214 1927   1.874   1.249   8.151  0.5165 -0.4149 -0.0844
   15SAPS  H14R 1928   1.866   1.140   8.150  2.3227 -0.5981  0.9810
   15SAPS  C215 1929   1.889   1.314   8.270 -0.2167  0.0377  0.5787
   15SAPS  H15R 1930   1.911   1.258   8.362 -0.5888  0.0566  0.6830
   15SAPS  C216 1931   1.900   1.464   8.287 -0.0371 -0.7496  0.0683
   15SAPS  H16R 1932   1.809   1.513   8.329  0.9253 -0.6625  2.2043
   15SAPS  H16S 1933   1.914   1.505   8.185 -1.0745 -1.4821 -0.3806
   15SAPS  C217 1934   2.018   1.495   8.393 -0.0731 -0.6369  0.2601
   15SAPS  H17R 1935   2.117   1.467   8.351 -1.2999 -0.4737 -3.0579
   15SAPS  H17S 1936   2.005   1.438   8.487 -1.9440 -2.4577 -1.0056
   15SAPS  C218 1937   2.021   1.648   8.394  0.0421  0.9126 -0.0513
   15SAPS  H18R 1938   1.917   1.672   8.427 -0.2580  0.5918 -0.7562
   15SAPS  H18S 1939   2.036   1.693   8.293 -0.5743  1.5052  0.1116
   15SAPS  C219 1940   2.120   1.707   8.490  0.5996 -0.2527 -0.5007
   15SAPS  H19R 1941   2.224   1.680   8.463  1.1430  1.4299 -0.2033
   15SAPS  H19S 1942   2.103   1.664   8.591 -1.1628 -0.6088 -0.9174
   15SAPS  C220 1943   2.118   1.854   8.485  0.4425 -0.8747  0.7282
   15SAPS  H20R 1944   2.188   1.902   8.557  0.5930  1.2756 -0.7559
   15SAPS  H20S 1945   2.019   1.894   8.514  0.6689 -0.7695  1.3844
   15SAPS  H20T 1946   2.135   1.890   8.382 -2.5511 -2.1679 -0.3190
   15SAPS   C33 1947   1.707   0.297   6.727  0.5973 -0.9656 -0.2312
   15SAPS   H3X 1948   1.731   0.351   6.821  1.1263  0.6094 -1.2112
   15SAPS   H3Y 1949   1.790   0.242   6.677 -0.8063 -1.6822 -1.8857
   15SAPS   C34 1950   1.595   0.192   6.751  0.1938  0.4444 -0.2474
   15SAPS   H4X 1951   1.559   0.144   6.657  0.5031  2.2530 -1.3436
   15SAPS   H4Y 1952   1.509   0.240   6.802 -0.2100  1.7523 -2.0454
   15SAPS   C35 1953   1.646   0.077   6.838  0.5075 -0.0463 -0.0188
   15SAPS   H5X 1954   1.745   0.045   6.800  0.8405 -0.4288  1.1175
   15SAPS   H5Y 1955   1.591  -0.020   6.840 -1.1884  0.8668  1.5268
   15SAPS   C36 1956   1.674   0.122   6.982  0.6797 -0.2454 -0.0125
   15SAPS   H6X 1957   1.574   0.150   7.021  0.9253 -2.1415  2.1789
   15SAPS   H6Y 1958   1.739   0.213   6.984  1.7721 -1.0232  0.7447
   15SAPS   C37 1959   1.743   0.021   7.072 -0.3675  0.8913  0.2139
   15SAPS   H7X 1960   1.849   0.015   7.039 -0.7398  0.2365 -0.9204
   15SAPS   H7Y 1961   1.696  -0.079   7.066  1.7311 -0.0906 -0.9957
   15SAPS   C38 1962   1.759   0.055   7.224  0.1658  0.2060  0.4045
   15SAPS   H8X 1963   1.809   0.153   7.229 -1.0751  0.9174 -0.5429
   15SAPS   H8Y 1964   1.816  -0.025   7.277 -0.3022 -0.0158  0.5784
   15SAPS   C39 1965   1.627   0.068   7.298 -0.1816  0.4351  0.9231
   15SAPS   H9X 1966   1.579  -0.032   7.292  2.5533 -0.9996  1.2479
   15SAPS   H9Y 1967   1.569   0.149   7.248 -0.3260  1.4891  2.7084
   15SAPS  C310 1968   1.644   0.104   7.443  0.4855 -0.0794  0.3476
   15SAPS  H10X 1969   1.704   0.198   7.444  2.6086 -1.3490  0.0854
   15SAPS  H10Y 1970   1.712   0.033   7.496  0.8468 -0.9886 -1.2679
   15SAPS  C311 1971   1.511   0.114   7.514  0.0466  0.0266  0.8369
   15SAPS  H11X 1972   1.473   0.010   7.516 -0.7078  0.2105 -1.5879
   15SAPS  H11Y 1973   1.436   0.164   7.449  1.6377  0.1591 -1.0029
   15SAPS  C312 1974   1.526   0.161   7.659  0.0476  1.1646 -0.0743
   15SAPS  H12X 1975   1.626   0.135   7.701 -0.1843  1.8947  0.9772
   15SAPS  H12Y 1976   1.454   0.113   7.727  0.0342 -2.0209 -2.1418
   15SAPS  C313 1977   1.514   0.314   7.680 -0.2906  0.0794  0.1931
   15SAPS  H13X 1978   1.407   0.340   7.665 -0.4237 -0.4349  0.2138
   15SAPS  H13Y 1979   1.566   0.358   7.592 -1.4883  0.6520 -0.2463
   15SAPS  C314 1980   1.571   0.366   7.814  0.5895 -0.4008 -0.4284
   15SAPS  H14X 1981   1.584   0.476   7.808 -0.6222 -0.3467 -3.0613
   15SAPS  H14Y 1982   1.669   0.316   7.832  0.8646 -0.4253 -1.8702
   15SAPS  C315 1983   1.480   0.320   7.928 -0.7002  0.5779  0.6620
   15SAPS  H15X 1984   1.481   0.210   7.939  0.4434  0.4854 -0.1820
   15SAPS  H15Y 1985   1.371   0.340   7.917 -0.7560 -0.8485 -2.5127
   15SAPS  C316 1986   1.534   0.353   8.070  0.6902 -0.6288 -0.6156
   15SAPS  H16X 1987   1.567   0.459   8.075 -0.9374 -0.1039 -0.4868
   15SAPS  H16Y 1988   1.629   0.297   8.083 -0.5264 -2.7213 -0.3476
   15SAPS  C317 1989   1.431   0.336   8.181  0.1317 -0.0516 -0.3017
   15SAPS  H17X 1990   1.395   0.232   8.197  0.3411  0.1367  1.7221
   15SAPS  H17Y 1991   1.334   0.386   8.164 -1.2912 -2.2747  0.7331
   15SAPS  C318 1992   1.496   0.382   8.308 -0.1670  0.5955  0.1078
   15SAPS  H18X 1993   1.453   0.365   8.409  1.4646 -0.5121  0.6606
   15SAPS  H18Y 1994   1.508   0.492   8.306  1.5981  0.4702  1.1094
   15SAPS  H18Z 1995   1.602   0.349   8.312 -0.6360 -0.9614  3.2227
   16SAPS     N 1996   3.326   2.935   6.548  0.9639  0.8026  0.0915
   16SAPS   HN1 1997   3.387   2.921   6.631  1.8209  0.8130 -0.5264
   16SAPS   HN2 1998   3.267   2.851   6.532  2.7093  0.0065 -2.8956
   16SAPS   HN3 1999   3.383   2.949   6.463 -1.2389  1.5860 -1.3671
   16SAPS   C12 2000   3.230   3.054   6.568 -0.3408 -0.5365 -0.5202
   16SAPS  H12A 2001   3.282   3.138   6.611  0.7271 -1.6277  0.3983
   16SAPS   C13 2002   3.173   3.109   6.434  0.6095 -0.6457 -0.7707
   16SAPS  O13A 2003   3.219   3.069   6.325  0.2075  0.6154  0.4346
   16SAPS  O13B 2004   3.087   3.198   6.440 -0.3410 -0.4153 -0.1207
   16SAPS   C11 2005   3.120   3.017   6.667  0.0834  0.0785  0.8512
   16SAPS  H11A 2006   3.049   2.942   6.626 -0.5021  1.2776 -0.4109
   16SAPS  H11B 2007   3.062   3.110   6.689  0.9227  0.4630  1.4782
   16SAPS     P 2008   3.098   2.939   6.909 -0.2388 -0.4613 -0.1515
   16SAPS   O13 2009   2.996   2.841   6.880  0.2907  0.1992  0.2007
   16SAPS   O14 2010   3.190   2.905   7.019 -0.2744  0.3357 -0.0626
   16SAPS   O12 2011   3.175   2.960   6.778  0.3538 -0.4722 -0.0036
   16SAPS   O11 2012   3.020   3.074   6.946 -0.2164  0.2635  0.2022
   16SAPS    C1 2013   3.085   3.200   6.935 -0.4511  0.7723  0.1673
   16SAPS    HA 2014   3.148   3.210   6.844  0.9394  2.9389  1.2808
   16SAPS    HB 2015   3.010   3.282   6.947  0.0311  1.0576  1.3082
   16SAPS    C2 2016   3.188   3.228   7.052  0.1556 -0.3498 -0.1763
   16SAPS    HS 2017   3.272   3.159   7.030  0.7141  0.4885 -0.6998
   16SAPS   O21 2018   3.121   3.213   7.179 -0.0537 -0.1345  0.0823
   16SAPS   C21 2019   3.212   3.181   7.272  0.0263  0.5146 -0.6559
   16SAPS   O22 2020   3.329   3.157   7.251  0.0951  0.1586 -0.0383
   16SAPS   C22 2021   3.160   3.181   7.412 -0.1242  0.2626 -0.6298
   16SAPS   H2R 2022   3.081   3.258   7.425 -0.5339 -0.3180  0.4519
   16SAPS   H2S 2023   3.116   3.080   7.425  0.3955  0.1042 -0.0360
   16SAPS    C3 2024   3.252   3.369   7.033 -0.4740 -0.0658 -0.2915
   16SAPS    HX 2025   3.184   3.450   7.067  0.2337  0.3203  0.2087
   16SAPS    HY 2026   3.261   3.385   6.924 -0.0191 -0.5090 -0.3192
   16SAPS   O31 2027   3.384   3.373   7.099 -0.7146 -0.1448 -0.2661
   16SAPS   C31 2028   3.490   3.339   7.014 -0.7755 -0.0018 -0.5542
   16SAPS   O32 2029   3.476   3.299   6.903  0.0692 -0.2511  0.2799
   16SAPS   C32 2030   3.629   3.355   7.087 -0.6094 -0.2876 -0.9355
   16SAPS   H2X 2031   3.672   3.458   7.082  1.2230 -0.8353  1.6788
   16SAPS   H2Y 2032   3.701   3.298   7.025 -0.1155 -0.0286 -0.6004
   16SAPS   C23 2033   3.265   3.190   7.522 -0.7622 -0.9929 -0.2307
   16SAPS   H3R 2034   3.314   3.289   7.510 -0.6806 -1.2032 -1.8005
   16SAPS   H3S 2035   3.338   3.107   7.517  0.6125  0.2639 -3.4125
   16SAPS   C24 2036   3.207   3.202   7.665  0.4636  0.2381 -0.3454
   16SAPS   H4R 2037   3.137   3.289   7.660 -0.2913 -0.3977 -1.2648
   16SAPS   H4S 2038   3.286   3.229   7.738 -0.6446  2.0007  0.2830
   16SAPS   C25 2039   3.118   3.082   7.698  0.2628  0.6634 -0.1635
   16SAPS   H5R 2040   3.091   3.020   7.612 -0.3334 -0.6177  0.9290
   16SAPS   C26 2041   3.074   3.057   7.826  0.4780 -0.1021 -0.0977
   16SAPS   H6R 2042   3.017   2.965   7.847  0.8042 -0.0868  0.9035
   16SAPS   C27 2043   3.107   3.140   7.951 -0.3975  0.3196  0.4365
   16SAPS   H7R 2044   3.019   3.168   8.014 -1.9545  1.0134 -1.9177
   16SAPS   H7S 2045   3.157   3.233   7.918  1.1887 -1.4866 -2.6378
   16SAPS   C28 2046   3.213   3.066   8.024 -0.7461 -0.1090 -0.1605
   16SAPS   H8R 2047   3.293   3.030   7.958 -1.0915 -0.5764 -0.3355
   16SAPS   C29 2048   3.220   3.046   8.157  0.3370  0.2007 -0.7640
   16SAPS   H9R 2049   3.305   2.990   8.199  0.1441 -0.4773 -1.2429
   16SAPS  C210 2050   3.113   3.092   8.254  0.1500 -0.4179 -0.2695
   16SAPS  H10R 2051   3.013   3.058   8.219  0.9525 -2.0629 -1.0746
   16SAPS  H10S 2052   3.110   3.203   8.242  1.3483 -0.1547  1.3953
   16SAPS  C211 2053   3.126   3.059   8.401  0.6260  0.5568  1.4098
   16SAPS  H11R 2054   3.038   3.002   8.436  0.9815 -0.1229  1.2277
   16SAPS  C212 2055   3.238   3.067   8.482 -0.0621  0.2125 -0.1790
   16SAPS  H12R 2056   3.216   3.035   8.585  0.0734 -1.2293 -0.5717
   16SAPS  C213 2057   3.372   3.119   8.449  0.3401 -0.1592 -0.2065
   16SAPS  H13R 2058   3.355   3.226   8.426  0.0301  0.0793  1.0781
   16SAPS  H13S 2059   3.406   3.061   8.360 -0.7440 -0.1272 -0.6695
   16SAPS  C214 2060   3.464   3.122   8.561 -1.0116 -0.5018 -0.1302
   16SAPS  H14R 2061   3.444   3.198   8.638  1.7517  1.8808 -1.5453
   16SAPS  C215 2062   3.587   3.062   8.567  0.7249  0.2354 -0.3128
   16SAPS  H15R 2063   3.657   3.085   8.650 -1.6775  0.4535  1.7792
   16SAPS  C216 2064   3.640   2.968   8.461 -0.4723 -0.7653 -0.2986
   16SAPS  H16R 2065   3.746   2.996   8.445 -0.0950 -1.9586 -0.0388
   16SAPS  H16S 2066   3.589   2.981   8.364 -0.9202 -1.2918 -0.1399
   16SAPS  C217 2067   3.618   2.819   8.497  0.1423 -1.1863  0.0158
   16SAPS  H17R 2068   3.623   2.755   8.406  0.2850 -0.0007 -0.8362
   16SAPS  H17S 2069   3.520   2.803   8.546 -0.4587  0.7533 -0.4616
   16SAPS  C218 2070   3.722   2.766   8.598  0.5186  0.5841 -0.4105
   16SAPS  H18R 2071   3.721   2.818   8.696 -0.4748 -3.4470  1.9696
   16SAPS  H18S 2072   3.820   2.776   8.548 -0.3651 -1.8259 -2.8871
   16SAPS  C219 2073   3.713   2.613   8.624  0.1433 -0.3365  0.0815
   16SAPS  H19R 2074   3.693   2.560   8.528  0.3322  1.0327 -0.7340
   16SAPS  H19S 2075   3.626   2.586   8.687 -0.8699  1.1587 -0.6452
   16SAPS  C220 2076   3.844   2.559   8.665 -0.1059 -0.3437 -0.2366
   16SAPS  H20R 2077   3.864   2.582   8.772  1.3277 -1.9671 -0.0981
   16SAPS  H20S 2078   3.928   2.599   8.603 -0.6005  1.4541  0.1953
   16SAPS  H20T 2079   3.842   2.448   8.665 -2.1522 -0.3521  0.8399
   16SAPS   C33 2080   3.632   3.323   7.238  0.6131  0.0348 -0.0117
   16SAPS   H3X 2081   3.588   3.225   7.263 -0.1971  0.5705  0.7135
   16SAPS   H3Y 2082   3.561   3.399   7.278 -0.1272  0.5969 -2.2124
   16SAPS   C34 2083   3.763   3.342   7.304 -0.0881  0.3036  0.2811
   16SAPS   H4X 2084   3.786   3.449   7.323 -0.7773  0.6746 -0.9027
   16SAPS   H4Y 2085   3.840   3.301   7.235 -0.3173 -0.4673  0.4738
   16SAPS   C35 2086   3.784   3.283   7.445  0.2135 -0.3071  0.0254
   16SAPS   H5X 2087   3.887   3.315   7.472 -0.0022 -1.2507  2.1953
   16SAPS   H5Y 2088   3.787   3.172   7.447 -0.2076 -0.3226  2.4922
   16SAPS   C36 2089   3.683   3.336   7.553 -0.6922  0.2103  0.3775
   16SAPS   H6X 2090   3.580   3.320   7.516 -1.0411  0.8430  1.0494
   16SAPS   H6Y 2091   3.707   3.442   7.572 -0.1734 -0.0095  0.9699
   16SAPS   C37 2092   3.708   3.263   7.690  0.4832  0.4369  0.4203
   16SAPS   H7X 2093   3.814   3.261   7.725  0.5621 -1.9325  0.1982
   16SAPS   H7Y 2094   3.684   3.156   7.674 -2.0070  0.9957 -0.0377
   16SAPS   C38 2095   3.608   3.311   7.797  0.6764 -0.7915 -0.0536
   16SAPS   H8X 2096   3.501   3.298   7.770  1.1059 -1.5412 -1.5062
   16SAPS   H8Y 2097   3.613   3.421   7.808 -0.5484 -0.9425  2.9484
   16SAPS   C39 2098   3.638   3.240   7.935 -0.2550 -0.0634  0.9838
   16SAPS   H9X 2099   3.582   3.296   8.013  0.7306  0.4437  1.3361
   16SAPS   H9Y 2100   3.745   3.262   7.954 -0.3796  1.3843  0.0934
   16SAPS  C310 2101   3.598   3.087   7.935 -0.6455  0.4972 -0.2627
   16SAPS  H10X 2102   3.658   3.034   7.857 -0.0478 -1.5695  1.5224
   16SAPS  H10Y 2103   3.494   3.081   7.897 -0.4721 -1.4462 -0.5110
   16SAPS  C311 2104   3.615   3.021   8.079  0.0651  0.4928  0.3216
   16SAPS  H11X 2105   3.541   3.066   8.149  0.5958  2.1208 -0.1080
   16SAPS  H11Y 2106   3.710   3.043   8.132 -0.3470 -1.0089  1.7646
   16SAPS  C312 2107   3.591   2.867   8.076 -0.0285  0.3493 -0.5627
   16SAPS  H12X 2108   3.490   2.853   8.032 -0.1035  1.5948 -0.7991
   16SAPS  H12Y 2109   3.595   2.840   8.184  0.5851  3.0569  0.1685
   16SAPS  C313 2110   3.697   2.787   7.995 -0.3745 -0.1081  0.5959
   16SAPS  H13X 2111   3.801   2.809   8.028 -1.0939  1.5875  1.8649
   16SAPS  H13Y 2112   3.682   2.813   7.888  0.8531  0.3169  0.5115
   16SAPS  C314 2113   3.667   2.629   8.003 -0.1107 -0.9017 -0.4663
   16SAPS  H14X 2114   3.726   2.574   7.926  0.4903 -0.7163 -0.1386
   16SAPS  H14Y 2115   3.558   2.636   7.982  0.1844  0.7473 -1.6383
   16SAPS  C315 2116   3.696   2.571   8.138  0.1167  0.5381 -0.7090
   16SAPS  H15X 2117   3.657   2.468   8.127  2.1639 -0.4733  0.8361
   16SAPS  H15Y 2118   3.635   2.618   8.218 -0.9176 -2.4684  0.3938
   16SAPS  C316 2119   3.847   2.562   8.176  0.3021  0.0185  0.4351
   16SAPS  H16X 2120   3.889   2.661   8.205  1.7985 -0.3029 -0.5324
   16SAPS  H16Y 2121   3.908   2.530   8.089 -2.7200  2.1773 -2.7950
   16SAPS  C317 2122   3.879   2.466   8.290  0.0651  0.3411 -0.7404
   16SAPS  H17X 2123   3.845   2.363   8.268  0.2798 -0.3088  1.6459
   16SAPS  H17Y 2124   3.825   2.507   8.378  1.9638  1.3331  0.0372
   16SAPS  C318 2125   4.027   2.459   8.339  0.6381  0.0404 -0.6371
   16SAPS  H18X 2126   4.089   2.396   8.271 -0.8256  0.3554 -2.3434
   16SAPS  H18Y 2127   4.031   2.409   8.438  1.7927  1.1020 -0.1224
   16SAPS  H18Z 2128   4.073   2.559   8.352 -0.6880  0.4279  1.7426
   17SAPC     N 2129   6.139   0.572  10.752  0.2923 -0.0603  0.1437
   17SAPC   C12 2130   6.265   0.546  10.666  0.1547 -0.8991  0.3364
   17SAPC  H12A 2131   6.324   0.636  10.663 -1.8130  0.4350 -1.4538
   17SAPC  H12B 2132   6.248   0.524  10.562  1.9930  1.5390 -0.5893
   17SAPC   C13 2133   6.043   0.454  10.731 -0.3577 -0.7899  0.1229
   17SAPC  H13A 2134   6.012   0.441  10.629 -0.5735 -2.2945  0.3489
   17SAPC  H13B 2135   6.092   0.362  10.761 -2.0132 -1.8795 -0.3472
   17SAPC  H13C 2136   5.951   0.467  10.787  0.1652 -1.5501  1.2167
   17SAPC   C14 2137   6.173   0.576  10.898 -0.1783  0.1108  0.3941
   17SAPC  H14A 2138   6.083   0.553  10.953 -0.1125 -1.3120 -0.0588
   17SAPC  H14B 2139   6.242   0.496  10.916  0.4910  0.2455 -1.3602
   17SAPC  H14C 2140   6.213   0.675  10.917 -0.6662  0.2880  0.5032
   17SAPC   C15 2141   6.067   0.699  10.709 -0.0451  0.2599 -0.0078
   17SAPC  H15A 2142   6.045   0.693  10.604 -0.2783  1.5460 -0.0427
   17SAPC  H15B 2143   5.969   0.708  10.755  0.5743 -0.5772  1.5882
   17SAPC  H15C 2144   6.126   0.788  10.717 -0.4021  0.3771  1.6421
   17SAPC   C11 2145   6.367   0.442  10.722  0.0644  0.5132  0.5271
   17SAPC  H11A 2146   6.409   0.460  10.823 -0.0590 -0.5504  0.7730
   17SAPC  H11B 2147   6.455   0.442  10.654 -1.5806 -3.2920 -1.9176
   17SAPC     P 2148   6.302   0.226  10.573 -0.0982  0.0315  0.2838
   17SAPC   O13 2149   6.438   0.161  10.564  0.1793  0.2580  0.5091
   17SAPC   O14 2150   6.184   0.136  10.572  0.1022  0.1233  0.0878
   17SAPC   O12 2151   6.315   0.306  10.716  0.2980  0.0934  1.0706
   17SAPC   O11 2152   6.286   0.341  10.470  0.7034  0.0406 -0.4157
   17SAPC    C1 2153   6.171   0.367  10.395  0.2558 -0.1584  0.1755
   17SAPC    HA 2154   6.087   0.394  10.463  1.1440  1.8710  0.5483
   17SAPC    HB 2155   6.193   0.461  10.341  2.8569 -1.5071 -1.2809
   17SAPC    C2 2156   6.123   0.266  10.287  0.2701  1.2142  0.1400
   17SAPC    HS 2157   6.086   0.177  10.342  0.1525  1.0280 -0.2358
   17SAPC   O21 2158   6.246   0.232  10.209 -0.0012  0.0955 -0.1895
   17SAPC   C21 2159   6.254   0.113  10.159  0.3830  0.3127 -0.6646
   17SAPC   O22 2160   6.172   0.025  10.188  0.1839  0.0138 -0.1895
   17SAPC   C22 2161   6.386   0.094  10.088  0.3120 -0.3901 -0.5501
   17SAPC   H2R 2162   6.463   0.163  10.129  0.8568 -1.2894 -0.0103
   17SAPC   H2S 2163   6.422  -0.011  10.089 -1.1686 -1.0487 -3.6218
   17SAPC    C3 2164   6.012   0.319  10.192  0.0051 -0.5401 -0.0278
   17SAPC    HX 2165   6.050   0.413  10.146 -0.8844  0.2179  0.7323
   17SAPC    HY 2166   5.928   0.356  10.255 -0.0450  0.8795 -0.8708
   17SAPC   O31 2167   5.975   0.222  10.090  0.2941 -0.1030 -0.6871
   17SAPC   C31 2168   5.883   0.138  10.130  0.3197 -0.1908  0.1275
   17SAPC   O32 2169   5.825   0.137  10.237 -0.6931 -0.0442 -0.2626
   17SAPC   C32 2170   5.842   0.050  10.013  0.3213 -0.5399  0.2361
   17SAPC   H2X 2171   5.854  -0.057  10.040  0.9346 -0.2899  1.0177
   17SAPC   H2Y 2172   5.922   0.060   9.937 -0.0335  0.1976 -0.0461
   17SAPC   C23 2173   6.373   0.118   9.939  0.4941  0.9875 -0.1706
   17SAPC   H3R 2174   6.467   0.091   9.887 -1.7055 -2.2286 -2.8849
   17SAPC   H3S 2175   6.347   0.224   9.923  0.7491  1.2535  1.0754
   17SAPC   C24 2176   6.263   0.031   9.877 -0.1160  1.1330 -0.3746
   17SAPC   H4R 2177   6.157   0.040   9.907 -0.5067 -0.7343 -1.0198
   17SAPC   H4S 2178   6.278  -0.077   9.901 -1.2724  1.0543  0.0527
   17SAPC   C25 2179   6.280   0.051   9.728 -0.0568  0.6409 -0.6603
   17SAPC   H5R 2180   6.368  -0.004   9.693  0.7996 -0.0290  2.2192
   17SAPC   C26 2181   6.205   0.125   9.647 -0.4121  0.1899 -0.1942
   17SAPC   H6R 2182   6.243   0.139   9.545 -0.0769  0.3913 -0.0439
   17SAPC   C27 2183   6.090   0.209   9.686 -0.1632  0.4498 -0.6548
   17SAPC   H7R 2184   6.112   0.312   9.652 -0.7546  0.6405 -0.4780
   17SAPC   H7S 2185   6.069   0.213   9.795  1.8943 -3.2167  0.0675
   17SAPC   C28 2186   5.968   0.155   9.625  0.4431 -0.6762 -0.0689
   17SAPC   H8R 2187   5.945   0.054   9.662 -0.6294 -1.4742 -2.6626
   17SAPC   C29 2188   5.886   0.203   9.526  0.6481  0.3642  0.1671
   17SAPC   H9R 2189   5.800   0.138   9.504  1.8964 -0.9961 -0.9196
   17SAPC  C210 2190   5.897   0.332   9.459 -0.7350 -0.0146  0.4367
   17SAPC  H10R 2191   5.971   0.401   9.505 -1.0403  2.1381 -2.0286
   17SAPC  H10S 2192   5.804   0.390   9.472 -0.1259  0.7920  1.3278
   17SAPC  C211 2193   5.949   0.303   9.321  0.3620 -0.0618 -1.2720
   17SAPC  H11R 2194   6.055   0.273   9.318  0.6090  0.8200 -1.7175
   17SAPC  C212 2195   5.877   0.333   9.216  0.5961 -0.0091  0.0248
   17SAPC  H12R 2196   5.919   0.316   9.115  0.5137  2.5274 -0.4964
   17SAPC  C213 2197   5.736   0.390   9.206  0.2057 -0.0855 -0.1542
   17SAPC  H13R 2198   5.763   0.469   9.132 -0.1673  0.0384 -0.1569
   17SAPC  H13S 2199   5.689   0.432   9.298 -0.8759 -1.7986  0.1173
   17SAPC  C214 2200   5.640   0.291   9.155 -0.2724 -0.7513 -0.0483
   17SAPC  H14R 2201   5.589   0.227   9.229  1.0045 -2.6915 -0.7790
   17SAPC  C215 2202   5.611   0.267   9.029  0.5327  0.3712  0.0899
   17SAPC  H15R 2203   5.536   0.192   9.000  0.8001  0.4302 -0.7865
   17SAPC  C216 2204   5.662   0.333   8.903 -0.6660  0.0048  0.4636
   17SAPC  H16R 2205   5.673   0.254   8.826 -2.0419 -0.0887  0.3339
   17SAPC  H16S 2206   5.759   0.384   8.923 -0.5563 -0.9335  2.5063
   17SAPC  C217 2207   5.560   0.441   8.856 -0.3077  0.4008 -0.7411
   17SAPC  H17R 2208   5.546   0.502   8.947 -2.1797 -1.7032  0.5006
   17SAPC  H17S 2209   5.467   0.385   8.831  0.7639 -1.6776 -0.3580
   17SAPC  C218 2210   5.600   0.520   8.736  0.6033  0.1112 -0.0098
   17SAPC  H18R 2211   5.608   0.453   8.648 -0.9110  0.1727 -0.2185
   17SAPC  H18S 2212   5.702   0.562   8.755  0.8760 -0.4252 -0.2770
   17SAPC  C219 2213   5.504   0.630   8.698  0.2146  0.1804 -0.1427
   17SAPC  H19R 2214   5.566   0.700   8.639 -0.8529  1.3137  0.0343
   17SAPC  H19S 2215   5.470   0.668   8.797 -0.2675  0.1769 -0.3036
   17SAPC  C220 2216   5.393   0.576   8.610 -0.0108 -0.4146 -0.0375
   17SAPC  H20R 2217   5.424   0.540   8.509  0.4441  0.4180 -0.2026
   17SAPC  H20S 2218   5.325   0.659   8.582  2.0068  0.5836 -2.2644
   17SAPC  H20T 2219   5.351   0.481   8.649  0.3875 -1.5071 -2.1235
   17SAPC   C33 2220   5.696   0.084   9.952 -0.2029 -0.0732 -0.0806
   17SAPC   H3X 2221   5.699   0.189   9.914  0.6932 -1.1352 -3.2809
   17SAPC   H3Y 2222   5.622   0.082  10.035  0.4387 -2.3672  0.5142
   17SAPC   C34 2223   5.667  -0.005   9.834 -0.4291  0.2530 -0.4505
   17SAPC   H4X 2224   5.673  -0.110   9.870  2.9960  0.1667 -1.0179
   17SAPC   H4Y 2225   5.747  -0.002   9.757 -0.0166  2.4440 -0.0084
   17SAPC   C35 2226   5.539   0.020   9.762  0.7387 -0.8034  0.3143
   17SAPC   H5X 2227   5.519   0.129   9.761  0.1193 -0.9174 -0.0951
   17SAPC   H5Y 2228   5.456  -0.016   9.827 -0.3375 -0.6558 -0.9469
   17SAPC   C36 2229   5.551  -0.029   9.622 -0.5550  0.5124  0.6657
   17SAPC   H6X 2230   5.578  -0.137   9.627 -0.7560  0.4468  0.3207
   17SAPC   H6Y 2231   5.632   0.018   9.563 -0.2262 -0.9492 -0.0794
   17SAPC   C37 2232   5.417  -0.009   9.545 -0.3450  0.2568  0.6103
   17SAPC   H7X 2233   5.414   0.101   9.529 -1.9314  0.5906  2.7693
   17SAPC   H7Y 2234   5.328  -0.044   9.600 -0.2623  1.8273  1.8309
   17SAPC   C38 2235   5.410  -0.067   9.400 -0.6394  0.8068  0.3214
   17SAPC   H8X 2236   5.425  -0.177   9.403 -0.7351  0.7971  3.1129
   17SAPC   H8Y 2237   5.496  -0.029   9.341 -0.4499 -0.4923 -0.2864
   17SAPC   C39 2238   5.287  -0.019   9.325  0.1886  0.5316  0.0776
   17SAPC   H9X 2239   5.288   0.092   9.321  1.2358  0.5433  0.4065
   17SAPC   H9Y 2240   5.194  -0.045   9.379  1.1573 -0.5824  1.2696
   17SAPC  C310 2241   5.274  -0.071   9.182 -1.0002  0.5331  0.9758
   17SAPC  H10X 2242   5.263  -0.182   9.183  2.6363 -0.0745 -2.3018
   17SAPC  H10Y 2243   5.366  -0.050   9.124 -1.8113 -1.1859 -1.0856
   17SAPC  C311 2244   5.166  -0.010   9.094  0.9659 -0.2090 -0.6796
   17SAPC  H11X 2245   5.075  -0.013   9.158  0.6114  2.1817 -0.9884
   17SAPC  H11Y 2246   5.142  -0.073   9.005 -0.6938 -2.8383  1.4564
   17SAPC  C312 2247   5.206   0.134   9.061  0.0238  0.0820  0.3830
   17SAPC  H12X 2248   5.314   0.135   9.033 -0.4107 -0.0947 -1.4526
   17SAPC  H12Y 2249   5.183   0.191   9.154 -0.1342 -0.1058  0.4584
   17SAPC  C313 2250   5.127   0.189   8.946 -0.1076 -0.2460 -0.1623
   17SAPC  H13X 2251   5.021   0.196   8.977 -0.1164  2.4139 -0.5467
   17SAPC  H13Y 2252   5.148   0.127   8.856  2.3212  0.9860 -0.5487
   17SAPC  C314 2253   5.160   0.337   8.924 -0.3152 -0.1253  0.1600
   17SAPC  H14X 2254   5.259   0.345   8.874  0.6946  0.5502  2.1315
   17SAPC  H14Y 2255   5.157   0.386   9.024 -1.4929 -0.6171  0.3881
   17SAPC  C315 2256   5.052   0.396   8.836 -0.8717 -0.4367  0.2399
   17SAPC  H15X 2257   4.952   0.357   8.864 -1.4812 -0.2567 -1.5402
   17SAPC  H15Y 2258   5.061   0.385   8.726  1.2969  3.4339 -0.1541
   17SAPC  C316 2259   5.047   0.551   8.866 -0.0283 -0.0866 -0.2526
   17SAPC  H16X 2260   5.147   0.586   8.831 -0.9210  0.3500 -2.5543
   17SAPC  H16Y 2261   5.055   0.571   8.975  0.7661  2.5569 -0.7196
   17SAPC  C317 2262   4.930   0.623   8.796 -0.3533 -0.2780  1.0120
   17SAPC  H17X 2263   4.832   0.604   8.844 -0.5569 -0.2049  0.6327
   17SAPC  H17Y 2264   4.925   0.602   8.687 -0.5599 -1.0021  1.1596
   17SAPC  C318 2265   4.954   0.774   8.802  0.3251 -0.3001 -0.2123
   17SAPC  H18X 2266   5.057   0.802   8.770  0.5344 -0.1297  0.5718
   17SAPC  H18Y 2267   4.883   0.825   8.733  0.1876  0.7038  0.6379
   17SAPC  H18Z 2268   4.954   0.810   8.908  2.3291 -0.7605 -0.0008
   18SAPC     N 2269   6.150   6.625  10.873 -0.3150  0.4168  0.4247
   18SAPC   C12 2270   6.250   6.550  10.793 -0.2815  0.4866  0.0861
   18SAPC  H12A 2271   6.230   6.559  10.687  1.2920 -2.2546 -0.5512
   18SAPC  H12B 2272   6.231   6.444  10.800 -2.0947  0.6487 -1.4614
   18SAPC   C13 2273   6.151   6.773  10.842 -0.4685 -0.2209 -0.0154
   18SAPC  H13A 2274   6.248   6.817  10.859  0.0926 -1.2121 -0.5537
   18SAPC  H13B 2275   6.124   6.794  10.739 -0.2820 -0.8179 -0.1918
   18SAPC  H13C 2276   6.072   6.823  10.895 -1.3995 -1.1167 -0.5234
   18SAPC   C14 2277   6.011   6.577  10.835  0.4086  0.0445 -0.6734
   18SAPC  H14A 2278   5.931   6.614  10.898  0.8962 -1.5198  0.9600
   18SAPC  H14B 2279   5.985   6.612  10.736 -1.1151 -1.7295 -0.9648
   18SAPC  H14C 2280   6.010   6.469  10.836  3.1692 -0.0374 -0.1071
   18SAPC   C15 2281   6.175   6.610  11.019  0.6301 -0.0358  0.0456
   18SAPC  H15A 2282   6.107   6.665  11.082 -0.4830  0.1207 -1.2289
   18SAPC  H15B 2283   6.170   6.509  11.056  1.4995 -0.4464 -0.8869
   18SAPC  H15C 2284   6.266   6.662  11.047  0.9733 -0.8545  0.4538
   18SAPC   C11 2285   6.401   6.559  10.838 -0.1431 -0.8927  0.1095
   18SAPC  H11A 2286   6.410   6.527  10.944  1.1154  0.1860  0.3483
   18SAPC  H11B 2287   6.426   6.666  10.829 -0.2877 -0.8275  0.4637
   18SAPC     P 2288   6.501   6.329  10.771  0.1962 -0.2862  0.5087
   18SAPC   O13 2289   6.603   6.317  10.883  0.5070  0.1550 -0.4353
   18SAPC   O14 2290   6.367   6.277  10.808  0.6113 -0.3654  0.0662
   18SAPC   O12 2291   6.481   6.484  10.748 -0.1617  0.2767  0.1177
   18SAPC   O11 2292   6.552   6.273  10.631 -0.0380 -0.5564  0.3236
   18SAPC    C1 2293   6.557   6.359  10.514 -0.7300 -0.6524 -0.2531
   18SAPC    HA 2294   6.516   6.463  10.517  0.4962 -0.0680 -1.8938
   18SAPC    HB 2295   6.661   6.379  10.482 -0.4760  0.7337  1.3048
   18SAPC    C2 2296   6.479   6.296  10.398  1.0185  0.1754 -0.0054
   18SAPC    HS 2297   6.377   6.280  10.440  0.5560  0.9444 -0.8020
   18SAPC   O21 2298   6.548   6.172  10.350  0.2947 -0.3711  0.1089
   18SAPC   C21 2299   6.471   6.078  10.299  0.4964  0.0829  0.1435
   18SAPC   O22 2300   6.352   6.072  10.299  0.4932 -0.7159 -0.5751
   18SAPC   C22 2301   6.556   5.967  10.235  0.2485  0.4120  0.3111
   18SAPC   H2R 2302   6.645   5.952  10.299 -0.5392 -0.0938  1.3196
   18SAPC   H2S 2303   6.496   5.874  10.240 -0.3362  0.7860  0.4588
   18SAPC    C3 2304   6.457   6.402  10.283  0.4392  0.8525 -0.2299
   18SAPC    HX 2305   6.414   6.491  10.333 -2.7787 -0.5048 -0.3783
   18SAPC    HY 2306   6.396   6.358  10.201  0.4839  0.8736 -0.2750
   18SAPC   O31 2307   6.590   6.434  10.229  1.0312 -0.0276 -0.3754
   18SAPC   C31 2308   6.579   6.514  10.125 -0.2769 -0.2167 -0.4965
   18SAPC   O32 2309   6.474   6.546  10.069 -0.8238 -0.0311 -0.8624
   18SAPC   C32 2310   6.716   6.563  10.085  0.4293 -1.4568 -0.4722
   18SAPC   H2X 2311   6.782   6.487  10.038 -0.8219 -2.9838  0.1685
   18SAPC   H2Y 2312   6.768   6.593  10.179 -1.5814 -0.6384  0.4264
   18SAPC   C23 2313   6.601   5.987  10.081  0.4292  0.0675 -0.8864
   18SAPC   H3R 2314   6.675   5.908  10.058  0.4379  0.1699 -1.2213
   18SAPC   H3S 2315   6.658   6.081  10.063  1.8135 -0.7417 -0.8001
   18SAPC   C24 2316   6.480   5.962   9.993 -0.7611  0.8960  0.2485
   18SAPC   H4R 2317   6.432   5.870  10.032  1.2543 -0.9256 -1.3319
   18SAPC   H4S 2318   6.523   5.932   9.895  0.2742 -2.2922  1.5446
   18SAPC   C25 2319   6.394   6.085   9.985 -0.1777  0.3511 -0.4723
   18SAPC   H5R 2320   6.315   6.091  10.060  1.1602  1.6808  0.9066
   18SAPC   C26 2321   6.401   6.193   9.905  0.5113 -0.5195 -0.9404
   18SAPC   H6R 2322   6.319   6.265   9.917 -0.0871 -1.4145  0.6528
   18SAPC   C27 2323   6.496   6.225   9.794 -0.1779 -0.4239 -0.8054
   18SAPC   H7R 2324   6.445   6.204   9.698 -1.6984  0.6373 -0.2695
   18SAPC   H7S 2325   6.582   6.155   9.798 -1.2396 -1.7766 -0.9432
   18SAPC   C28 2326   6.544   6.371   9.793  0.0306 -0.4628  0.0342
   18SAPC   H8R 2327   6.547   6.421   9.891  0.8904  0.1086 -0.2718
   18SAPC   C29 2328   6.575   6.449   9.687  0.7116 -0.4339  0.3226
   18SAPC   H9R 2329   6.594   6.556   9.702  1.0201 -0.1532 -1.7455
   18SAPC  C210 2330   6.552   6.413   9.538 -0.7685  0.6930 -0.3662
   18SAPC  H10R 2331   6.599   6.313   9.525  0.4604  0.9311  1.7903
   18SAPC  H10S 2332   6.628   6.465   9.476 -0.5828 -0.0688 -0.7903
   18SAPC  C211 2333   6.412   6.429   9.478  0.7502  0.5727 -0.7122
   18SAPC  H11R 2334   6.341   6.488   9.539 -1.8734 -2.2535 -0.7785
   18SAPC  C212 2335   6.373   6.398   9.351 -0.3186  0.4271  0.0054
   18SAPC  H12R 2336   6.265   6.401   9.330 -0.7739 -1.6108  1.7202
   18SAPC  C213 2337   6.470   6.341   9.242  0.1923 -0.7132 -0.0748
   18SAPC  H13R 2338   6.426   6.271   9.168  1.8414  0.8731 -2.7217
   18SAPC  H13S 2339   6.549   6.275   9.283 -1.5903 -3.8423 -1.2929
   18SAPC  C214 2340   6.529   6.462   9.166  0.2024 -0.5094  0.5435
   18SAPC  H14R 2341   6.481   6.560   9.176 -0.1469 -0.1847 -2.9800
   18SAPC  C215 2342   6.639   6.455   9.085  0.4226  0.6184  0.6242
   18SAPC  H15R 2343   6.680   6.547   9.039 -2.1363  3.2492  3.1795
   18SAPC  C216 2344   6.723   6.326   9.072 -0.5947  0.3593  0.2716
   18SAPC  H16R 2345   6.667   6.231   9.088 -4.3406  2.0563 -1.4572
   18SAPC  H16S 2346   6.814   6.332   9.134 -0.8744 -1.4336  0.9306
   18SAPC  C217 2347   6.790   6.314   8.925  0.3796  0.0763  0.5137
   18SAPC  H17R 2348   6.702   6.290   8.861 -0.1177  0.7760  0.9316
   18SAPC  H17S 2349   6.853   6.222   8.932  0.2541  0.0040  0.6846
   18SAPC  C218 2350   6.862   6.442   8.887  0.7287  0.6006  0.6609
   18SAPC  H18R 2351   6.911   6.497   8.970  0.8991 -0.9539  1.6170
   18SAPC  H18S 2352   6.794   6.507   8.827  2.1021 -0.0015 -1.6749
   18SAPC  C219 2353   6.981   6.417   8.795  0.0146  1.1175  0.0855
   18SAPC  H19R 2354   6.942   6.363   8.706  0.2127  0.9527  0.0966
   18SAPC  H19S 2355   7.052   6.341   8.834  0.4178  0.8795 -1.0651
   18SAPC  C220 2356   7.052   6.550   8.757 -0.0882  0.0930 -0.1013
   18SAPC  H20R 2357   7.145   6.519   8.704  0.1611  2.2261 -1.0205
   18SAPC  H20S 2358   7.082   6.600   8.851  2.6851  0.2862 -0.9959
   18SAPC  H20T 2359   6.998   6.615   8.685  0.0936  0.3904  0.0293
   18SAPC   C33 2360   6.703   6.686   9.992 -0.2959  0.5240  0.1049
   18SAPC   H3X 2361   6.639   6.759  10.045  3.9828  2.7327  2.8174
   18SAPC   H3Y 2362   6.647   6.668   9.898 -2.0664 -2.3658  1.5926
   18SAPC   C34 2363   6.847   6.745   9.966  0.6758 -0.2231  0.8865
   18SAPC   H4X 2364   6.924   6.679   9.920 -1.2218 -1.7795 -0.2382
   18SAPC   H4Y 2365   6.885   6.789  10.061  0.1244  1.8551  0.1960
   18SAPC   C35 2366   6.825   6.870   9.881  0.6404 -0.4345  0.3075
   18SAPC   H5X 2367   6.923   6.921   9.886 -0.0798  1.1489 -0.9321
   18SAPC   H5Y 2368   6.751   6.938   9.928  1.3041  2.3968 -2.4059
   18SAPC   C36 2369   6.804   6.845   9.727 -0.4160 -0.5029  0.1600
   18SAPC   H6X 2370   6.864   6.756   9.698 -0.2216 -0.2693 -0.1602
   18SAPC   H6Y 2371   6.859   6.931   9.683 -0.1510 -0.4844  0.5158
   18SAPC   C37 2372   6.661   6.834   9.678  0.5823 -0.1695 -0.1400
   18SAPC   H7X 2373   6.607   6.924   9.713  1.9561  0.3462  0.7481
   18SAPC   H7Y 2374   6.605   6.753   9.729 -0.6151  1.7019  1.6322
   18SAPC   C38 2375   6.663   6.819   9.528  0.5310 -0.1185  0.1443
   18SAPC   H8X 2376   6.703   6.721   9.496 -2.3507 -1.4244  0.1796
   18SAPC   H8Y 2377   6.714   6.908   9.485  2.1450 -0.8785  0.4551
   18SAPC   C39 2378   6.523   6.814   9.466 -0.6692 -0.7355 -0.2288
   18SAPC   H9X 2379   6.466   6.895   9.519  2.3463  0.8501  0.8403
   18SAPC   H9Y 2380   6.481   6.713   9.484  1.8116 -1.6029  1.0408
   18SAPC  C310 2381   6.516   6.851   9.315 -0.4767 -1.1127 -0.8528
   18SAPC  H10X 2382   6.565   6.775   9.250  2.3037  0.4361 -0.7326
   18SAPC  H10Y 2383   6.578   6.942   9.299  1.1081 -1.6937  1.3833
   18SAPC  C311 2384   6.377   6.888   9.268  0.6119 -0.0426  1.1541
   18SAPC  H11X 2385   6.318   6.950   9.339 -0.8387  0.4920 -0.4488
   18SAPC  H11Y 2386   6.320   6.793   9.256 -0.7971  1.0598 -2.1495
   18SAPC  C312 2387   6.380   6.963   9.130 -0.8199  0.0050 -0.1028
   18SAPC  H12X 2388   6.434   6.900   9.056  1.1276 -0.0273  1.2793
   18SAPC  H12Y 2389   6.442   7.053   9.147  0.3636 -0.8533  0.2599
   18SAPC  C313 2390   6.242   6.998   9.078  1.1567  0.1367 -0.1269
   18SAPC  H13X 2391   6.195   7.088   9.123  0.7638 -0.3048  0.3603
   18SAPC  H13Y 2392   6.171   6.913   9.088 -1.6392  2.0212 -2.3970
   18SAPC  C314 2393   6.233   7.020   8.924 -0.0074  0.0110  0.2178
   18SAPC  H14X 2394   6.225   6.922   8.873 -2.2163 -0.2464  0.9813
   18SAPC  H14Y 2395   6.333   7.066   8.907 -0.5420  1.0795 -0.0539
   18SAPC  C315 2396   6.118   7.108   8.869 -0.2249 -0.0105 -0.5534
   18SAPC  H15X 2397   6.135   7.213   8.902 -0.6354  0.4296 -1.6944
   18SAPC  H15Y 2398   6.026   7.068   8.916 -0.5408  0.0340 -1.1256
   18SAPC  C316 2399   6.114   7.105   8.718  0.9248  0.0325  1.0502
   18SAPC  H16X 2400   6.028   7.164   8.678  1.7939  0.2409 -0.6046
   18SAPC  H16Y 2401   6.097   7.005   8.673  2.8892 -0.2463  0.8424
   18SAPC  C317 2402   6.232   7.163   8.641 -0.2904 -0.1800  0.2188
   18SAPC  H17X 2403   6.309   7.090   8.676 -2.5725 -3.2163 -0.6585
   18SAPC  H17Y 2404   6.258   7.265   8.677 -0.2808 -0.4867  1.1032
   18SAPC  C318 2405   6.224   7.143   8.494  0.1388 -0.1828 -0.1541
   18SAPC  H18X 2406   6.120   7.150   8.455  0.8189 -0.2394 -2.0802
   18SAPC  H18Y 2407   6.258   7.042   8.463  0.1107  0.3663 -2.1528
   18SAPC  H18Z 2408   6.288   7.214   8.438  0.3881 -2.3484 -2.8580
   19SAPC     N 2409   0.136   0.808  10.943 -0.1340 -0.9115 -0.6089
   19SAPC   C12 2410   0.081   0.836  10.803  0.0374 -0.6552  0.2087
   19SAPC  H12A 2411   0.006   0.912  10.818  0.2689 -0.3298 -0.2710
   19SAPC  H12B 2412   0.031   0.750  10.760  0.2725 -0.8846  0.3900
   19SAPC   C13 2413   0.194   0.927  11.004 -0.3306  0.4996  0.0689
   19SAPC  H13A 2414   0.112   0.989  11.038 -1.3162 -0.8904  0.2938
   19SAPC  H13B 2415   0.255   0.900  11.088  1.8818  0.0819 -1.5874
   19SAPC  H13C 2416   0.256   0.985  10.937 -2.7193  0.7583 -2.0851
   19SAPC   C14 2417   0.013   0.768  11.021 -1.0212  0.3645  0.0357
   19SAPC  H14A 2418   0.038   0.760  11.126 -0.9555  1.0652  0.0790
   19SAPC  H14B 2419  -0.061   0.846  11.022 -1.2342  0.1806  1.9487
   19SAPC  H14C 2420  -0.022   0.676  10.977 -0.7476  0.9156 -1.4038
   19SAPC   C15 2421   0.233   0.702  10.953  0.5023  0.0684 -0.0558
   19SAPC  H15A 2422   0.216   0.606  10.907 -0.1871 -0.6242  1.5650
   19SAPC  H15B 2423   0.328   0.739  10.918  1.0519 -0.8335  0.4304
   19SAPC  H15C 2424   0.254   0.676  11.056  0.3707 -2.7947 -0.6814
   19SAPC   C11 2425   0.183   0.876  10.696  0.1245  0.8194  0.0414
   19SAPC  H11A 2426   0.125   0.873  10.602  1.6054  1.2148 -0.9067
   19SAPC  H11B 2427   0.257   0.793  10.686 -2.8387 -1.7572 -2.7708
   19SAPC     P 2428   0.181   1.138  10.675  0.3548  0.3681 -0.1404
   19SAPC   O13 2429   0.043   1.154  10.727 -0.3558 -0.0108 -0.4006
   19SAPC   O14 2430   0.267   1.252  10.707 -0.0546  0.2782 -0.0170
   19SAPC   O12 2431   0.250   1.004  10.722 -0.0183  0.4513  0.1132
   19SAPC   O11 2432   0.164   1.110  10.518 -0.1411  0.1038 -1.0442
   19SAPC    C1 2433   0.259   1.166  10.435  0.1280  0.3429  0.0729
   19SAPC    HA 2434   0.250   1.275  10.420 -0.0092  0.2962 -0.1868
   19SAPC    HB 2435   0.361   1.146  10.475 -0.0087 -2.1778 -0.6903
   19SAPC    C2 2436   0.240   1.094  10.296 -0.1115 -0.3123 -0.5354
   19SAPC    HS 2437   0.318   1.135  10.229  0.1325 -1.1075 -0.7392
   19SAPC   O21 2438   0.102   1.104  10.260 -0.0392 -0.1150 -0.0961
   19SAPC   C21 2439   0.083   1.149  10.135 -0.8800 -0.0713  0.2713
   19SAPC   O22 2440   0.167   1.169  10.052 -0.3608 -0.2215  0.0908
   19SAPC   C22 2441  -0.073   1.163  10.124  0.2710 -0.6698 -0.3786
   19SAPC   H2R 2442  -0.121   1.063  10.116 -3.6714  0.9060  1.0819
   19SAPC   H2S 2443  -0.092   1.223  10.216  1.8107 -0.5371 -0.1272
   19SAPC    C3 2444   0.265   0.940  10.313 -0.2120  0.3318  0.0488
   19SAPC    HX 2445   0.172   0.901  10.359 -0.8900  1.3094 -0.4657
   19SAPC    HY 2446   0.342   0.925  10.392  1.3300  1.7866 -1.0889
   19SAPC   O31 2447   0.314   0.876  10.189  0.6990  0.4646 -0.1515
   19SAPC   C31 2448   0.215   0.824  10.116 -0.1119 -0.0120  0.0844
   19SAPC   O32 2449   0.096   0.829  10.147  0.3090  0.2431 -0.2143
   19SAPC   C32 2450   0.274   0.775   9.979  0.1091  0.6853  0.2862
   19SAPC   H2X 2451   0.244   0.669   9.964  1.1032  0.5271 -0.7167
   19SAPC   H2Y 2452   0.385   0.775   9.968 -0.0443  2.0611 -1.8447
   19SAPC   C23 2453  -0.123   1.250  10.003  0.1729  0.1273 -0.2528
   19SAPC   H3R 2454  -0.071   1.348  10.007  1.8418 -0.5211 -3.0603
   19SAPC   H3S 2455  -0.229   1.268  10.032  0.1460  0.8545 -0.7665
   19SAPC   C24 2456  -0.108   1.186   9.866 -0.3149 -0.6578 -0.3320
   19SAPC   H4R 2457  -0.155   1.086   9.882 -1.8483  0.3157  1.4897
   19SAPC   H4S 2458  -0.000   1.169   9.844 -0.4381 -1.0377 -0.6660
   19SAPC   C25 2459  -0.165   1.273   9.758 -0.1989 -0.3903  1.0791
   19SAPC   H5R 2460  -0.232   1.355   9.789 -0.0740  0.5407 -0.9189
   19SAPC   C26 2461  -0.134   1.275   9.620  0.0698  1.0015  0.5453
   19SAPC   H6R 2462  -0.195   1.331   9.547 -0.7225 -2.8536 -2.0398
   19SAPC   C27 2463  -0.022   1.192   9.552  0.8641 -0.9849  0.3513
   19SAPC   H7R 2464  -0.060   1.107   9.491  2.7492 -0.9359 -0.9860
   19SAPC   H7S 2465   0.050   1.152   9.627 -0.7295  0.2127  2.6206
   19SAPC   C28 2466   0.050   1.266   9.444  0.3039 -0.0535  0.1617
   19SAPC   H8R 2467   0.155   1.292   9.460  0.3294  0.4419 -0.7755
   19SAPC   C29 2468   0.010   1.278   9.315 -0.1325 -0.4897 -0.6085
   19SAPC   H9R 2469   0.083   1.330   9.251  0.8194 -0.8150  0.1846
   19SAPC  C210 2470  -0.112   1.220   9.261 -0.4768  0.0170 -0.0921
   19SAPC  H10R 2471  -0.155   1.292   9.189 -1.1170 -3.0155 -2.9514
   19SAPC  H10S 2472  -0.187   1.202   9.341  0.5458  2.2842  1.4933
   19SAPC  C211 2473  -0.082   1.101   9.178 -0.2167  0.2812  0.1725
   19SAPC  H11R 2474  -0.013   1.023   9.215  1.6125  0.3360 -2.8225
   19SAPC  C212 2475  -0.154   1.068   9.070  0.0287 -0.8962  0.7755
   19SAPC  H12R 2476  -0.139   0.970   9.023 -0.0031  0.1548 -1.5564
   19SAPC  C213 2477  -0.269   1.151   9.018 -0.7855  0.0973  0.8251
   19SAPC  H13R 2478  -0.224   1.249   8.991 -0.6171 -0.2319 -0.1127
   19SAPC  H13S 2479  -0.353   1.156   9.091 -0.4823 -3.0014  1.5245
   19SAPC  C214 2480  -0.324   1.102   8.887 -0.3190 -0.1331  0.4904
   19SAPC  H14R 2481  -0.306   0.996   8.866  0.2318  0.2675 -1.1643
   19SAPC  C215 2482  -0.402   1.170   8.800 -0.3008  0.6255 -0.8747
   19SAPC  H15R 2483  -0.434   1.126   8.704  0.8751 -2.5174  0.0757
   19SAPC  C216 2484  -0.445   1.308   8.832  0.2593  0.0240  0.0052
   19SAPC  H16R 2485  -0.393   1.385   8.770 -3.1168  1.3221 -1.4285
   19SAPC  H16S 2486  -0.408   1.344   8.930  0.6575 -0.0308 -0.1217
   19SAPC  C217 2487  -0.605   1.323   8.830 -0.1594 -0.0023  0.4679
   19SAPC  H17R 2488  -0.639   1.422   8.867 -1.1805  0.2296 -1.0019
   19SAPC  H17S 2489  -0.650   1.234   8.880 -0.3612 -0.6942 -0.8919
   19SAPC  C218 2490  -0.656   1.324   8.678  0.5455 -0.1421 -0.3138
   19SAPC  H18R 2491  -0.652   1.220   8.639 -1.0297 -0.8718  1.3164
   19SAPC  H18S 2492  -0.585   1.389   8.622  0.1515  0.9566  0.4221
   19SAPC  C219 2493  -0.797   1.382   8.670 -0.2083 -0.6135  1.0386
   19SAPC  H19R 2494  -0.800   1.471   8.737  0.4898  0.2798 -0.0760
   19SAPC  H19S 2495  -0.872   1.317   8.718  0.1702 -0.9278  1.2042
   19SAPC  C220 2496  -0.843   1.406   8.526  0.2980 -0.4833 -0.1943
   19SAPC  H20R 2497  -0.941   1.458   8.521 -0.1207 -0.9542  2.0430
   19SAPC  H20S 2498  -0.839   1.305   8.479  0.2548  0.5908 -2.6490
   19SAPC  H20T 2499  -0.761   1.466   8.482  0.6889 -0.9506 -0.1147
   19SAPC   C33 2500   0.213   0.842   9.851  0.3305 -0.5339  0.0784
   19SAPC   H3X 2501   0.240   0.950   9.853  1.2653 -0.7545 -0.2467
   19SAPC   H3Y 2502   0.105   0.831   9.877  0.6903 -4.0443  0.5610
   19SAPC   C34 2503   0.256   0.786   9.711 -0.3370 -0.1690 -0.3534
   19SAPC   H4X 2504   0.222   0.681   9.704  1.0839 -0.6255 -0.7682
   19SAPC   H4Y 2505   0.367   0.787   9.699 -0.4118 -1.3556 -1.2619
   19SAPC   C35 2506   0.194   0.856   9.583  0.8795  0.4737 -0.7829
   19SAPC   H5X 2507   0.204   0.965   9.603  0.0758  0.2351  1.1254
   19SAPC   H5Y 2508   0.085   0.834   9.579  1.1285 -1.1764  0.2201
   19SAPC   C36 2509   0.261   0.814   9.458 -0.2070  0.1127  0.3736
   19SAPC   H6X 2510   0.248   0.704   9.449  1.1417 -0.0091 -0.3391
   19SAPC   H6Y 2511   0.369   0.839   9.465  0.0534 -1.1924  1.3987
   19SAPC   C37 2512   0.205   0.891   9.333  0.2844 -0.3068  0.0317
   19SAPC   H7X 2513   0.194   0.999   9.353 -2.3584 -0.4802 -0.0955
   19SAPC   H7Y 2514   0.103   0.854   9.309  0.4798 -2.0859  1.6026
   19SAPC   C38 2515   0.305   0.860   9.216  0.4938  0.5905  0.1847
   19SAPC   H8X 2516   0.302   0.750   9.202 -2.0690  0.4330  1.2156
   19SAPC   H8Y 2517   0.405   0.888   9.255 -0.6196  3.6211  1.1768
   19SAPC   C39 2518   0.275   0.938   9.089  0.8473 -0.3610  0.3769
   19SAPC   H9X 2519   0.278   1.048   9.106 -0.7633 -0.6283  2.8772
   19SAPC   H9Y 2520   0.168   0.920   9.062  1.3078  0.0894 -2.0580
   19SAPC  C310 2521   0.349   0.913   8.960  0.2629  0.0420 -0.8425
   19SAPC  H10X 2522   0.347   0.805   8.932  0.2581  0.5600 -3.0269
   19SAPC  H10Y 2523   0.456   0.941   8.973  0.1771 -0.3291  0.9132
   19SAPC  C311 2524   0.278   0.986   8.841 -0.1657  0.4717  0.0987
   19SAPC  H11X 2525   0.306   1.094   8.836 -0.0128  0.4055 -0.6937
   19SAPC  H11Y 2526   0.167   0.978   8.842 -0.4548  3.2460 -0.2427
   19SAPC  C312 2527   0.327   0.913   8.714  0.2234  0.0872 -0.5667
   19SAPC  H12X 2528   0.277   0.815   8.703 -1.3236  0.5659  1.6427
   19SAPC  H12Y 2529   0.436   0.898   8.722  0.7184  3.4063  0.3198
   19SAPC  C313 2530   0.288   1.009   8.604  0.1893  0.7159  0.6687
   19SAPC  H13X 2531   0.348   1.102   8.616  0.1193  0.8292  0.1707
   19SAPC  H13Y 2532   0.178   1.019   8.612 -0.5294 -1.8853 -3.2522
   19SAPC  C314 2533   0.311   0.953   8.461 -0.6818 -0.4028 -1.0130
   19SAPC  H14X 2534   0.264   0.855   8.441 -2.2645  0.4363 -1.5928
   19SAPC  H14Y 2535   0.418   0.926   8.462 -0.8489 -1.2542  1.5078
   19SAPC  C315 2536   0.283   1.053   8.349 -0.4853  0.0817  0.0565
   19SAPC  H15X 2537   0.336   1.148   8.372  1.2361 -0.8518  0.1057
   19SAPC  H15Y 2538   0.173   1.066   8.353 -0.6098 -0.9638  0.3428
   19SAPC  C316 2539   0.335   0.984   8.221 -0.0910  0.2515 -0.4059
   19SAPC  H16X 2540   0.301   0.880   8.206 -0.4524  0.4731 -1.2100
   19SAPC  H16Y 2541   0.444   0.968   8.233 -0.1115  0.8629  0.6730
   19SAPC  C317 2542   0.300   1.065   8.101 -0.3795 -0.9788  1.0264
   19SAPC  H17X 2543   0.347   1.165   8.112 -1.2629  0.1368 -3.4789
   19SAPC  H17Y 2544   0.190   1.081   8.099 -0.2729 -0.2254 -1.3642
   19SAPC  C318 2545   0.335   0.998   7.969  0.0251 -0.2944 -0.4474
   19SAPC  H18X 2546   0.444   0.977   7.965  0.0732 -0.0576 -0.3764
   19SAPC  H18Y 2547   0.318   1.061   7.879  1.1848  0.9009  0.1327
   19SAPC  H18Z 2548   0.286   0.898   7.963  1.3030 -0.8722 -2.6457
   20SAPC     N 2549   0.118   5.383  11.493 -0.0969  0.0649 -0.5362
   20SAPC   C12 2550   0.047   5.390  11.350 -0.2175 -0.0251  0.6916
   20SAPC  H12A 2551   0.026   5.494  11.331 -2.6124 -0.1532  2.2271
   20SAPC  H12B 2552  -0.042   5.332  11.368 -0.3207 -0.3881 -0.9022
   20SAPC   C13 2553   0.238   5.469  11.503 -0.0933 -0.2265 -0.4647
   20SAPC  H13A 2554   0.202   5.570  11.492 -1.4586 -0.5248  0.9718
   20SAPC  H13B 2555   0.273   5.461  11.605 -2.3317  1.0678  0.4676
   20SAPC  H13C 2556   0.324   5.447  11.441 -0.3088  0.6936 -1.1007
   20SAPC   C14 2557   0.021   5.428  11.592  0.3559 -0.2902 -0.4795
   20SAPC  H14A 2558  -0.071   5.374  11.583  0.0443  0.0025  0.8060
   20SAPC  H14B 2559   0.051   5.421  11.695 -0.9197  1.1934  0.0248
   20SAPC  H14C 2560  -0.005   5.533  11.582 -1.1600 -0.6887 -0.9143
   20SAPC   C15 2561   0.156   5.236  11.521  0.8600 -0.0693 -0.7684
   20SAPC  H15A 2562   0.184   5.182  11.431 -2.0700 -0.6086 -1.4557
   20SAPC  H15B 2563   0.242   5.231  11.587  0.4676 -1.1329 -0.3089
   20SAPC  H15C 2564   0.065   5.189  11.555  1.5789 -1.0127 -0.1001
   20SAPC   C11 2565   0.124   5.326  11.226 -0.0697  0.3299  0.0057
   20SAPC  H11A 2566   0.222   5.379  11.220 -1.0255  2.3078  0.9626
   20SAPC  H11B 2567   0.069   5.368  11.139  1.0724  0.8505 -0.4863
   20SAPC     P 2568   0.034   5.094  11.147  0.1793  0.0982  0.2233
   20SAPC   O13 2569   0.096   4.961  11.122 -0.1466  0.7288  0.2945
   20SAPC   O14 2570  -0.094   5.091  11.221  0.4467  0.4124  0.0612
   20SAPC   O12 2571   0.133   5.182  11.232 -0.1347  0.1400 -0.5400
   20SAPC   O11 2572   0.001   5.169  11.009 -0.0113 -0.4577 -0.2351
   20SAPC    C1 2573   0.097   5.183  10.909 -0.1081 -1.0027  0.3847
   20SAPC    HA 2574   0.112   5.293  10.904 -0.4198 -0.7331  3.2776
   20SAPC    HB 2575   0.195   5.134  10.922  0.8599  0.9398  0.8213
   20SAPC    C2 2576   0.053   5.130  10.774 -0.1092 -0.3280  0.7942
   20SAPC    HS 2577  -0.050   5.170  10.763  0.6334  1.0053 -2.5388
   20SAPC   O21 2578   0.066   4.983  10.772 -0.8707  0.1161  0.5215
   20SAPC   C21 2579  -0.051   4.920  10.748  0.1445 -0.0029 -0.1177
   20SAPC   O22 2580  -0.161   4.974  10.731  0.1852 -0.0831 -0.1335
   20SAPC   C22 2581  -0.023   4.771  10.741 -0.8075 -0.0061  0.1716
   20SAPC   H2R 2582   0.070   4.756  10.682 -1.5437  2.1812 -1.6918
   20SAPC   H2S 2583  -0.007   4.744  10.847 -1.1771  0.9528  0.4790
   20SAPC    C3 2584   0.122   5.197  10.655  0.5176  0.0262  0.0522
   20SAPC    HX 2585   0.230   5.180  10.671  1.6405  3.2529 -2.9707
   20SAPC    HY 2586   0.095   5.303  10.673 -0.8136 -0.1922 -0.5344
   20SAPC   O31 2587   0.083   5.150  10.527  0.0636 -0.1726 -0.1795
   20SAPC   C31 2588  -0.041   5.185  10.481 -1.3156 -0.3892 -1.0595
   20SAPC   O32 2589  -0.111   5.264  10.534  0.6295 -0.3679 -0.0586
   20SAPC   C32 2590  -0.081   5.099  10.371 -0.1270  0.4034 -0.7292
   20SAPC   H2X 2591  -0.191   5.108  10.360 -0.2337 -1.0363 -0.9703
   20SAPC   H2Y 2592  -0.061   4.991  10.385  0.5145  0.3240 -2.0585
   20SAPC   C23 2593  -0.137   4.689  10.679  0.0067 -0.2750 -0.2149
   20SAPC   H3R 2594  -0.235   4.682  10.729 -1.2904  0.2324 -2.5233
   20SAPC   H3S 2595  -0.100   4.584  10.681 -2.1085 -1.0700  1.4182
   20SAPC   C24 2596  -0.156   4.713  10.528  0.2430  0.0200  0.3743
   20SAPC   H4R 2597  -0.135   4.623  10.467 -1.9513 -0.5243  0.3456
   20SAPC   H4S 2598  -0.079   4.783  10.489  0.2012 -0.0217  0.2168
   20SAPC   C25 2599  -0.286   4.779  10.509 -0.3360 -0.1855  0.1140
   20SAPC   H5R 2600  -0.313   4.845  10.592  2.6714  0.4632  0.6871
   20SAPC   C26 2601  -0.366   4.781  10.396  0.0226 -0.3324 -0.8516
   20SAPC   H6R 2602  -0.467   4.822  10.408 -1.1456 -2.8298 -1.3993
   20SAPC   C27 2603  -0.331   4.721  10.268  0.1836  0.8713  0.5552
   20SAPC   H7R 2604  -0.385   4.630  10.235  2.0905 -0.2712  0.4208
   20SAPC   H7S 2605  -0.229   4.677  10.265 -1.0935 -2.3577 -1.7862
   20SAPC   C28 2606  -0.345   4.831  10.168  0.1153 -0.8190  0.6104
   20SAPC   H8R 2607  -0.370   4.933  10.203  3.8503  0.7123 -0.6026
   20SAPC   C29 2608  -0.340   4.816  10.036 -0.0269  0.1832 -0.9815
   20SAPC   H9R 2609  -0.371   4.899   9.970  0.1295  1.1780  0.1669
   20SAPC  C210 2610  -0.313   4.682   9.971 -0.1016  0.1399  0.0185
   20SAPC  H10R 2611  -0.381   4.610  10.020 -2.0563  2.1819  0.4409
   20SAPC  H10S 2612  -0.210   4.647   9.997 -1.6527 -2.8988  2.7050
   20SAPC  C211 2613  -0.346   4.679   9.822  0.0281 -0.1935  0.0318
   20SAPC  H11R 2614  -0.454   4.676   9.804 -0.2525  1.2290  1.2813
   20SAPC  C212 2615  -0.265   4.664   9.717 -0.8508 -0.6033  0.1330
   20SAPC  H12R 2616  -0.310   4.660   9.617  0.4660  0.5312 -0.5324
   20SAPC  C213 2617  -0.114   4.652   9.715  0.4192  0.5545 -0.0080
   20SAPC  H13R 2618  -0.098   4.544   9.697  1.8653  0.8500 -0.6197
   20SAPC  H13S 2619  -0.073   4.677   9.816  0.3004 -1.2602  0.5179
   20SAPC  C214 2620  -0.050   4.750   9.615 -0.4949  1.1156 -0.2071
   20SAPC  H14R 2621   0.022   4.819   9.662 -0.2807  0.4260  0.4860
   20SAPC  C215 2622  -0.057   4.756   9.487 -0.0082  0.2017  0.0484
   20SAPC  H15R 2623  -0.003   4.835   9.433 -1.5638  1.9895  1.0175
   20SAPC  C216 2624  -0.140   4.667   9.397 -0.3777  0.1904  0.8762
   20SAPC  H16R 2625  -0.205   4.600   9.457 -2.1679  0.5342 -0.5677
   20SAPC  H16S 2626  -0.080   4.602   9.329 -1.7933 -2.7168  2.2058
   20SAPC  C217 2627  -0.229   4.737   9.296 -0.2464  0.1316 -0.4283
   20SAPC  H17R 2628  -0.233   4.669   9.207  0.6203  1.5037 -1.5583
   20SAPC  H17S 2629  -0.187   4.833   9.261  1.6172 -0.9069 -1.1581
   20SAPC  C218 2630  -0.371   4.768   9.344  0.0288 -0.3033 -0.4869
   20SAPC  H18R 2631  -0.420   4.833   9.268 -1.5556 -1.2923 -0.3594
   20SAPC  H18S 2632  -0.356   4.817   9.442 -0.3653  1.8339 -1.4362
   20SAPC  C219 2633  -0.466   4.657   9.377  0.8308 -0.0679 -0.2607
   20SAPC  H19R 2634  -0.506   4.674   9.479 -2.2996  1.1605 -1.5603
   20SAPC  H19S 2635  -0.424   4.554   9.375 -1.1093 -0.9117 -2.7244
   20SAPC  C220 2636  -0.582   4.659   9.273  0.7969  0.5105  0.3651
   20SAPC  H20R 2637  -0.665   4.589   9.301  2.1622 -0.9888  0.8386
   20SAPC  H20S 2638  -0.538   4.645   9.172 -1.0226 -0.5515 -0.3406
   20SAPC  H20T 2639  -0.618   4.764   9.266 -1.5796 -0.3515 -2.0243
   20SAPC   C33 2640  -0.025   5.142  10.237 -0.0630  0.1844  0.5952
   20SAPC   H3X 2641   0.084   5.129  10.219 -0.1863  1.8043 -1.7763
   20SAPC   H3Y 2642  -0.050   5.250  10.233 -0.2771  0.1254  0.2984
   20SAPC   C34 2643  -0.100   5.072  10.121  0.0490  0.0488  0.2900
   20SAPC   H4X 2644  -0.208   5.098  10.130 -0.4102  0.0852 -3.5118
   20SAPC   H4Y 2645  -0.102   4.961  10.127 -3.6907 -0.0257  0.0020
   20SAPC   C35 2646  -0.071   5.120   9.980 -0.3991  0.5596 -0.7203
   20SAPC   H5X 2647   0.036   5.110   9.954 -0.2054  1.6973 -0.4316
   20SAPC   H5Y 2648  -0.086   5.230   9.968 -1.4633  0.5600  0.3994
   20SAPC   C36 2649  -0.163   5.067   9.869  0.5427  0.2425  0.4980
   20SAPC   H6X 2650  -0.266   5.105   9.888 -0.4035 -1.7424 -0.3271
   20SAPC   H6Y 2651  -0.170   4.956   9.862  0.9846  0.2917 -1.5392
   20SAPC   C37 2652  -0.108   5.117   9.731  0.0952 -0.3250  0.1361
   20SAPC   H7X 2653  -0.131   5.035   9.661 -0.3719  1.4529 -1.9000
   20SAPC   H7Y 2654   0.001   5.137   9.737  0.2853 -1.1631 -0.4320
   20SAPC   C38 2655  -0.183   5.243   9.677 -0.5132  0.1353  0.2979
   20SAPC   H8X 2656  -0.184   5.332   9.743 -3.4667  0.9645 -0.6860
   20SAPC   H8Y 2657  -0.291   5.217   9.675 -0.5670  0.2283 -2.3470
   20SAPC   C39 2658  -0.145   5.280   9.538  0.5678 -1.1814  1.0273
   20SAPC   H9X 2659  -0.171   5.199   9.466 -0.0045 -1.3971  1.4645
   20SAPC   H9Y 2660  -0.034   5.283   9.538  0.7314 -2.7188 -2.6587
   20SAPC  C310 2661  -0.212   5.404   9.480 -0.1133  0.4256  0.5022
   20SAPC  H10X 2662  -0.181   5.484   9.550 -0.9146  0.8266  0.4133
   20SAPC  H10Y 2663  -0.319   5.376   9.488  0.2439 -1.2831 -0.3303
   20SAPC  C311 2664  -0.172   5.439   9.334 -0.2999 -0.2252  0.3444
   20SAPC  H11X 2665  -0.180   5.346   9.273  2.0862  1.3983 -2.7135
   20SAPC  H11Y 2666  -0.066   5.473   9.327  0.1618 -1.6610 -0.0504
   20SAPC  C312 2667  -0.249   5.564   9.287  0.3785 -0.1801  0.6802
   20SAPC  H12X 2668  -0.206   5.603   9.192 -1.1401  2.7459  1.0979
   20SAPC  H12Y 2669  -0.225   5.646   9.359  1.1296  0.3734 -0.1706
   20SAPC  C313 2670  -0.399   5.537   9.254  0.3144 -0.3032 -0.2916
   20SAPC  H13X 2671  -0.454   5.516   9.347 -0.7482  2.1404 -0.3001
   20SAPC  H13Y 2672  -0.413   5.446   9.192 -1.1599 -0.4208  0.1821
   20SAPC  C314 2673  -0.473   5.650   9.183 -0.4364  0.7452  0.2472
   20SAPC  H14X 2674  -0.402   5.685   9.105  2.3092  1.6683  2.9562
   20SAPC  H14Y 2675  -0.478   5.732   9.258 -0.4104 -0.1030  1.2009
   20SAPC  C315 2676  -0.619   5.634   9.149 -0.5669  0.2165  0.1712
   20SAPC  H15X 2677  -0.623   5.550   9.077  0.1051  0.3972 -0.0805
   20SAPC  H15Y 2678  -0.665   5.722   9.099  0.7551  0.9106  0.1408
   20SAPC  C316 2679  -0.700   5.610   9.277 -0.5800 -0.1664  0.1977
   20SAPC  H16X 2680  -0.665   5.677   9.358  2.2308  1.3471 -2.0622
   20SAPC  H16Y 2681  -0.681   5.503   9.300 -1.4106 -0.7533 -1.6335
   20SAPC  C317 2682  -0.847   5.622   9.256 -0.0109 -0.2096 -0.8261
   20SAPC  H17X 2683  -0.878   5.545   9.182 -2.9359 -1.9094  1.9376
   20SAPC  H17Y 2684  -0.860   5.728   9.225 -2.0931 -0.2878 -0.3307
   20SAPC  C318 2685  -0.936   5.607   9.379  0.5797 -1.0083 -0.0931
   20SAPC  H18X 2686  -0.916   5.680   9.461  1.0599 -2.1713  0.8627
   20SAPC  H18Y 2687  -0.925   5.504   9.420  0.3725 -0.1932  2.1419
   20SAPC  H18Z 2688  -1.041   5.615   9.346  0.5739  0.1753  0.1730
   21SAPC     N 2689   5.342   3.107  10.987 -0.3738 -0.4782 -0.3581
   21SAPC   C12 2690   5.258   3.174  10.885  0.4243 -0.5565  0.0733
   21SAPC  H12A 2691   5.188   3.102  10.844  0.0642 -1.2348  1.7703
   21SAPC  H12B 2692   5.323   3.208  10.806 -1.0612  0.5177 -0.7353
   21SAPC   C13 2693   5.426   3.212  11.056 -0.2514  0.5894  0.7566
   21SAPC  H13A 2694   5.472   3.269  10.977 -0.1179  1.7881  1.6802
   21SAPC  H13B 2695   5.361   3.286  11.101  1.6343  2.4656  0.5653
   21SAPC  H13C 2696   5.497   3.175  11.128  0.7704  0.1140 -0.4557
   21SAPC   C14 2697   5.254   3.033  11.084  0.8277  0.0897  0.0474
   21SAPC  H14A 2698   5.191   3.094  11.148  0.1445 -0.5535  0.0037
   21SAPC  H14B 2699   5.183   2.975  11.027  0.5182  0.0767  0.4442
   21SAPC  H14C 2700   5.309   2.969  11.151 -2.0498 -1.2606  1.2800
   21SAPC   C15 2701   5.434   2.996  10.929  0.2661 -0.2152  0.7323
   21SAPC  H15A 2702   5.503   2.962  11.005 -0.2178 -0.8394  0.9042
   21SAPC  H15B 2703   5.367   2.917  10.899  1.8445 -0.6098 -2.2219
   21SAPC  H15C 2704   5.491   3.028  10.842 -0.1050  0.0697  0.5920
   21SAPC   C11 2705   5.179   3.290  10.929 -0.4827 -0.1498 -0.7488
   21SAPC  H11A 2706   5.135   3.280  11.030 -0.1203  2.1329 -0.3243
   21SAPC  H11B 2707   5.085   3.301  10.870  0.9629  0.7203 -3.0068
   21SAPC     P 2708   5.210   3.540  10.972  0.1509 -0.1646  0.4180
   21SAPC   O13 2709   5.172   3.518  11.110  0.2012 -0.2193 -0.0401
   21SAPC   O14 2710   5.313   3.649  10.954 -0.0154 -0.2295 -0.4302
   21SAPC   O12 2711   5.256   3.408  10.907  0.1611 -0.0321  0.2585
   21SAPC   O11 2712   5.080   3.580  10.892  0.1222  0.4446 -0.0106
   21SAPC    C1 2713   5.057   3.570  10.750  0.1641  0.0341 -0.7437
   21SAPC    HA 2714   5.134   3.515  10.691  0.1555 -0.1246 -0.6074
   21SAPC    HB 2715   4.971   3.505  10.721  0.5618 -0.9470  0.2123
   21SAPC    C2 2716   5.047   3.707  10.688  0.1482  0.1662 -0.0978
   21SAPC    HS 2717   5.093   3.781  10.756  1.5249  1.2510 -2.0948
   21SAPC   O21 2718   4.903   3.730  10.662  0.0150  0.6591 -0.9464
   21SAPC   C21 2719   4.880   3.863  10.671  0.4345  0.1523  0.0549
   21SAPC   O22 2720   4.963   3.951  10.681  0.0487  0.3383  0.3831
   21SAPC   C22 2721   4.733   3.889  10.673  0.7625  0.3483 -0.0572
   21SAPC   H2R 2722   4.669   3.839  10.749  0.8415 -0.2859 -0.4082
   21SAPC   H2S 2723   4.716   3.999  10.679 -1.4899  0.1592 -1.6527
   21SAPC    C3 2724   5.122   3.705  10.549  0.1928  0.6782 -0.9018
   21SAPC    HX 2725   5.088   3.610  10.501  2.0532  0.3874 -1.7685
   21SAPC    HY 2726   5.230   3.689  10.572 -0.0396  0.8852  0.3821
   21SAPC   O31 2727   5.098   3.818  10.467 -0.3959  0.2160  0.9262
   21SAPC   C31 2728   5.185   3.913  10.471 -0.0853 -0.7069 -0.2915
   21SAPC   O32 2729   5.289   3.914  10.536  0.3316 -0.5442 -0.1315
   21SAPC   C32 2730   5.132   4.033  10.385 -0.5433 -0.2231  0.4254
   21SAPC   H2X 2731   5.212   4.110  10.381 -1.7470  1.0156 -0.7388
   21SAPC   H2Y 2732   5.038   4.069  10.432 -0.6710 -1.9689  1.5943
   21SAPC   C23 2733   4.674   3.849  10.530 -0.6463  0.0409 -0.5053
   21SAPC   H3R 2734   4.568   3.882  10.527 -0.6352  0.0873 -3.8339
   21SAPC   H3S 2735   4.675   3.739  10.516 -1.6516  0.0261 -0.5568
   21SAPC   C24 2736   4.750   3.917  10.412 -0.1755 -0.6048  0.0179
   21SAPC   H4R 2737   4.726   3.855  10.322  3.5017 -0.1886 -1.4190
   21SAPC   H4S 2738   4.860   3.904  10.417  0.1326  0.8461 -1.8261
   21SAPC   C25 2739   4.717   4.065  10.410 -0.1523 -0.2790  0.3830
   21SAPC   H5R 2740   4.729   4.122  10.503  1.4420 -1.3287  0.8599
   21SAPC   C26 2741   4.691   4.134  10.301  0.2178 -0.3698 -0.0085
   21SAPC   H6R 2742   4.674   4.242  10.315  2.6912  0.0988 -0.1466
   21SAPC   C27 2743   4.673   4.087  10.163 -0.3438 -0.1608  0.9209
   21SAPC   H7R 2744   4.602   4.158  10.117  1.1474  0.3580 -0.6896
   21SAPC   H7S 2745   4.632   3.984  10.170  1.8095 -1.1113  0.4673
   21SAPC   C28 2746   4.799   4.093  10.080 -0.7746  0.6963  1.0408
   21SAPC   H8R 2747   4.895   4.099  10.134  0.4766 -4.0836 -0.1781
   21SAPC   C29 2748   4.816   4.079   9.947  0.4264  0.1654  0.0035
   21SAPC   H9R 2749   4.912   4.095   9.896  1.1111 -0.3365  1.1299
   21SAPC  C210 2750   4.696   4.056   9.852  0.4996  1.0495 -0.1303
   21SAPC  H10R 2751   4.675   4.148   9.795 -2.8912  0.7589  0.4295
   21SAPC  H10S 2752   4.601   4.035   9.906 -0.9614  2.9547 -1.8108
   21SAPC  C211 2753   4.718   3.939   9.763 -0.2295  0.6912  0.3606
   21SAPC  H11R 2754   4.738   3.845   9.816  0.9009  0.3809 -0.5814
   21SAPC  C212 2755   4.730   3.938   9.628  0.4587  0.3471 -0.0831
   21SAPC  H12R 2756   4.742   3.837   9.584  1.3461 -0.4002  1.7627
   21SAPC  C213 2757   4.719   4.053   9.523  0.4678 -0.5509 -0.0855
   21SAPC  H13R 2758   4.662   4.138   9.565 -0.6875 -0.6002 -1.4921
   21SAPC  H13S 2759   4.646   4.031   9.443 -1.3827 -1.1083  1.6712
   21SAPC  C214 2760   4.852   4.105   9.472  0.1752  0.2301 -0.2129
   21SAPC  H14R 2761   4.926   4.111   9.554 -2.1244  1.7173  1.8862
   21SAPC  C215 2762   4.889   4.128   9.347  0.0564  0.6718 -1.5566
   21SAPC  H15R 2763   4.980   4.188   9.332  1.6050 -0.9955  0.4735
   21SAPC  C216 2764   4.808   4.116   9.216 -0.6117 -0.5996 -0.0137
   21SAPC  H16R 2765   4.709   4.072   9.240 -0.8847  0.1954  0.3275
   21SAPC  H16S 2766   4.859   4.047   9.144  1.0617  1.1561 -0.5884
   21SAPC  C217 2767   4.788   4.247   9.140  0.0334 -0.3108  0.1826
   21SAPC  H17R 2768   4.891   4.279   9.111  0.2912 -0.3981  0.9698
   21SAPC  H17S 2769   4.749   4.326   9.208 -0.8918  0.5355 -1.2760
   21SAPC  C218 2770   4.706   4.243   9.012  0.0277  0.2042  0.1522
   21SAPC  H18R 2771   4.771   4.191   8.938 -0.3984 -0.8936  0.5367
   21SAPC  H18S 2772   4.680   4.335   8.955  0.3724 -1.0698 -2.1546
   21SAPC  C219 2773   4.574   4.154   9.017  0.0267  0.1308 -0.0764
   21SAPC  H19R 2774   4.494   4.213   9.068  0.1871 -0.8149  1.3420
   21SAPC  H19S 2775   4.589   4.057   9.068  3.0661  1.6312  2.2218
   21SAPC  C220 2776   4.530   4.116   8.877 -0.0453  0.4848  0.5243
   21SAPC  H20R 2777   4.424   4.082   8.885 -0.0489  0.5257  0.6417
   21SAPC  H20S 2778   4.601   4.045   8.829 -1.1999 -0.0255 -0.4882
   21SAPC  H20T 2779   4.532   4.212   8.821 -1.0670  0.1937 -0.0395
   21SAPC   C33 2780   5.118   3.997  10.232  0.0767  0.3183 -0.1461
   21SAPC   H3X 2781   5.101   4.095  10.183  1.1161  0.4076 -0.3587
   21SAPC   H3Y 2782   5.028   3.933  10.216  0.6732 -0.3127 -1.0939
   21SAPC   C34 2783   5.248   3.934  10.174  0.3275 -0.0830 -0.7743
   21SAPC   H4X 2784   5.263   3.847  10.240  0.0995 -0.6093 -1.4013
   21SAPC   H4Y 2785   5.319   4.019  10.182 -0.2989  0.2958  1.5436
   21SAPC   C35 2786   5.226   3.886  10.034 -0.2543  0.3166  0.6065
   21SAPC   H5X 2787   5.138   3.819  10.026 -1.4719  2.0371 -1.8806
   21SAPC   H5Y 2788   5.319   3.835  10.000 -1.3177 -2.5370  1.6858
   21SAPC   C36 2789   5.224   4.008   9.938 -0.4818  0.5347  0.4760
   21SAPC   H6X 2790   5.289   4.084   9.987 -1.3438  1.6879 -0.1196
   21SAPC   H6Y 2791   5.129   4.064   9.954  1.7099  4.2143  2.0550
   21SAPC   C37 2792   5.244   3.978   9.790  0.8102 -0.1312 -0.2856
   21SAPC   H7X 2793   5.344   3.930   9.781  0.8472 -0.2389  0.6143
   21SAPC   H7Y 2794   5.239   4.069   9.726 -1.3150  1.2767  1.7581
   21SAPC   C38 2795   5.127   3.903   9.737 -0.0975 -0.5364 -0.2021
   21SAPC   H8X 2796   5.037   3.965   9.757  0.1632 -0.2835  0.2150
   21SAPC   H8Y 2797   5.120   3.810   9.798 -2.3536  0.6979  1.5445
   21SAPC   C39 2798   5.123   3.882   9.586 -0.5072 -0.0265  0.5049
   21SAPC   H9X 2799   5.141   3.980   9.536 -1.1705 -0.1165  0.0869
   21SAPC   H9Y 2800   5.020   3.846   9.569 -0.4505  0.7868 -1.9399
   21SAPC  C310 2801   5.230   3.783   9.541 -0.2450  0.0717 -0.1943
   21SAPC  H10X 2802   5.194   3.683   9.574 -2.0404  0.3997 -1.0341
   21SAPC  H10Y 2803   5.330   3.805   9.585 -0.2067 -0.0064 -0.2437
   21SAPC  C311 2804   5.239   3.781   9.381 -0.5758  0.2639 -0.5512
   21SAPC  H11X 2805   5.271   3.874   9.330  2.4766 -0.2842  0.1414
   21SAPC  H11Y 2806   5.137   3.757   9.344  0.0024  1.6267 -3.2580
   21SAPC  C312 2807   5.343   3.680   9.328  0.3011 -0.4802 -0.5568
   21SAPC  H12X 2808   5.289   3.590   9.291 -0.7292 -1.8972  3.8770
   21SAPC  H12Y 2809   5.402   3.652   9.418  1.0814  2.1874 -0.1603
   21SAPC  C313 2810   5.435   3.738   9.215 -0.1498  0.5714 -0.2659
   21SAPC  H13X 2811   5.496   3.821   9.257  0.7041  1.1700 -2.5791
   21SAPC  H13Y 2812   5.376   3.791   9.137  0.5603  0.2380 -1.0367
   21SAPC  C314 2813   5.525   3.631   9.155  0.4801 -0.4951 -0.2071
   21SAPC  H14X 2814   5.513   3.528   9.194  2.4389 -1.0362 -0.9037
   21SAPC  H14Y 2815   5.633   3.652   9.171  0.5599 -0.7123 -0.4578
   21SAPC  C315 2816   5.519   3.612   9.002  0.2581 -0.3807  0.3315
   21SAPC  H15X 2817   5.513   3.713   8.957 -1.4659 -0.7619 -0.3781
   21SAPC  H15Y 2818   5.425   3.558   8.979  1.7835 -2.3363 -1.7725
   21SAPC  C316 2819   5.632   3.534   8.940  0.4909 -0.0121  0.1606
   21SAPC  H16X 2820   5.684   3.449   8.990  3.0610  1.0675 -0.5439
   21SAPC  H16Y 2821   5.708   3.615   8.940 -0.7091  1.1623  1.0459
   21SAPC  C317 2822   5.597   3.492   8.790 -0.3818  0.9916 -0.0755
   21SAPC  H17X 2823   5.513   3.419   8.789 -0.9217  1.6055  0.1825
   21SAPC  H17Y 2824   5.688   3.430   8.771 -1.5004 -2.2616  3.7276
   21SAPC  C318 2825   5.578   3.613   8.693 -0.0015  0.5389  0.5575
   21SAPC  H18X 2826   5.478   3.659   8.707 -1.0117 -0.5697 -2.2466
   21SAPC  H18Y 2827   5.592   3.578   8.588 -0.0738 -0.6433  0.9398
   21SAPC  H18Z 2828   5.667   3.674   8.721  1.0658 -2.2376  3.8970
   22SAPC     N 2829   4.213   0.623  11.320  0.4197  0.2405  0.0638
   22SAPC   C12 2830   4.211   0.738  11.222 -0.0265 -0.6663 -0.4402
   22SAPC  H12A 2831   4.300   0.796  11.241 -0.2698 -0.4295 -0.0137
   22SAPC  H12B 2832   4.123   0.792  11.254  0.3892 -0.9097  1.2027
   22SAPC   C13 2833   4.321   0.529  11.278  0.4522 -0.3804 -0.3822
   22SAPC  H13A 2834   4.317   0.428  11.316  0.7936 -0.4374 -0.4983
   22SAPC  H13B 2835   4.311   0.518  11.171  0.5165  0.6866 -0.5087
   22SAPC  H13C 2836   4.418   0.575  11.291 -0.4123  1.6412 -0.5566
   22SAPC   C14 2837   4.238   0.675  11.462  1.0287 -0.2523 -0.3399
   22SAPC  H14A 2838   4.236   0.590  11.528  0.8690 -0.0594 -0.0976
   22SAPC  H14B 2839   4.328   0.734  11.473  1.5702 -1.2253  0.5959
   22SAPC  H14C 2840   4.164   0.748  11.492 -0.0214 -0.9896 -1.0486
   22SAPC   C15 2841   4.074   0.555  11.314  0.7489 -0.4661 -0.6450
   22SAPC  H15A 2842   4.082   0.469  11.380  2.1692  0.4822  0.4732
   22SAPC  H15B 2843   3.998   0.623  11.349  0.0718 -1.6023  0.1652
   22SAPC  H15C 2844   4.055   0.508  11.219  0.2269  0.6080 -1.0858
   22SAPC   C11 2845   4.192   0.716  11.067  0.7608 -0.0963  0.2391
   22SAPC  H11A 2846   4.258   0.635  11.030 -0.8140 -1.3797  0.1216
   22SAPC  H11B 2847   4.234   0.804  11.014  0.2725  0.7709  1.2595
   22SAPC     P 2848   3.960   0.802  11.035  0.2924 -0.2182 -0.2257
   22SAPC   O13 2849   3.819   0.742  11.041 -0.4690 -0.6348  0.1302
   22SAPC   O14 2850   4.008   0.898  11.135  0.6839 -0.3063 -0.1451
   22SAPC   O12 2851   4.060   0.679  11.027  0.5368  0.2853  1.5465
   22SAPC   O11 2852   3.983   0.876  10.898 -0.4262  0.2072  1.2570
   22SAPC    C1 2853   3.923   0.822  10.779 -0.2107  0.8138 -0.3330
   22SAPC    HA 2854   3.906   0.713  10.791  1.3537  0.6901  1.1761
   22SAPC    HB 2855   3.820   0.862  10.770 -0.2488  0.7456 -0.2053
   22SAPC    C2 2856   4.012   0.837  10.652 -0.4325  0.4368  0.0991
   22SAPC    HS 2857   4.011   0.945  10.627 -0.2791  0.5458  0.5523
   22SAPC   O21 2858   3.970   0.753  10.538  0.4103  0.8975  0.3609
   22SAPC   C21 2859   3.864   0.799  10.473  0.4964  0.1025 -0.3541
   22SAPC   O22 2860   3.828   0.912  10.464 -0.3648 -0.3056 -0.5703
   22SAPC   C22 2861   3.780   0.693  10.424  0.7179 -0.6830 -0.2012
   22SAPC   H2R 2862   3.783   0.606  10.493 -0.7625 -0.5478  0.0541
   22SAPC   H2S 2863   3.675   0.728  10.419 -0.3251 -3.7112 -1.4377
   22SAPC    C3 2864   4.162   0.805  10.688 -0.0099 -0.0712  0.5605
   22SAPC    HX 2865   4.181   0.696  10.679  4.1877  0.5167  0.3446
   22SAPC    HY 2866   4.189   0.832  10.793  1.8266 -0.9582  0.3548
   22SAPC   O31 2867   4.253   0.876  10.594  0.0116 -0.6974  0.3757
   22SAPC   C31 2868   4.378   0.862  10.624 -0.1930  0.4236  1.0149
   22SAPC   O32 2869   4.421   0.792  10.717 -0.0353  0.2473  0.1386
   22SAPC   C32 2870   4.461   0.942  10.527 -0.4914 -0.2465 -0.3102
   22SAPC   H2X 2871   4.460   1.045  10.568  0.0880 -1.2497  2.3820
   22SAPC   H2Y 2872   4.414   0.952  10.426  0.7125  1.2636 -0.7633
   22SAPC   C23 2873   3.844   0.651  10.282  0.1033  0.3506 -0.4850
   22SAPC   H3R 2874   3.948   0.616  10.302 -0.4026 -1.3202 -0.5591
   22SAPC   H3S 2875   3.833   0.729  10.204 -1.1035 -0.1631 -0.8688
   22SAPC   C24 2876   3.775   0.523  10.228  0.4033 -0.8833  0.0497
   22SAPC   H4R 2877   3.668   0.539  10.203  0.4056 -3.3202 -1.8453
   22SAPC   H4S 2878   3.770   0.446  10.308  0.4349 -0.8379  0.0956
   22SAPC   C25 2879   3.834   0.474  10.094 -0.0505  0.8975 -0.3010
   22SAPC   H5R 2880   3.925   0.412  10.093 -0.1314  0.7604  0.3899
   22SAPC   C26 2881   3.786   0.508   9.976  0.0877 -0.5545  0.5108
   22SAPC   H6R 2882   3.833   0.477   9.881 -1.4457  3.6626 -1.9394
   22SAPC   C27 2883   3.666   0.597   9.940 -0.5459 -0.3664 -0.2641
   22SAPC   H7R 2884   3.646   0.653  10.034  1.3170 -0.7536  0.4151
   22SAPC   H7S 2885   3.574   0.538   9.919 -1.0377  0.2150  0.1924
   22SAPC   C28 2886   3.699   0.696   9.824  0.4830 -0.3717 -0.5213
   22SAPC   H8R 2887   3.794   0.747   9.845  0.0991 -0.0536  0.5141
   22SAPC   C29 2888   3.648   0.720   9.703  0.9648  0.1113 -0.0110
   22SAPC   H9R 2889   3.715   0.793   9.654  2.8678 -1.1619  0.5865
   22SAPC  C210 2890   3.527   0.679   9.620  0.4059  0.4815 -0.3024
   22SAPC  H10R 2891   3.503   0.570   9.617  1.0539  0.3482 -1.8034
   22SAPC  H10S 2892   3.543   0.713   9.516  1.6276  1.5447  0.2053
   22SAPC  C211 2893   3.392   0.726   9.683 -0.3606 -0.4411  0.3169
   22SAPC  H11R 2894   3.415   0.765   9.783 -1.8882  1.7454 -0.1045
   22SAPC  C212 2895   3.269   0.752   9.630  0.6209 -0.0809  0.4657
   22SAPC  H12R 2896   3.186   0.797   9.687 -0.3999 -1.0648 -0.2262
   22SAPC  C213 2897   3.235   0.741   9.485 -0.6747 -0.1282  0.1270
   22SAPC  H13R 2898   3.148   0.671   9.483  0.1337 -1.1662 -2.0132
   22SAPC  H13S 2899   3.319   0.688   9.435 -0.4579 -0.9571  1.3234
   22SAPC  C214 2900   3.191   0.862   9.408  0.1253  0.0373 -0.1842
   22SAPC  H14R 2901   3.187   0.961   9.458  3.2138  0.8316 -1.2312
   22SAPC  C215 2902   3.150   0.857   9.275 -0.1305  0.5146 -0.1633
   22SAPC  H15R 2903   3.145   0.953   9.222  0.6098  0.4244 -0.4039
   22SAPC  C216 2904   3.160   0.741   9.176 -0.6818 -0.3031 -1.0697
   22SAPC  H16R 2905   3.075   0.739   9.104 -1.3331  1.5507 -0.4237
   22SAPC  H16S 2906   3.163   0.642   9.228  0.9890 -0.3617 -1.2370
   22SAPC  C217 2907   3.286   0.756   9.092 -1.3793  0.5695 -0.3095
   22SAPC  H17R 2908   3.306   0.669   9.026  1.0262  0.8647 -0.0397
   22SAPC  H17S 2909   3.382   0.751   9.147 -1.5759  2.7426  0.3386
   22SAPC  C218 2910   3.288   0.879   9.002  0.6319 -0.6568  0.0905
   22SAPC  H18R 2911   3.301   0.971   9.063  1.6323  0.6637 -2.0080
   22SAPC  H18S 2912   3.188   0.882   8.952  0.9391  0.1599 -0.4992
   22SAPC  C219 2913   3.378   0.870   8.888 -0.7698 -0.4767  0.1643
   22SAPC  H19R 2914   3.366   0.965   8.833 -1.0181 -0.7259 -0.2110
   22SAPC  H19S 2915   3.352   0.784   8.822  3.3837 -2.1973  0.4312
   22SAPC  C220 2916   3.523   0.844   8.925  0.2891  0.6486 -0.3760
   22SAPC  H20R 2917   3.562   0.935   8.975 -0.5787  0.0367  1.5013
   22SAPC  H20S 2918   3.568   0.811   8.829  0.8469 -0.3884  0.2248
   22SAPC  H20T 2919   3.513   0.768   9.005 -0.8942  0.8456 -0.3193
   22SAPC   C33 2920   4.599   0.888  10.506 -0.4210  0.3066  0.2061
   22SAPC   H3X 2921   4.599   0.778  10.492  2.6873 -0.1604  2.6746
   22SAPC   H3Y 2922   4.667   0.906  10.592  0.0339 -0.8615  0.1082
   22SAPC   C34 2923   4.676   0.965  10.387 -0.4666  0.8191 -0.6069
   22SAPC   H4X 2924   4.782   0.933  10.399 -0.9192  0.2431  2.7950
   22SAPC   H4Y 2925   4.673   1.075  10.403 -0.3079  0.2890  4.3500
   22SAPC   C35 2926   4.623   0.924  10.251 -1.4087 -0.4250 -0.0349
   22SAPC   H5X 2927   4.520   0.963  10.237 -1.2233 -0.4107 -1.5249
   22SAPC   H5Y 2928   4.618   0.814  10.236  0.3594 -1.3941  4.5939
   22SAPC   C36 2929   4.706   0.983  10.137  0.9665  0.0987  0.3712
   22SAPC   H6X 2930   4.803   0.929  10.142  1.1052  0.4471  1.7398
   22SAPC   H6Y 2931   4.716   1.088  10.171  2.8869 -0.9449  3.4828
   22SAPC   C37 2932   4.631   0.965  10.002  0.1417  1.0269  0.0626
   22SAPC   H7X 2933   4.529   1.009  10.005 -1.0827 -1.7135  2.3274
   22SAPC   H7Y 2934   4.626   0.859   9.972 -2.5991  0.4918  2.0584
   22SAPC   C38 2935   4.707   1.054   9.893  0.1239  0.1190 -0.3278
   22SAPC   H8X 2936   4.807   1.005   9.895 -0.1094 -0.4932 -2.2283
   22SAPC   H8Y 2937   4.725   1.159   9.925  1.1721 -0.1203 -0.0807
   22SAPC   C39 2938   4.646   1.039   9.758 -0.0607 -0.0312  0.4077
   22SAPC   H9X 2939   4.550   1.093   9.764 -0.0980 -0.0550  0.0530
   22SAPC   H9Y 2940   4.624   0.934   9.729  0.0924  0.1896 -0.5419
   22SAPC  C310 2941   4.720   1.094   9.642  0.3002 -0.1483  1.1261
   22SAPC  H10X 2942   4.830   1.105   9.656  0.3856  0.0297  0.3459
   22SAPC  H10Y 2943   4.688   1.196   9.611  0.3635 -0.2211  0.8218
   22SAPC  C311 2944   4.722   0.990   9.523 -0.0023 -0.7080  0.5787
   22SAPC  H11X 2945   4.617   0.983   9.489  0.3841 -0.1611 -0.7667
   22SAPC  H11Y 2946   4.751   0.886   9.552  1.1032 -0.1907  1.3954
   22SAPC  C312 2947   4.804   1.054   9.404  0.3343  0.0185 -0.5604
   22SAPC  H12X 2948   4.911   1.046   9.434  0.2663 -0.9875 -0.5467
   22SAPC  H12Y 2949   4.786   1.164   9.406 -2.2402 -0.3429  0.9598
   22SAPC  C313 2950   4.772   0.976   9.279 -0.8649 -0.5503 -0.1676
   22SAPC  H13X 2951   4.662   0.984   9.272 -0.7139  1.9440 -0.7086
   22SAPC  H13Y 2952   4.812   0.872   9.287 -0.9627 -0.5979 -0.3099
   22SAPC  C314 2953   4.844   1.041   9.151  0.0286  0.0044  0.0257
   22SAPC  H14X 2954   4.817   1.148   9.157 -2.2965 -0.6193  2.7811
   22SAPC  H14Y 2955   4.786   0.997   9.067  0.2440 -3.9180  1.7352
   22SAPC  C315 2956   4.995   1.003   9.144  0.2594  1.1891 -0.9837
   22SAPC  H15X 2957   5.000   0.892   9.147  0.8409  1.2116 -0.9490
   22SAPC  H15Y 2958   5.040   1.031   9.241  2.2737 -2.6828 -0.5698
   22SAPC  C316 2959   5.073   1.041   9.026  0.1653 -0.0794 -0.1701
   22SAPC  H16X 2960   5.061   1.149   9.003 -4.1263 -0.7506 -1.9890
   22SAPC  H16Y 2961   5.022   1.006   8.934 -2.5189  0.2357  1.1064
   22SAPC  C317 2962   5.220   1.001   9.032  0.2228  0.7342 -0.3450
   22SAPC  H17X 2963   5.227   0.891   9.052 -1.6036  0.4947 -0.8792
   22SAPC  H17Y 2964   5.270   1.062   9.110  0.1383  1.4757 -0.8615
   22SAPC  C318 2965   5.296   1.031   8.899 -0.1177 -0.5847  0.5255
   22SAPC  H18X 2966   5.296   1.137   8.866 -0.4489 -1.1921 -1.4996
   22SAPC  H18Y 2967   5.248   0.977   8.816 -0.5090  0.4566  0.0579
   22SAPC  H18Z 2968   5.398   0.989   8.917 -0.0749 -1.7996 -2.1666
   23SAPC     N 2969   6.047   1.891  11.305  0.7651 -0.7532 -0.5494
   23SAPC   C12 2970   6.036   1.946  11.162  0.1203 -0.2180 -0.5575
   23SAPC  H12A 2971   6.091   2.039  11.158  0.0907 -0.0916  1.2882
   23SAPC  H12B 2972   5.929   1.957  11.154  0.1274 -0.0774 -0.4402
   23SAPC   C13 2973   6.002   1.753  11.321 -0.2557  0.0257 -0.4601
   23SAPC  H13A 2974   6.060   1.687  11.258 -2.0326 -2.8072  0.6422
   23SAPC  H13B 2975   6.019   1.713  11.420  2.1329  1.3308 -0.2652
   23SAPC  H13C 2976   5.899   1.731  11.296 -0.7492  0.3525  1.2008
   23SAPC   C14 2977   6.194   1.906  11.339  0.1045  0.9609 -0.4355
   23SAPC  H14A 2978   6.192   1.874  11.442 -1.2112 -1.0561 -1.0327
   23SAPC  H14B 2979   6.258   1.839  11.284  0.8321  1.2362  0.0578
   23SAPC  H14C 2980   6.232   2.007  11.332  4.2145 -0.2026  1.7997
   23SAPC   C15 2981   5.965   1.980  11.394  0.7116  0.2418  0.4253
   23SAPC  H15A 2982   6.007   2.080  11.389 -0.8678  0.8715 -1.2177
   23SAPC  H15B 2983   5.863   1.982  11.361  0.1748 -2.9487  1.5519
   23SAPC  H15C 2984   5.974   1.951  11.498  2.4004 -1.5484 -0.1588
   23SAPC   C11 2985   6.088   1.853  11.049  0.3627 -1.1630  0.0675
   23SAPC  H11A 2986   6.056   1.889  10.949  0.9197  1.5229  0.7618
   23SAPC  H11B 2987   6.042   1.752  11.054  0.9636 -1.3962  1.5004
   23SAPC     P 2988   6.326   1.944  11.005 -0.1692 -0.3281  0.2159
   23SAPC   O13 2989   6.297   2.082  11.048  0.6249 -0.3081  0.1601
   23SAPC   O14 2990   6.465   1.911  11.031 -0.1979  0.3021 -0.4520
   23SAPC   O12 2991   6.229   1.836  11.056  0.9282  0.0194  0.6169
   23SAPC   O11 2992   6.313   1.942  10.846 -0.2967  0.5822 -0.2901
   23SAPC    C1 2993   6.214   2.012  10.771  0.1582  0.0803 -0.2071
   23SAPC    HA 2994   6.132   1.943  10.739 -0.8257  0.3121  1.6375
   23SAPC    HB 2995   6.150   2.072  10.839 -1.2457  1.1402 -2.3531
   23SAPC    C2 2996   6.274   2.102  10.669 -0.1757  0.3093  0.7531
   23SAPC    HS 2997   6.214   2.186  10.628  1.1514  0.1819 -1.5955
   23SAPC   O21 2998   6.327   2.024  10.556 -0.2703 -0.0661 -0.7700
   23SAPC   C21 2999   6.239   1.961  10.489 -0.0264  0.3197  0.4787
   23SAPC   O22 3000   6.118   1.987  10.491  0.4820 -0.4431  0.4005
   23SAPC   C22 3001   6.305   1.843  10.413  0.1400 -0.4433  0.2137
   23SAPC   H2R 3002   6.403   1.822  10.460  1.1534  4.0321  0.4858
   23SAPC   H2S 3003   6.241   1.754  10.434  2.1487 -2.3054 -1.0810
   23SAPC    C3 3004   6.398   2.182  10.737  0.2189  0.3692  0.0778
   23SAPC    HX 3005   6.464   2.105  10.782 -1.1422 -2.2556 -2.0870
   23SAPC    HY 3006   6.347   2.244  10.814 -1.2847 -1.1095  0.3256
   23SAPC   O31 3007   6.459   2.265  10.634 -0.4286  0.6652  0.0927
   23SAPC   C31 3008   6.425   2.389  10.630  0.0691  0.8688  0.7420
   23SAPC   O32 3009   6.327   2.440  10.681  0.3844  0.0934 -0.1510
   23SAPC   C32 3010   6.527   2.472  10.544  0.4375 -0.0352 -0.0127
   23SAPC   H2X 3011   6.553   2.407  10.458 -0.6241  1.3397 -1.4259
   23SAPC   H2Y 3012   6.616   2.484  10.611 -1.6897  2.1329  2.6832
   23SAPC   C23 3013   6.319   1.867  10.261 -0.6474 -0.3239 -0.0553
   23SAPC   H3R 3014   6.338   1.976  10.249  0.2862 -0.6252 -1.6412
   23SAPC   H3S 3015   6.223   1.849  10.208 -1.1476  0.5685  0.5115
   23SAPC   C24 3016   6.431   1.786  10.198  0.7282  0.1751  0.4372
   23SAPC   H4R 3017   6.525   1.828  10.240 -0.8718  2.0138  2.4414
   23SAPC   H4S 3018   6.433   1.805  10.089  0.9659 -0.0140  0.4061
   23SAPC   C25 3019   6.434   1.643  10.237 -0.3577  0.3653 -0.0968
   23SAPC   H5R 3020   6.429   1.619  10.345 -0.5398  2.5287  0.4234
   23SAPC   C26 3021   6.421   1.543  10.145  0.2344 -0.0625 -0.8654
   23SAPC   H6R 3022   6.433   1.438  10.177 -0.4151 -0.0846 -0.6797
   23SAPC   C27 3023   6.414   1.559   9.996  0.3585  0.0170 -0.5515
   23SAPC   H7R 3024   6.460   1.471   9.948 -0.7200 -0.4912 -0.6917
   23SAPC   H7S 3025   6.488   1.636   9.966 -0.1992  1.4467  1.5356
   23SAPC   C28 3026   6.275   1.603   9.941  0.6735  0.3788  0.1278
   23SAPC   H8R 3027   6.196   1.568  10.010 -0.1077 -3.3597 -2.4057
   23SAPC   C29 3028   6.246   1.668   9.826 -0.3306 -0.5182 -0.1507
   23SAPC   H9R 3029   6.142   1.693   9.798  0.1931  0.8255 -1.0350
   23SAPC  C210 3030   6.347   1.709   9.715 -0.0625  0.2206 -0.6410
   23SAPC  H10R 3031   6.450   1.735   9.748  0.5977  0.8274 -3.0112
   23SAPC  H10S 3032   6.310   1.804   9.669 -1.6297  0.2369  0.5554
   23SAPC  C211 3033   6.344   1.600   9.612 -0.0742 -0.1331 -0.1724
   23SAPC  H11R 3034   6.360   1.500   9.656  1.3999 -0.8036 -2.0771
   23SAPC  C212 3035   6.322   1.602   9.481  0.4008  0.4362  0.0471
   23SAPC  H12R 3036   6.326   1.502   9.436 -2.1116 -0.0588  0.7404
   23SAPC  C213 3037   6.290   1.719   9.393  0.1731  0.3399 -0.4189
   23SAPC  H13R 3038   6.382   1.726   9.332  0.1649 -3.1606 -1.0445
   23SAPC  H13S 3039   6.284   1.815   9.449 -2.5495 -0.0455  0.1300
   23SAPC  C214 3040   6.172   1.698   9.300  0.4077  0.2788 -0.1471
   23SAPC  H14R 3041   6.075   1.720   9.347 -0.6846 -0.7183 -1.8240
   23SAPC  C215 3042   6.171   1.678   9.167  0.0461  0.0069 -0.0656
   23SAPC  H15R 3043   6.076   1.673   9.112 -0.3553 -1.7770  0.7061
   23SAPC  C216 3044   6.290   1.660   9.082  0.3014  0.1701 -0.2650
   23SAPC  H16R 3045   6.271   1.566   9.025  0.4701 -1.0298  1.6016
   23SAPC  H16S 3046   6.389   1.635   9.127  0.2268 -1.5847 -0.9705
   23SAPC  C217 3047   6.310   1.761   8.968  0.7192 -0.2214  0.7090
   23SAPC  H17R 3048   6.317   1.865   9.007  0.3249  0.4661 -0.9676
   23SAPC  H17S 3049   6.224   1.748   8.898 -0.4052  1.7178  1.6493
   23SAPC  C218 3050   6.430   1.726   8.888  0.1268  0.1005  0.0711
   23SAPC  H18R 3051   6.407   1.634   8.831 -2.6891  2.0918 -2.3267
   23SAPC  H18S 3052   6.508   1.713   8.966 -0.7943 -0.2048  0.9747
   23SAPC  C219 3053   6.471   1.831   8.783  0.1518  0.0956  0.0513
   23SAPC  H19R 3054   6.539   1.786   8.707 -1.5469 -0.3997 -1.2211
   23SAPC  H19S 3055   6.520   1.913   8.839  0.4093  0.5009 -0.7434
   23SAPC  C220 3056   6.356   1.897   8.701  0.1702 -0.0237  0.3813
   23SAPC  H20R 3057   6.407   1.972   8.636  0.6123 -1.9952 -1.6738
   23SAPC  H20S 3058   6.274   1.941   8.761  0.4407 -2.1427  2.4427
   23SAPC  H20T 3059   6.305   1.819   8.642 -0.7901 -0.1655  1.3623
   23SAPC   C33 3060   6.479   2.609  10.492  0.2544  0.0889  0.6298
   23SAPC   H3X 3061   6.572   2.667  10.476 -2.2232  4.0136 -1.0615
   23SAPC   H3Y 3062   6.424   2.658  10.575  1.3985 -1.7690  2.5756
   23SAPC   C34 3063   6.386   2.604  10.371 -0.2268  0.4874 -0.0778
   23SAPC   H4X 3064   6.374   2.709  10.337  1.5245 -0.3056 -3.5720
   23SAPC   H4Y 3065   6.296   2.544  10.392 -0.5159  0.8585 -0.2540
   23SAPC   C35 3066   6.458   2.554  10.243 -0.1613  0.2602  0.0692
   23SAPC   H5X 3067   6.471   2.443  10.245  3.3574  0.5290 -0.8136
   23SAPC   H5Y 3068   6.564   2.586  10.244  0.1720 -0.7331  2.2031
   23SAPC   C36 3069   6.400   2.600  10.115  0.6141 -1.2637 -0.2137
   23SAPC   H6X 3070   6.411   2.710  10.105  0.8233 -1.4325 -2.3672
   23SAPC   H6Y 3071   6.297   2.558  10.117  1.3205 -3.1603 -0.8265
   23SAPC   C37 3072   6.482   2.554   9.992  0.8871  0.5748 -0.5164
   23SAPC   H7X 3073   6.480   2.443   9.989 -1.6077  0.5234  0.5176
   23SAPC   H7Y 3074   6.588   2.577  10.012  1.3526 -3.5262  3.0702
   23SAPC   C38 3075   6.432   2.612   9.857 -0.3908  0.3384  0.1564
   23SAPC   H8X 3076   6.465   2.717   9.844 -0.0657  0.0486 -1.6532
   23SAPC   H8Y 3077   6.323   2.591   9.860 -0.1823 -0.7377  1.6934
   23SAPC   C39 3078   6.507   2.539   9.741  0.2817 -0.7705 -0.4825
   23SAPC   H9X 3079   6.487   2.430   9.743 -0.0943 -0.6959  0.7829
   23SAPC   H9Y 3080   6.613   2.564   9.763  0.1771 -0.1140 -0.7040
   23SAPC  C310 3081   6.459   2.577   9.598  0.4800  0.5872 -0.4718
   23SAPC  H10X 3082   6.451   2.687   9.584 -1.2141  0.3890 -1.3479
   23SAPC  H10Y 3083   6.360   2.536   9.569 -0.2358  1.4474  0.6249
   23SAPC  C311 3084   6.572   2.523   9.509 -0.2735  0.7180  0.2671
   23SAPC  H11X 3085   6.571   2.412   9.503 -2.8199  0.5876  1.8588
   23SAPC  H11Y 3086   6.674   2.549   9.546  0.0298  0.5004 -0.3865
   23SAPC  C312 3087   6.563   2.567   9.358 -0.0560  0.3368  0.0293
   23SAPC  H12X 3088   6.654   2.532   9.304 -0.1396  0.2473 -0.0539
   23SAPC  H12Y 3089   6.556   2.677   9.355  0.2802  0.4502  1.9505
   23SAPC  C313 3090   6.437   2.516   9.286 -0.1254 -0.5725 -0.8989
   23SAPC  H13X 3091   6.354   2.556   9.348 -0.1078 -0.1094 -1.1689
   23SAPC  H13Y 3092   6.436   2.405   9.292  0.1977 -0.7126 -2.8408
   23SAPC  C314 3093   6.411   2.570   9.141  0.2883  0.0935 -0.5124
   23SAPC  H14X 3094   6.432   2.679   9.128 -0.2058  0.5612  2.0072
   23SAPC  H14Y 3095   6.302   2.555   9.126 -0.1022 -0.8500  2.6635
   23SAPC  C315 3096   6.497   2.485   9.043 -0.6581  0.1120  0.2896
   23SAPC  H15X 3097   6.435   2.393   9.036 -2.1320  0.9682  1.3866
   23SAPC  H15Y 3098   6.598   2.464   9.083  0.1605 -0.1880 -1.8239
   23SAPC  C316 3099   6.519   2.556   8.906  0.0419  0.6763  0.3739
   23SAPC  H16X 3100   6.550   2.660   8.925  1.1867  0.7982 -1.7868
   23SAPC  H16Y 3101   6.422   2.569   8.852 -0.5340  1.9181  1.6500
   23SAPC  C317 3102   6.630   2.477   8.833  0.8788 -0.3770  0.2938
   23SAPC  H17X 3103   6.613   2.368   8.848 -0.4136 -0.3671 -0.8145
   23SAPC  H17Y 3104   6.722   2.499   8.890  0.5553 -1.7221  1.3732
   23SAPC  C318 3105   6.627   2.513   8.689 -0.1925 -0.3522  0.7111
   23SAPC  H18X 3106   6.662   2.618   8.680  2.5347 -1.2240  0.1070
   23SAPC  H18Y 3107   6.535   2.490   8.631  0.4400  1.0676 -0.9258
   23SAPC  H18Z 3108   6.715   2.471   8.635 -1.4975 -0.3443 -1.5450
   24SAPC     N 3109   4.170   3.136  11.279 -0.1577  0.2304 -0.1299
   24SAPC   C12 3110   4.072   3.132  11.168  1.2432  0.5027 -0.1132
   24SAPC  H12A 3111   4.113   3.115  11.069 -1.4018 -2.7095 -0.8554
   24SAPC  H12B 3112   4.020   3.226  11.155 -2.3361 -1.5980 -3.2620
   24SAPC   C13 3113   4.110   3.197  11.402  0.9147 -0.4554  0.3136
   24SAPC  H13A 3114   4.019   3.146  11.430  0.5792  0.5892  1.2020
   24SAPC  H13B 3115   4.175   3.184  11.487  0.0689 -2.2363  0.7430
   24SAPC  H13C 3116   4.082   3.300  11.389 -1.5949 -1.0481  0.3681
   24SAPC   C14 3117   4.233   2.999  11.306  0.1367 -0.2732  0.9067
   24SAPC  H14A 3118   4.310   2.997  11.382 -1.0952 -0.0009  2.2005
   24SAPC  H14B 3119   4.153   2.928  11.319 -3.2639  2.5502 -2.2105
   24SAPC  H14C 3120   4.279   2.963  11.215 -0.3680 -0.6306  0.7920
   24SAPC   C15 3121   4.286   3.233  11.241 -0.7277 -0.6925  0.0008
   24SAPC  H15A 3122   4.253   3.334  11.220  0.2825 -0.5187 -0.8524
   24SAPC  H15B 3123   4.350   3.251  11.325 -0.1008  2.4315 -1.0044
   24SAPC  H15C 3124   4.346   3.196  11.159 -2.6947  0.1653 -1.9227
   24SAPC   C11 3125   3.964   3.017  11.177  0.0210  0.0069 -0.6071
   24SAPC  H11A 3126   4.010   2.917  11.181 -1.5674 -0.7413 -0.0195
   24SAPC  H11B 3127   3.906   3.005  11.083 -0.6780 -1.1438 -0.0467
   24SAPC     P 3128   3.748   3.114  11.264 -0.2769 -0.2416 -0.2608
   24SAPC   O13 3129   3.671   3.127  11.391 -0.2751  0.3217  1.0351
   24SAPC   O14 3130   3.793   3.238  11.191  0.0546 -0.0975  0.7599
   24SAPC   O12 3131   3.877   3.025  11.291  0.2382 -0.0985 -0.1892
   24SAPC   O11 3132   3.669   3.019  11.162 -0.0385  0.1836 -0.3877
   24SAPC    C1 3133   3.530   3.033  11.132 -0.2997 -0.2714 -0.1217
   24SAPC    HA 3134   3.491   2.929  11.129 -1.6703  0.1754  0.9537
   24SAPC    HB 3135   3.466   3.087  11.206  0.1481  0.8787 -0.5585
   24SAPC    C2 3136   3.509   3.090  10.994  0.4310 -0.5094  0.4039
   24SAPC    HS 3137   3.517   3.199  11.011  1.1594 -1.0098  3.8811
   24SAPC   O21 3138   3.375   3.055  10.944 -0.0988  0.0850 -0.1692
   24SAPC   C21 3139   3.326   3.146  10.868 -0.0301  0.0006 -0.0301
   24SAPC   O22 3140   3.385   3.249  10.830  0.0206  0.3332 -0.4101
   24SAPC   C22 3141   3.185   3.109  10.834  0.0617  0.5299 -0.7415
   24SAPC   H2R 3142   3.178   3.006  10.794 -2.3172  0.9208 -1.4748
   24SAPC   H2S 3143   3.127   3.105  10.929 -1.7557 -3.2289 -1.8343
   24SAPC    C3 3144   3.615   3.045  10.880  0.1407  1.6523 -0.3091
   24SAPC    HX 3145   3.591   2.936  10.884 -0.6708  1.6725 -3.0614
   24SAPC    HY 3146   3.714   3.064  10.925  1.0453 -0.4592 -1.2795
   24SAPC   O31 3147   3.600   3.098  10.754  0.8803  0.0581  0.1120
   24SAPC   C31 3148   3.663   3.208  10.729 -0.1389 -0.2660 -0.4567
   24SAPC   O32 3149   3.753   3.258  10.798  0.2718  0.1523 -0.0268
   24SAPC   C32 3150   3.588   3.266  10.601 -0.6205  0.3928  0.1781
   24SAPC   H2X 3151   3.481   3.237  10.606 -0.8164  1.2469  1.2044
   24SAPC   H2Y 3152   3.637   3.223  10.511 -1.0531 -0.4020  0.3130
   24SAPC   C23 3153   3.120   3.213  10.738 -0.0606  0.6790  0.2268
   24SAPC   H3R 3154   3.143   3.318  10.766  2.4191 -0.0613  1.1670
   24SAPC   H3S 3155   3.009   3.205  10.742  0.0825 -1.9713  0.5476
   24SAPC   C24 3156   3.159   3.169  10.597 -0.5557  0.3544 -0.0120
   24SAPC   H4R 3157   3.158   3.060  10.576 -2.1904  0.2241  0.6222
   24SAPC   H4S 3158   3.259   3.204  10.562 -1.9522  2.7938 -1.9177
   24SAPC   C25 3159   3.057   3.214  10.495  0.0449  0.0510  0.4719
   24SAPC   H5R 3160   3.064   3.323  10.483  0.5521 -0.1788 -1.8568
   24SAPC   C26 3161   2.974   3.147  10.406  0.3348 -0.5306 -0.2896
   24SAPC   H6R 3162   2.893   3.203  10.356  0.5917  1.8929  1.8023
   24SAPC   C27 3163   2.971   2.994  10.386 -0.5994 -0.6538 -0.6399
   24SAPC   H7R 3164   2.893   2.945  10.448  0.9462 -1.8421  0.4467
   24SAPC   H7S 3165   3.072   2.957  10.415  0.4651  2.1292 -0.4692
   24SAPC   C28 3166   2.953   2.954  10.242 -0.7073 -0.0830 -0.0096
   24SAPC   H8R 3167   3.048   2.967  10.188 -0.6437 -1.7959 -0.3511
   24SAPC   C29 3168   2.845   2.895  10.186 -0.1057 -0.3244 -0.1316
   24SAPC   H9R 3169   2.861   2.869  10.080 -1.0450 -1.8129  0.0542
   24SAPC  C210 3170   2.710   2.864  10.236  0.0655  0.3937  0.1359
   24SAPC  H10R 3171   2.681   2.952  10.297 -0.2121 -0.2919  1.0111
   24SAPC  H10S 3172   2.702   2.777  10.305  1.5664 -0.6168 -0.9044
   24SAPC  C211 3173   2.609   2.851  10.121  0.2778  0.0343 -0.2985
   24SAPC  H11R 3174   2.565   2.947  10.088  2.2431  0.7851 -0.8628
   24SAPC  C212 3175   2.573   2.737  10.053  0.4074 -0.3764  0.5982
   24SAPC  H12R 3176   2.499   2.743   9.972  0.0407 -1.0474  0.8790
   24SAPC  C213 3177   2.628   2.594  10.073  0.0806 -0.5175  0.0235
   24SAPC  H13R 3178   2.687   2.587  10.167 -0.1574  0.1121  0.2287
   24SAPC  H13S 3179   2.707   2.568   9.998  0.7435  0.2829  0.4203
   24SAPC  C214 3180   2.515   2.491  10.073 -0.2479 -0.1116  0.4684
   24SAPC  H14R 3181   2.455   2.480  10.164 -3.2306 -0.2403 -1.3944
   24SAPC  C215 3182   2.487   2.412   9.968  0.1020 -0.5392  0.2539
   24SAPC  H15R 3183   2.397   2.352   9.981 -1.4035  1.4191 -0.5162
   24SAPC  C216 3184   2.549   2.407   9.835  0.4185 -0.4280 -0.0244
   24SAPC  H16R 3185   2.573   2.304   9.801  0.8976 -0.7025  1.0864
   24SAPC  H16S 3186   2.652   2.448   9.844 -0.0293  0.4970  1.1936
   24SAPC  C217 3187   2.482   2.495   9.727  0.4010  0.8825 -0.0759
   24SAPC  H17R 3188   2.478   2.595   9.776  0.2236  0.0848  1.6108
   24SAPC  H17S 3189   2.378   2.462   9.708  0.7518  0.4117 -1.3007
   24SAPC  C218 3190   2.560   2.498   9.596 -0.3427  0.5901 -0.9034
   24SAPC  H18R 3191   2.558   2.405   9.535  0.5033  0.4258 -0.6990
   24SAPC  H18S 3192   2.662   2.513   9.637 -0.3686 -1.9922  0.3573
   24SAPC  C219 3193   2.505   2.609   9.509 -0.0753  0.0963  0.4442
   24SAPC  H19R 3194   2.543   2.706   9.548 -1.9345  0.3773  1.6786
   24SAPC  H19S 3195   2.394   2.608   9.511 -0.0817  0.1011  0.1531
   24SAPC  C220 3196   2.557   2.599   9.366 -0.8871 -0.7405  0.1013
   24SAPC  H20R 3197   2.563   2.696   9.312 -0.2958 -0.3065  0.9275
   24SAPC  H20S 3198   2.505   2.530   9.296  0.3834 -1.6061 -0.0241
   24SAPC  H20T 3199   2.658   2.553   9.371 -0.2860  0.7011  2.2786
   24SAPC   C33 3200   3.591   3.423  10.604  0.3184  0.5380 -0.7866
   24SAPC   H3X 3201   3.694   3.457  10.631  0.9546 -0.8035 -1.4503
   24SAPC   H3Y 3202   3.531   3.464  10.688  1.0478 -1.3693  0.7402
   24SAPC   C34 3203   3.570   3.468  10.459 -0.0476  0.0877 -0.2283
   24SAPC   H4X 3204   3.636   3.413  10.388 -0.9088  2.0226 -2.6911
   24SAPC   H4Y 3205   3.598   3.576  10.459 -1.0942  0.3675 -0.1162
   24SAPC   C35 3206   3.425   3.456  10.412  0.6341 -0.3505 -0.1006
   24SAPC   H5X 3207   3.390   3.351  10.424 -1.8761  0.2182 -1.5698
   24SAPC   H5Y 3208   3.414   3.480  10.304 -0.5834 -1.2439 -0.1912
   24SAPC   C36 3209   3.328   3.550  10.479  0.1441  0.2596 -0.1696
   24SAPC   H6X 3210   3.321   3.528  10.588 -1.1030  0.8460 -0.1062
   24SAPC   H6Y 3211   3.228   3.521  10.440  0.8920 -2.9553  0.0971
   24SAPC   C37 3212   3.359   3.700  10.455 -0.1981  0.8034 -0.7696
   24SAPC   H7X 3213   3.452   3.721  10.513 -1.3608 -1.3726  2.1606
   24SAPC   H7Y 3214   3.279   3.763  10.499 -1.9366 -0.2936 -2.1993
   24SAPC   C38 3215   3.366   3.750  10.307 -0.2704  0.0724  0.2028
   24SAPC   H8X 3216   3.271   3.728  10.254  1.5444  0.6759 -3.6127
   24SAPC   H8Y 3217   3.447   3.683  10.272 -0.3077 -0.3538  0.8957
   24SAPC   C39 3218   3.399   3.896  10.299 -0.0474 -0.4336  0.3695
   24SAPC   H9X 3219   3.466   3.921  10.384 -1.7488 -0.9414  1.9506
   24SAPC   H9Y 3220   3.300   3.946  10.306 -0.0065 -0.4599  1.2588
   24SAPC  C310 3221   3.465   3.935  10.170  0.5907 -0.5299  1.0921
   24SAPC  H10X 3222   3.560   3.877  10.159  1.6185  1.1386  0.8081
   24SAPC  H10Y 3223   3.498   4.041  10.168 -0.8385 -0.0775 -1.0707
   24SAPC  C311 3224   3.381   3.919  10.040 -0.6904  0.3532 -0.4472
   24SAPC  H11X 3225   3.290   3.981  10.049 -1.4414 -0.9452  1.3292
   24SAPC  H11Y 3226   3.353   3.813  10.022 -1.9889  0.4686  0.8010
   24SAPC  C312 3227   3.444   3.964   9.907 -0.0527 -0.0904  0.5021
   24SAPC  H12X 3228   3.367   3.931   9.833 -1.0013  1.0350  0.9554
   24SAPC  H12Y 3229   3.534   3.900   9.893 -0.7395 -0.4500 -4.0482
   24SAPC  C313 3230   3.468   4.112   9.891 -0.3798 -0.7736  0.1445
   24SAPC  H13X 3231   3.546   4.138   9.966  0.7749 -2.7923 -0.2712
   24SAPC  H13Y 3232   3.375   4.166   9.918  0.2345  1.1595 -1.4181
   24SAPC  C314 3233   3.525   4.151   9.748  0.2302 -0.2993 -0.2766
   24SAPC  H14X 3234   3.621   4.097   9.741  2.4323  3.0823  1.2426
   24SAPC  H14Y 3235   3.555   4.258   9.742  0.9709 -0.3615  1.6524
   24SAPC  C315 3236   3.435   4.112   9.623  0.6527 -0.0571 -0.0953
   24SAPC  H15X 3237   3.359   4.192   9.635  0.2500 -0.6236  1.3476
   24SAPC  H15Y 3238   3.377   4.019   9.640 -0.5616  0.6371 -0.3142
   24SAPC  C316 3239   3.516   4.125   9.496  0.7781 -0.4927 -0.2225
   24SAPC  H16X 3240   3.568   4.027   9.484  1.4428 -0.1847  0.1199
   24SAPC  H16Y 3241   3.577   4.218   9.504 -2.5901  1.9863 -1.2594
   24SAPC  C317 3242   3.437   4.134   9.369  0.0505 -0.2430 -0.2416
   24SAPC  H17X 3243   3.370   4.222   9.386 -1.0142 -0.7117 -1.7290
   24SAPC  H17Y 3244   3.367   4.049   9.356 -0.9287  0.5178 -0.1526
   24SAPC  C318 3245   3.521   4.182   9.249 -0.9350 -0.1683 -0.2927
   24SAPC  H18X 3246   3.458   4.192   9.158 -1.0646 -1.8828 -0.4102
   24SAPC  H18Y 3247   3.603   4.114   9.219  0.1812  0.8489  0.3179
   24SAPC  H18Z 3248   3.575   4.278   9.264  0.0704 -0.8643  0.7421
   25SAPC     N 3249   6.683   1.076   5.935 -0.6344 -0.4286 -0.5045
   25SAPC   C12 3250   6.730   1.153   6.051  0.7808  0.1806 -0.0719
   25SAPC  H12A 3251   6.655   1.226   6.078 -0.5592 -0.9022 -0.7198
   25SAPC  H12B 3252   6.814   1.212   6.019  0.8953 -1.0677 -2.2841
   25SAPC   C13 3253   6.598   1.174   5.846 -0.0577  0.5940 -0.2058
   25SAPC  H13A 3254   6.596   1.133   5.746  2.3302  1.0661 -0.5103
   25SAPC  H13B 3255   6.497   1.199   5.876 -0.0034  0.3781  0.1561
   25SAPC  H13C 3256   6.652   1.268   5.840  0.7491  0.1821  0.4633
   25SAPC   C14 3257   6.791   1.026   5.844 -0.3696  0.9133 -0.7739
   25SAPC  H14A 3258   6.748   0.980   5.756  0.5683 -1.3946 -0.0921
   25SAPC  H14B 3259   6.863   1.098   5.807  1.7365  0.5300  2.2320
   25SAPC  H14C 3260   6.836   0.940   5.891 -4.3214 -2.2274 -2.1514
   25SAPC   C15 3261   6.575   0.977   5.960  0.4995  0.0855 -1.5913
   25SAPC  H15A 3262   6.532   0.939   5.868 -0.9642  2.7036 -2.0798
   25SAPC  H15B 3263   6.611   0.901   6.028  0.2154 -1.2481 -2.8823
   25SAPC  H15C 3264   6.484   1.013   6.006  0.8150 -0.3258 -0.6146
   25SAPC   C11 3265   6.765   1.071   6.175 -0.1788 -0.0125 -0.2501
   25SAPC  H11A 3266   6.685   0.999   6.205  2.9791 -3.4765  0.6370
   25SAPC  H11B 3267   6.785   1.140   6.259  2.3376  0.2651 -1.0152
   25SAPC     P 3268   7.028   1.040   6.138 -0.0640  0.5045 -0.3879
   25SAPC   O13 3269   7.104   0.955   6.038  0.0957 -0.3430 -0.1237
   25SAPC   O14 3270   7.031   1.188   6.117  0.3763 -0.0989 -0.4678
   25SAPC   O12 3271   6.878   0.984   6.154 -0.4650 -0.5473 -0.1445
   25SAPC   O11 3272   7.091   1.006   6.283 -0.2117  0.0428  0.3563
   25SAPC    C1 3273   7.029   0.920   6.378  0.4158  0.4510 -0.7240
   25SAPC    HA 3274   6.943   0.859   6.343  0.9690 -0.3012 -0.7932
   25SAPC    HB 3275   7.102   0.846   6.418 -0.3196  0.9995  1.8019
   25SAPC    C2 3276   6.980   1.003   6.502  0.5999 -0.2712  0.0207
   25SAPC    HS 3277   6.908   1.078   6.464  0.9116 -0.5690 -1.1865
   25SAPC   O21 3278   7.099   1.060   6.565 -0.0574 -0.2038  0.8685
   25SAPC   C21 3279   7.077   1.184   6.620  0.0434  0.8268 -0.5143
   25SAPC   O22 3280   6.971   1.243   6.624  0.0278 -0.4255 -0.1996
   25SAPC   C22 3281   7.214   1.234   6.667 -0.4927  0.6294  0.0092
   25SAPC   H2R 3282   7.280   1.155   6.708  0.4193  0.4402 -1.7162
   25SAPC   H2S 3283   7.272   1.256   6.575  1.8701  2.0835  1.7138
   25SAPC    C3 3284   6.913   0.919   6.613 -0.2721 -0.0629 -0.6748
   25SAPC    HX 3285   6.814   0.884   6.578  0.1131 -0.7988 -1.0376
   25SAPC    HY 3286   6.887   0.985   6.699  2.8611 -0.7196  0.9194
   25SAPC   O31 3287   6.990   0.801   6.653 -0.0605 -0.6244 -0.1450
   25SAPC   C31 3288   7.050   0.816   6.769 -0.5493  0.2861  0.1288
   25SAPC   O32 3289   7.026   0.898   6.855 -0.2998 -0.4151  0.3250
   25SAPC   C32 3290   7.119   0.683   6.789  0.6085 -0.4479 -0.6121
   25SAPC   H2X 3291   7.182   0.658   6.700 -0.1102 -0.7606 -1.0374
   25SAPC   H2Y 3292   7.035   0.611   6.789  0.7953 -0.6740  0.1334
   25SAPC   C23 3293   7.212   1.355   6.760 -0.9386 -0.1321  0.7972
   25SAPC   H3R 3294   7.143   1.431   6.715 -1.9196 -0.4782  1.6835
   25SAPC   H3S 3295   7.311   1.404   6.771 -2.0372  2.2612  0.8304
   25SAPC   C24 3296   7.156   1.321   6.897  0.2517  0.1275 -1.0172
   25SAPC   H4R 3297   7.067   1.254   6.900 -0.3503  0.9247  1.3206
   25SAPC   H4S 3298   7.123   1.417   6.942  0.1741 -0.7716  0.9431
   25SAPC   C25 3299   7.270   1.263   6.976 -0.2632 -0.8530 -0.3350
   25SAPC   H5R 3300   7.347   1.206   6.922  1.3544  1.8509 -1.0849
   25SAPC   C26 3301   7.290   1.287   7.105 -0.0684  0.0590  0.7646
   25SAPC   H6R 3302   7.381   1.244   7.149  2.2134 -0.2546 -3.7074
   25SAPC   C27 3303   7.197   1.358   7.201  0.3077  0.4337 -0.0802
   25SAPC   H7R 3304   7.096   1.317   7.181  0.7646 -1.5424  1.4155
   25SAPC   H7S 3305   7.190   1.461   7.159 -1.9943 -0.3630 -1.8630
   25SAPC   C28 3306   7.243   1.369   7.348 -0.3262  0.0209  0.3654
   25SAPC   H8R 3307   7.352   1.384   7.349  0.1015 -1.6563 -3.1567
   25SAPC   C29 3308   7.162   1.368   7.452 -0.5606  0.2590 -0.3959
   25SAPC   H9R 3309   7.209   1.406   7.544  0.1856 -2.7274  0.5681
   25SAPC  C210 3310   7.015   1.347   7.453 -0.0444  0.7281  0.1264
   25SAPC  H10R 3311   6.997   1.255   7.512 -2.3760  0.6737 -0.5584
   25SAPC  H10S 3312   6.975   1.323   7.352 -0.8662 -0.9586  0.8231
   25SAPC  C211 3313   6.938   1.459   7.527 -0.4836  0.5603 -0.2831
   25SAPC  H11R 3314   6.923   1.548   7.464 -0.3019  1.6269  1.1418
   25SAPC  C212 3315   6.898   1.453   7.654  0.2986 -0.7722  0.4193
   25SAPC  H12R 3316   6.837   1.535   7.694  2.7350  0.5339  1.6794
   25SAPC  C213 3317   6.911   1.348   7.758 -0.1464  0.0128 -0.1408
   25SAPC  H13R 3318   6.996   1.370   7.826 -2.0471 -0.1584  2.4167
   25SAPC  H13S 3319   6.938   1.250   7.714 -3.1279  0.4244 -3.3477
   25SAPC  C214 3320   6.786   1.336   7.836 -0.1387  0.2966 -0.3601
   25SAPC  H14R 3321   6.715   1.268   7.786  1.2609 -0.7088 -1.0405
   25SAPC  C215 3322   6.745   1.400   7.947 -0.1053 -0.3486 -0.1514
   25SAPC  H15R 3323   6.652   1.366   7.995  1.4667 -2.4958  1.6012
   25SAPC  C216 3324   6.821   1.500   8.030 -0.7642  0.4843  0.3290
   25SAPC  H16R 3325   6.770   1.598   8.039 -0.2015  0.6473  2.0860
   25SAPC  H16S 3326   6.926   1.513   7.996 -1.0067 -0.2367 -0.7421
   25SAPC  C217 3327   6.833   1.450   8.176  0.6901 -0.0129 -0.1379
   25SAPC  H17R 3328   6.871   1.346   8.185  0.6873  0.1121  1.8545
   25SAPC  H17S 3329   6.740   1.462   8.235  0.8014  2.7524 -0.4121
   25SAPC  C218 3330   6.941   1.523   8.263 -0.6235  0.1638 -0.3067
   25SAPC  H18R 3331   6.905   1.628   8.273  0.0342  0.5444 -1.7048
   25SAPC  H18S 3332   7.039   1.538   8.215  0.2071 -0.9110  0.9721
   25SAPC  C219 3333   6.964   1.460   8.405 -0.4261  0.7955  0.2482
   25SAPC  H19R 3334   6.965   1.351   8.385 -1.3848  0.9498 -0.7180
   25SAPC  H19S 3335   6.879   1.487   8.472 -1.7185 -1.1332 -0.5375
   25SAPC  C220 3336   7.099   1.496   8.468  0.0702 -0.0025  0.1505
   25SAPC  H20R 3337   7.104   1.605   8.489 -0.8864  0.1518 -0.3605
   25SAPC  H20S 3338   7.184   1.483   8.398  2.1502  0.1571  2.4920
   25SAPC  H20T 3339   7.131   1.451   8.564 -0.4758  0.3592  0.5052
   25SAPC   C33 3340   7.198   0.657   6.918 -0.4601  0.8611 -0.5973
   25SAPC   H3X 3341   7.259   0.750   6.924 -1.1573  1.4063 -1.6641
   25SAPC   H3Y 3342   7.263   0.568   6.904 -2.1028 -0.5249  0.2527
   25SAPC   C34 3343   7.108   0.622   7.038  0.5490  0.4341  0.4251
   25SAPC   H4X 3344   7.049   0.535   7.002 -1.0463  1.6788 -0.0995
   25SAPC   H4Y 3345   7.040   0.709   7.047 -0.4142 -0.3442  0.9075
   25SAPC   C35 3346   7.176   0.598   7.168  0.4566  0.5995 -0.8135
   25SAPC   H5X 3347   7.246   0.511   7.166 -1.4055 -1.1680  2.3927
   25SAPC   H5Y 3348   7.105   0.567   7.247 -0.0764 -0.2292 -1.5987
   25SAPC   C36 3349   7.249   0.733   7.213 -0.3250 -0.4614 -0.6055
   25SAPC   H6X 3350   7.287   0.786   7.123 -1.1960  0.2717 -0.5582
   25SAPC   H6Y 3351   7.332   0.702   7.280 -1.7671 -2.5014  0.3657
   25SAPC   C37 3352   7.167   0.830   7.295 -0.7369 -0.8444 -0.6505
   25SAPC   H7X 3353   7.116   0.775   7.377 -2.4279  0.9258 -0.4271
   25SAPC   H7Y 3354   7.087   0.872   7.230 -0.2015 -1.3272 -1.6421
   25SAPC   C38 3355   7.244   0.948   7.356 -0.2016  0.4015 -0.0521
   25SAPC   H8X 3356   7.158   0.998   7.407 -0.0973 -0.1686  0.6927
   25SAPC   H8Y 3357   7.275   1.018   7.275  0.3661  0.5066  0.2529
   25SAPC   C39 3358   7.356   0.913   7.453  0.7948 -0.6692  0.0624
   25SAPC   H9X 3359   7.439   0.861   7.400  2.2571  0.3323  1.2909
   25SAPC   H9Y 3360   7.312   0.843   7.527  0.5185 -3.9683 -2.9359
   25SAPC  C310 3361   7.403   1.037   7.520  0.0457  0.6688 -0.1800
   25SAPC  H10X 3362   7.318   1.085   7.573 -2.0436 -1.4262 -1.4593
   25SAPC  H10Y 3363   7.442   1.109   7.445  0.6765  1.0174  0.4643
   25SAPC  C311 3364   7.504   1.017   7.635 -0.0551  0.2581 -0.4739
   25SAPC  H11X 3365   7.601   0.977   7.597  0.8904  0.4177  1.6449
   25SAPC  H11Y 3366   7.467   0.938   7.704 -0.1047  0.3664 -0.3762
   25SAPC  C312 3367   7.526   1.147   7.707 -0.3566  0.1141  0.0484
   25SAPC  H12X 3368   7.431   1.169   7.760 -0.3414 -1.2302  0.7010
   25SAPC  H12Y 3369   7.541   1.231   7.637 -0.3073  0.2394  0.2079
   25SAPC  C313 3370   7.640   1.147   7.806  1.2454 -0.7065 -0.4513
   25SAPC  H13X 3371   7.650   1.254   7.835  0.5285 -0.4717 -1.0329
   25SAPC  H13Y 3372   7.736   1.111   7.763  0.8499 -0.9193 -1.1706
   25SAPC  C314 3373   7.613   1.056   7.930  0.2357  0.1847  0.1993
   25SAPC  H14X 3374   7.621   0.952   7.893 -0.1290  0.5905 -1.0865
   25SAPC  H14Y 3375   7.514   1.070   7.980  0.4183 -2.9617  1.6734
   25SAPC  C315 3376   7.708   1.084   8.047  0.0323 -0.0194  0.3633
   25SAPC  H15X 3377   7.690   1.193   8.064  0.7227  0.2217 -0.3974
   25SAPC  H15Y 3378   7.813   1.078   8.011  0.4300 -0.1169  1.4900
   25SAPC  C316 3379   7.686   1.003   8.170 -0.1794  0.1822 -0.5807
   25SAPC  H16X 3380   7.695   0.896   8.142 -2.3012 -0.2954  0.3720
   25SAPC  H16Y 3381   7.578   1.020   8.190  0.3975  0.5097  2.8852
   25SAPC  C317 3382   7.757   1.040   8.303 -0.2045  0.0747 -0.0185
   25SAPC  H17X 3383   7.750   1.147   8.332 -0.2140  0.0249  0.1665
   25SAPC  H17Y 3384   7.862   1.016   8.274 -1.1051  0.0778 -3.8868
   25SAPC  C318 3385   7.700   0.949   8.417 -0.8068 -0.7953  0.3508
   25SAPC  H18X 3386   7.695   0.840   8.397 -0.8238 -0.7305 -0.0066
   25SAPC  H18Y 3387   7.594   0.982   8.423 -0.3881  0.9744 -0.9782
   25SAPC  H18Z 3388   7.744   0.970   8.517  4.2477 -0.8639 -1.5359
   26SAPC     N 3389   6.073   2.514   6.079  0.5407  0.0458  0.6186
   26SAPC   C12 3390   6.131   2.618   6.172  0.4032 -0.1652  0.3482
   26SAPC  H12A 3391   6.077   2.711   6.175  0.1067 -0.1890 -2.2048
   26SAPC  H12B 3392   6.223   2.653   6.129 -0.3231  0.0571 -1.0935
   26SAPC   C13 3393   5.940   2.464   6.122  0.2861 -0.3299 -0.0774
   26SAPC  H13A 3394   5.873   2.548   6.118 -0.8511 -1.2658 -1.7072
   26SAPC  H13B 3395   5.902   2.388   6.055 -0.9865  0.0929  0.1445
   26SAPC  H13C 3396   5.935   2.425   6.222 -1.0274 -1.6542 -0.6302
   26SAPC   C14 3397   6.061   2.565   5.940 -0.0598 -0.5548 -0.1544
   26SAPC  H14A 3398   6.002   2.654   5.931 -0.7371 -1.1453 -2.0682
   26SAPC  H14B 3399   6.157   2.593   5.899 -0.5195  0.5710 -0.4813
   26SAPC  H14C 3400   6.018   2.491   5.874  1.6072 -1.4215 -0.3382
   26SAPC   C15 3401   6.157   2.393   6.076  0.1565  0.1454  0.5847
   26SAPC  H15A 3402   6.171   2.363   6.178  1.8823  0.3758  0.4517
   26SAPC  H15B 3403   6.107   2.314   6.021  0.2761 -0.4503  1.3169
   26SAPC  H15C 3404   6.262   2.409   6.055  0.6220  0.3845  2.8469
   26SAPC   C11 3405   6.160   2.565   6.312  0.0277  0.6297  0.1947
   26SAPC  H11A 3406   6.077   2.511   6.363  0.6001  0.3659  0.8741
   26SAPC  H11B 3407   6.166   2.652   6.381 -3.9951  0.4396  1.0370
   26SAPC     P 3408   6.416   2.531   6.299 -0.2672 -0.3511  0.3838
   26SAPC   O13 3409   6.517   2.426   6.332 -0.6888  0.4100  0.3506
   26SAPC   O14 3410   6.419   2.590   6.163 -0.3682  0.3075 -0.0706
   26SAPC   O12 3411   6.269   2.474   6.317 -0.7729 -0.2900  0.6563
   26SAPC   O11 3412   6.419   2.655   6.404  0.3019 -0.2314 -0.2606
   26SAPC    C1 3413   6.465   2.622   6.535 -0.5486  0.1776  0.8088
   26SAPC    HA 3414   6.434   2.517   6.550 -2.3063 -0.1951 -3.8906
   26SAPC    HB 3415   6.576   2.629   6.541 -0.4778  1.3189 -1.0381
   26SAPC    C2 3416   6.397   2.720   6.636 -0.3626  0.6751  0.4435
   26SAPC    HS 3417   6.290   2.715   6.608 -0.5454 -0.5422  1.3066
   26SAPC   O21 3418   6.466   2.851   6.627 -0.4192  0.0925 -0.4894
   26SAPC   C21 3419   6.380   2.950   6.652  0.3122  0.3976  0.4491
   26SAPC   O22 3420   6.262   2.942   6.672 -0.0943  0.4426 -0.3870
   26SAPC   C22 3421   6.461   3.078   6.659 -0.6023  0.6010 -0.1899
   26SAPC   H2R 3422   6.548   3.066   6.728  0.0655 -1.9123 -1.3518
   26SAPC   H2S 3423   6.510   3.101   6.561  0.7713 -3.3223 -0.5946
   26SAPC    C3 3424   6.423   2.668   6.782 -0.4579 -0.9297 -0.3968
   26SAPC    HX 3425   6.527   2.687   6.813 -0.5238  2.8178 -1.9457
   26SAPC    HY 3426   6.400   2.559   6.778 -1.2479 -0.9076  1.8796
   26SAPC   O31 3427   6.342   2.738   6.880  0.0878 -0.6234 -0.0727
   26SAPC   C31 3428   6.210   2.707   6.880  0.5611  0.0353 -0.3264
   26SAPC   O32 3429   6.157   2.619   6.815 -0.3549 -0.3016  0.0434
   26SAPC   C32 3430   6.127   2.796   6.969  0.4303 -0.1151 -0.0068
   26SAPC   H2X 3431   6.054   2.840   6.897 -0.8329  0.7145  1.6997
   26SAPC   H2Y 3432   6.184   2.871   7.027  3.0787 -1.6295 -0.5107
   26SAPC   C23 3433   6.368   3.193   6.706 -1.1712 -0.0411  0.8374
   26SAPC   H3R 3434   6.276   3.191   6.643  0.8255  1.1561 -2.3434
   26SAPC   H3S 3435   6.413   3.291   6.678 -1.1518  0.3597  2.1730
   26SAPC   C24 3436   6.345   3.204   6.856  0.3241  0.2622 -0.0542
   26SAPC   H4R 3437   6.295   3.109   6.887  3.2433 -0.8846  1.5642
   26SAPC   H4S 3438   6.281   3.292   6.876  1.2423  0.6731  1.1944
   26SAPC   C25 3439   6.476   3.216   6.928 -0.8559 -0.3835 -0.6419
   26SAPC   H5R 3440   6.523   3.315   6.915 -1.6942  0.1552  0.3032
   26SAPC   C26 3441   6.533   3.123   7.010  0.9507 -0.6779 -0.2679
   26SAPC   H6R 3442   6.621   3.146   7.072  0.6183 -0.9630  0.3264
   26SAPC   C27 3443   6.480   2.990   7.040 -0.0399  0.5464 -0.7464
   26SAPC   H7R 3444   6.558   2.912   7.046  2.6836  3.1491  3.3964
   26SAPC   H7S 3445   6.404   2.964   6.964 -1.0806 -0.0094  0.4431
   26SAPC   C28 3446   6.406   2.993   7.174  0.6442  0.5175 -0.5205
   26SAPC   H8R 3447   6.329   3.070   7.187 -0.9618 -1.2293  0.8991
   26SAPC   C29 3448   6.409   2.901   7.276 -0.3244 -0.8828 -0.4142
   26SAPC   H9R 3449   6.357   2.922   7.371 -1.0219  0.8856 -1.1372
   26SAPC  C210 3450   6.490   2.770   7.274 -0.3138 -0.1994  0.5002
   26SAPC  H10R 3451   6.565   2.761   7.192  0.5296  2.6819  0.8250
   26SAPC  H10S 3452   6.414   2.692   7.253 -1.0463  0.5180  0.4497
   26SAPC  C211 3453   6.555   2.760   7.410  0.6643 -0.1357 -0.6312
   26SAPC  H11R 3454   6.502   2.702   7.487 -0.2312 -0.5173 -1.5175
   26SAPC  C212 3455   6.673   2.804   7.450  0.2154 -0.2232 -0.2577
   26SAPC  H12R 3456   6.695   2.809   7.557 -1.6849 -0.8738  0.1924
   26SAPC  C213 3457   6.766   2.882   7.355  0.1592 -0.1529 -0.7789
   26SAPC  H13R 3458   6.709   2.975   7.333 -2.5846 -1.4184  0.4908
   26SAPC  H13S 3459   6.772   2.842   7.252  0.4555  0.5973 -1.0577
   26SAPC  C214 3460   6.906   2.916   7.403 -0.0988 -0.1240 -1.0074
   26SAPC  H14R 3461   6.901   2.985   7.488 -3.0403 -1.6871  0.2461
   26SAPC  C215 3462   7.021   2.880   7.348 -0.3531  0.8034  0.0811
   26SAPC  H15R 3463   7.113   2.924   7.389  0.2982 -0.9989  0.6217
   26SAPC  C216 3464   7.027   2.788   7.229  0.0585  0.4820  0.0422
   26SAPC  H16R 3465   6.939   2.720   7.227  0.1879  0.3246 -1.5052
   26SAPC  H16S 3466   7.113   2.719   7.231 -0.2153  0.1083  2.5019
   26SAPC  C217 3467   7.023   2.867   7.092 -0.2953 -0.0886  0.6756
   26SAPC  H17R 3468   7.118   2.924   7.087 -1.0672  1.1209 -1.8217
   26SAPC  H17S 3469   6.953   2.952   7.077 -2.1356 -1.9026 -1.8573
   26SAPC  C218 3470   7.031   2.772   6.965 -0.2983 -0.2851 -0.7863
   26SAPC  H18R 3471   7.095   2.684   6.984 -1.4577 -0.7717  1.0581
   26SAPC  H18S 3472   7.067   2.832   6.878 -0.5276  0.0145 -0.6748
   26SAPC  C219 3473   6.890   2.723   6.938  0.0561  1.0204  0.2652
   26SAPC  H19R 3474   6.835   2.820   6.934  1.2526  1.7232  0.3292
   26SAPC  H19S 3475   6.853   2.652   7.014 -4.0378  0.8167 -1.6299
   26SAPC  C220 3476   6.873   2.661   6.801  0.8770  0.1658  0.1416
   26SAPC  H20R 3477   6.948   2.586   6.768 -0.9874 -0.9151 -1.9282
   26SAPC  H20S 3478   6.876   2.745   6.729 -0.5234  1.0508  1.0558
   26SAPC  H20T 3479   6.766   2.631   6.797  0.8497  0.3481 -0.4754
   26SAPC   C33 3480   6.029   2.713   7.054  0.4252 -0.2124 -1.0163
   26SAPC   H3X 3481   5.972   2.632   7.005 -1.1236 -1.7237  2.8983
   26SAPC   H3Y 3482   5.956   2.785   7.097 -0.0534  0.0476 -2.2236
   26SAPC   C34 3483   6.124   2.666   7.174 -0.1275 -0.1026 -0.0694
   26SAPC   H4X 3484   6.177   2.753   7.219  0.2039 -0.4493  0.2199
   26SAPC   H4Y 3485   6.190   2.586   7.134 -1.2677 -0.4767 -1.2545
   26SAPC   C35 3486   6.030   2.610   7.283 -1.0050 -0.0428  0.6873
   26SAPC   H5X 3487   5.965   2.541   7.226  0.8860  0.2735 -2.0120
   26SAPC   H5Y 3488   5.977   2.701   7.319  1.8732  2.0119  0.1315
   26SAPC   C36 3489   6.115   2.530   7.388  0.0525 -0.9662  0.5776
   26SAPC   H6X 3490   6.190   2.463   7.341  0.8419 -0.7187  1.4433
   26SAPC   H6Y 3491   6.052   2.459   7.445 -2.0850 -0.0088 -0.4675
   26SAPC   C37 3492   6.185   2.621   7.494 -0.0061  0.3573 -0.1345
   26SAPC   H7X 3493   6.096   2.651   7.553  0.5237  1.9431 -0.1045
   26SAPC   H7Y 3494   6.229   2.714   7.451  0.5335  0.0264 -0.3229
   26SAPC   C38 3495   6.299   2.558   7.571  0.0210 -0.1795 -0.0338
   26SAPC   H8X 3496   6.390   2.551   7.508  0.0781  1.4641 -0.1710
   26SAPC   H8Y 3497   6.273   2.452   7.592  1.2760 -0.7751 -1.3406
   26SAPC   C39 3498   6.311   2.635   7.705 -0.2999 -0.7840  0.0591
   26SAPC   H9X 3499   6.210   2.633   7.752  0.5021 -0.5777  1.8902
   26SAPC   H9Y 3500   6.339   2.739   7.678 -1.7371 -0.9247 -2.2775
   26SAPC  C310 3501   6.422   2.572   7.796  0.0870  0.1670  0.6179
   26SAPC  H10X 3502   6.517   2.599   7.745 -0.8617  1.6180 -0.4495
   26SAPC  H10Y 3503   6.415   2.461   7.797  0.2751  0.1443 -0.3175
   26SAPC  C311 3504   6.417   2.631   7.941 -0.3991 -0.0240  0.8456
   26SAPC  H11X 3505   6.409   2.561   8.027 -3.6440 -0.4920  0.2895
   26SAPC  H11Y 3506   6.324   2.692   7.948 -1.4537 -1.6603  1.6889
   26SAPC  C312 3507   6.543   2.715   7.971  1.0155 -0.7130  0.1231
   26SAPC  H12X 3508   6.531   2.800   7.900 -0.7502  0.4124  1.6689
   26SAPC  H12Y 3509   6.629   2.652   7.942  0.1476 -2.2121  0.6884
   26SAPC  C313 3510   6.546   2.754   8.119  0.3990 -0.3906  0.3712
   26SAPC  H13X 3511   6.513   2.671   8.185  0.9143  2.1280  4.0749
   26SAPC  H13Y 3512   6.462   2.825   8.135 -2.1730 -3.4645  1.5846
   26SAPC  C314 3513   6.678   2.815   8.156  0.0823 -0.3508  0.0774
   26SAPC  H14X 3514   6.691   2.907   8.095 -3.3434  0.7766  0.8515
   26SAPC  H14Y 3515   6.765   2.749   8.136  0.6002  0.3693 -0.0913
   26SAPC  C315 3516   6.691   2.854   8.302  0.0176 -0.3688 -0.5124
   26SAPC  H15X 3517   6.682   2.766   8.369  1.4956 -0.4866 -0.4316
   26SAPC  H15Y 3518   6.609   2.925   8.324 -0.6651 -1.5762  0.9556
   26SAPC  C316 3519   6.823   2.921   8.343  0.2742 -0.0815  0.0446
   26SAPC  H16X 3520   6.805   2.989   8.429  1.2291  0.3776 -0.1056
   26SAPC  H16Y 3521   6.873   2.980   8.264 -0.5456  0.3792 -0.1365
   26SAPC  C317 3522   6.926   2.821   8.393 -0.0391 -0.2590  0.5684
   26SAPC  H17X 3523   6.942   2.740   8.319  1.7910  0.5814 -0.0028
   26SAPC  H17Y 3524   6.884   2.780   8.488  0.1965 -0.5712  0.5382
   26SAPC  C318 3525   7.063   2.883   8.417 -0.0571 -0.1299 -0.3717
   26SAPC  H18X 3526   7.060   2.947   8.508  1.6476 -1.1750  0.4794
   26SAPC  H18Y 3527   7.075   2.958   8.336  2.4539  1.1738  1.0543
   26SAPC  H18Z 3528   7.150   2.814   8.425  0.8490  0.8894 -1.1043
   27SAPC     N 3529   4.758   2.874   6.539 -0.2735 -0.7275  0.4664
   27SAPC   C12 3530   4.761   2.823   6.687 -0.4453  0.1990 -0.0749
   27SAPC  H12A 3531   4.855   2.858   6.728 -0.4376 -1.1126  1.0929
   27SAPC  H12B 3532   4.753   2.715   6.690 -0.6993  0.2164  2.7036
   27SAPC   C13 3533   4.736   3.024   6.535 -0.6747 -0.4065 -0.1462
   27SAPC  H13A 3534   4.828   3.067   6.571 -1.8501  3.5215 -1.3222
   27SAPC  H13B 3535   4.726   3.065   6.436 -0.6187 -1.7471 -0.7292
   27SAPC  H13C 3536   4.651   3.055   6.595 -1.2369  0.5739 -1.3961
   27SAPC   C14 3537   4.878   2.839   6.462  0.0914 -0.2794  0.4281
   27SAPC  H14A 3538   4.959   2.907   6.484  1.8264 -1.3893 -2.1037
   27SAPC  H14B 3539   4.913   2.740   6.486  2.8366  0.6568  0.7440
   27SAPC  H14C 3540   4.874   2.840   6.354  3.0375  3.9815  0.0992
   27SAPC   C15 3541   4.644   2.819   6.462 -0.7527  0.0386  0.4905
   27SAPC  H15A 3542   4.555   2.838   6.520  0.8931  1.3404  2.7411
   27SAPC  H15B 3543   4.625   2.880   6.375  1.6376  0.4357  0.1801
   27SAPC  H15C 3544   4.649   2.717   6.426 -0.2580 -0.7722  2.7149
   27SAPC   C11 3545   4.655   2.858   6.788  0.0601 -0.4160 -0.1463
   27SAPC  H11A 3546   4.647   2.967   6.804  1.6757 -0.1901 -0.7022
   27SAPC  H11B 3547   4.680   2.813   6.887 -1.6045  0.5628  0.7577
   27SAPC     P 3548   4.487   2.661   6.775 -0.0995  0.1181  0.4512
   27SAPC   O13 3549   4.365   2.627   6.713  0.0502  0.2405 -0.0316
   27SAPC   O14 3550   4.598   2.564   6.750 -0.1314 -0.2604  0.9678
   27SAPC   O12 3551   4.537   2.810   6.732 -0.3098  0.6481  0.0861
   27SAPC   O11 3552   4.458   2.678   6.927  0.2453 -0.1020  0.0274
   27SAPC    C1 3553   4.487   2.570   7.015 -0.5592  0.2931  0.0051
   27SAPC    HA 3554   4.592   2.540   6.999 -0.9517 -0.5725 -1.0471
   27SAPC    HB 3555   4.493   2.606   7.120  1.0707  0.8755 -0.2687
   27SAPC    C2 3556   4.383   2.443   7.019 -0.3245 -0.8078 -0.6245
   27SAPC    HS 3557   4.386   2.394   6.919  0.6722 -3.5527  0.6465
   27SAPC   O21 3558   4.254   2.486   7.060 -0.4084 -0.2000  0.2497
   27SAPC   C21 3559   4.154   2.398   7.027 -0.2647  0.0585 -0.4802
   27SAPC   O22 3560   4.179   2.288   6.978  0.1609  0.6168  0.2610
   27SAPC   C22 3561   4.013   2.459   7.044 -0.8336 -0.0186  0.5255
   27SAPC   H2R 3562   4.029   2.565   7.014 -0.4132 -0.2918 -0.2305
   27SAPC   H2S 3563   3.950   2.404   6.971 -0.5185 -1.5793  1.3844
   27SAPC    C3 3564   4.445   2.341   7.112 -0.4093 -0.7846 -0.1997
   27SAPC    HX 3565   4.541   2.313   7.065  0.0975 -0.6398  0.7343
   27SAPC    HY 3566   4.381   2.250   7.112 -2.4590  0.5817  0.8007
   27SAPC   O31 3567   4.478   2.398   7.240  0.4852  0.3973  0.7048
   27SAPC   C31 3568   4.379   2.385   7.334 -0.1272 -0.3538  0.9539
   27SAPC   O32 3569   4.277   2.322   7.320  0.3979  0.2255 -0.5471
   27SAPC   C32 3570   4.432   2.458   7.463  0.3996  0.6085 -0.3571
   27SAPC   H2X 3571   4.507   2.383   7.496 -0.7884 -1.2925 -1.7746
   27SAPC   H2Y 3572   4.345   2.456   7.533  1.1286 -2.7338  0.6525
   27SAPC   C23 3573   3.964   2.440   7.193  0.5295 -0.0436  0.3233
   27SAPC   H3R 3574   3.987   2.337   7.228 -1.1805 -0.8556 -0.7629
   27SAPC   H3S 3575   3.855   2.461   7.201  0.5862  0.1219  0.6546
   27SAPC   C24 3576   4.030   2.548   7.284  0.6498 -0.5846  0.2546
   27SAPC   H4R 3577   4.139   2.536   7.266  0.5241 -1.9399  0.2825
   27SAPC   H4S 3578   4.008   2.526   7.391  2.2171 -1.2145  0.4740
   27SAPC   C25 3579   4.000   2.697   7.252  0.2166  0.1300  0.5397
   27SAPC   H5R 3580   4.067   2.750   7.183  0.3584 -0.3143  0.3347
   27SAPC   C26 3581   3.884   2.760   7.292  0.5623  1.2231 -0.2001
   27SAPC   H6R 3582   3.874   2.863   7.254 -1.4318  1.1282  0.0032
   27SAPC   C27 3583   3.769   2.701   7.356  0.9435  0.0607 -0.1125
   27SAPC   H7R 3584   3.761   2.593   7.335 -1.5462 -0.2177  1.7624
   27SAPC   H7S 3585   3.686   2.744   7.295 -0.3888 -1.9001  0.2344
   27SAPC   C28 3586   3.756   2.740   7.499 -0.4618  0.3108 -0.1135
   27SAPC   H8R 3587   3.831   2.699   7.568 -2.3690 -1.1212  1.2156
   27SAPC   C29 3588   3.673   2.837   7.547 -0.2537  0.2867 -0.0633
   27SAPC   H9R 3589   3.682   2.848   7.657  0.1520  0.3035 -0.0964
   27SAPC  C210 3590   3.567   2.923   7.490  0.7943 -0.3204  0.1358
   27SAPC  H10R 3591   3.612   3.004   7.429  1.3375  1.0032  2.1882
   27SAPC  H10S 3592   3.524   2.975   7.578  1.7107 -0.7955  0.8868
   27SAPC  C211 3593   3.460   2.842   7.414 -0.2198  0.6912  0.1211
   27SAPC  H11R 3594   3.484   2.806   7.313  0.1881  0.4228  0.3140
   27SAPC  C212 3595   3.351   2.789   7.465  0.8908 -0.0500  0.5243
   27SAPC  H12R 3596   3.301   2.720   7.397 -1.2080 -0.4412  2.3489
   27SAPC  C213 3597   3.301   2.803   7.610  0.3099  0.5883 -0.2739
   27SAPC  H13R 3598   3.190   2.809   7.607  0.3562  4.0220  0.4420
   27SAPC  H13S 3599   3.333   2.900   7.653 -0.6221  1.3041 -1.1382
   27SAPC  C214 3600   3.359   2.697   7.706 -0.1535  0.0425  0.2394
   27SAPC  H14R 3601   3.460   2.669   7.671  0.4664  1.1160  1.1378
   27SAPC  C215 3602   3.309   2.635   7.812  0.4118 -0.6509 -0.3861
   27SAPC  H15R 3603   3.359   2.553   7.867 -3.0943 -1.6861  1.5299
   27SAPC  C216 3604   3.172   2.659   7.875 -0.1329 -0.8410 -0.2489
   27SAPC  H16R 3605   3.121   2.565   7.847  0.7306 -0.8582 -1.8458
   27SAPC  H16S 3606   3.124   2.752   7.837 -1.8213 -1.7461 -0.4642
   27SAPC  C217 3607   3.182   2.678   8.029 -0.1322  0.5015  0.0634
   27SAPC  H17R 3608   3.082   2.709   8.067 -1.2642 -0.3044 -2.0774
   27SAPC  H17S 3609   3.234   2.775   8.049 -1.2718  1.0490  0.4693
   27SAPC  C218 3610   3.242   2.563   8.105 -0.1156  0.4189  0.6911
   27SAPC  H18R 3611   3.349   2.558   8.075 -0.6596  0.2346 -1.3204
   27SAPC  H18S 3612   3.184   2.471   8.083 -0.6438  0.1526  2.8931
   27SAPC  C219 3613   3.229   2.589   8.256  0.3101  0.3506 -0.0677
   27SAPC  H19R 3614   3.235   2.494   8.314 -2.2712  0.2514  0.1373
   27SAPC  H19S 3615   3.130   2.633   8.280  0.2006 -0.5091  1.1674
   27SAPC  C220 3616   3.326   2.690   8.313 -0.5347  0.7627 -0.7673
   27SAPC  H20R 3617   3.297   2.714   8.418  1.2732 -2.0560  0.4954
   27SAPC  H20S 3618   3.322   2.783   8.252  4.6925  0.0094 -2.8309
   27SAPC  H20T 3619   3.423   2.635   8.318 -0.8093  0.2244 -1.3168
   27SAPC   C33 3620   4.485   2.601   7.442 -0.0749  0.6108 -0.8224
   27SAPC   H3X 3621   4.430   2.665   7.369 -2.0360  0.4477  0.4367
   27SAPC   H3Y 3622   4.587   2.582   7.402 -0.1964  0.2161 -0.9457
   27SAPC   C34 3623   4.499   2.687   7.570  0.8223 -0.0801  0.3303
   27SAPC   H4X 3624   4.391   2.700   7.595  0.4743  0.1964 -1.1861
   27SAPC   H4Y 3625   4.532   2.792   7.555  0.4926  0.2198  1.5477
   27SAPC   C35 3626   4.580   2.627   7.677 -0.5891 -0.0911  0.5814
   27SAPC   H5X 3627   4.672   2.577   7.640 -0.6333 -1.9588  2.7745
   27SAPC   H5Y 3628   4.520   2.548   7.726  0.0771 -0.0315  1.5168
   27SAPC   C36 3629   4.615   2.715   7.799  0.4668  0.3954  0.3221
   27SAPC   H6X 3630   4.527   2.773   7.834 -1.1453  0.9564 -4.0415
   27SAPC   H6Y 3631   4.692   2.786   7.762  2.2268 -1.8022 -0.4636
   27SAPC   C37 3632   4.675   2.644   7.919  0.0922  0.0741 -0.0747
   27SAPC   H7X 3633   4.615   2.561   7.964  2.0347 -0.2174  2.2018
   27SAPC   H7Y 3634   4.688   2.724   7.995  0.3902  0.7795 -0.8500
   27SAPC   C38 3635   4.815   2.586   7.887 -0.3655  0.5508  0.0416
   27SAPC   H8X 3636   4.893   2.665   7.884 -0.7553  0.9482  0.3123
   27SAPC   H8Y 3637   4.809   2.543   7.785 -0.3504  1.0445 -0.1710
   27SAPC   C39 3638   4.855   2.481   7.988 -0.5283  0.2826 -0.0621
   27SAPC   H9X 3639   4.945   2.424   7.957 -0.4269  0.0839  0.5775
   27SAPC   H9Y 3640   4.769   2.410   7.990  1.7633 -2.6738  0.7933
   27SAPC  C310 3641   4.873   2.545   8.128  0.4686 -0.4227 -0.7151
   27SAPC  H10X 3642   4.774   2.589   8.155  1.0538  0.2030  0.4624
   27SAPC  H10Y 3643   4.946   2.628   8.118 -0.9247  0.8478 -0.6852
   27SAPC  C311 3644   4.911   2.436   8.234 -0.5642  1.0123 -0.5593
   27SAPC  H11X 3645   4.860   2.337   8.229  0.8847  0.2564 -0.6900
   27SAPC  H11Y 3646   4.883   2.485   8.330 -1.3265  0.7310 -0.6273
   27SAPC  C312 3647   5.060   2.413   8.246  0.2554 -0.6987 -0.2719
   27SAPC  H12X 3648   5.119   2.505   8.228 -0.7030  0.0800  0.4310
   27SAPC  H12Y 3649   5.100   2.345   8.168 -0.0727  0.1137 -1.1683
   27SAPC  C313 3650   5.109   2.350   8.376 -0.0562  0.7883  0.3355
   27SAPC  H13X 3651   5.215   2.317   8.366 -0.2832  0.5323 -1.5734
   27SAPC  H13Y 3652   5.055   2.254   8.392  2.0368 -0.1332  2.5765
   27SAPC  C314 3653   5.098   2.432   8.506 -0.5097 -0.3048 -0.0878
   27SAPC  H14X 3654   4.996   2.476   8.506 -0.7562 -0.7762  1.6790
   27SAPC  H14Y 3655   5.169   2.517   8.498 -1.2060  0.2161 -0.7310
   27SAPC  C315 3656   5.123   2.351   8.632 -0.3088 -0.4612  0.5854
   27SAPC  H15X 3657   5.225   2.306   8.623 -0.7298 -1.5059  0.8583
   27SAPC  H15Y 3658   5.064   2.257   8.630  0.4842 -1.0228  1.8325
   27SAPC  C316 3659   5.113   2.434   8.760  0.2916 -0.5426  0.6635
   27SAPC  H16X 3660   5.014   2.479   8.781  0.1459 -0.8761  0.6998
   27SAPC  H16Y 3661   5.191   2.512   8.765 -1.3659  1.2300  0.0081
   27SAPC  C317 3662   5.142   2.333   8.874  0.1366  0.2291  0.3881
   27SAPC  H17X 3663   5.248   2.303   8.866  0.3609  1.1893 -0.3156
   27SAPC  H17Y 3664   5.071   2.247   8.872  0.3024  0.0985 -0.1080
   27SAPC  C318 3665   5.109   2.407   9.015  0.0917  0.0720 -0.0100
   27SAPC  H18X 3666   5.132   2.513   8.991  0.8624  0.0636  0.6542
   27SAPC  H18Y 3667   5.182   2.363   9.087  0.3004  0.3531 -0.0475
   27SAPC  H18Z 3668   5.004   2.392   9.050  0.6745 -1.3274  1.2568
   28SAPC     N 3669   4.518   5.208   6.495 -1.1936  0.1311  0.2456
   28SAPC   C12 3670   4.637   5.229   6.390  0.8334  0.3097 -0.5901
   28SAPC  H12A 3671   4.605   5.278   6.300  0.7466  0.9365 -0.2276
   28SAPC  H12B 3672   4.675   5.131   6.364 -1.3623 -0.7646  0.0067
   28SAPC   C13 3673   4.416   5.117   6.437 -0.2526 -0.5000 -0.6301
   28SAPC  H13A 3674   4.345   5.094   6.514  0.4970 -2.1293 -0.3842
   28SAPC  H13B 3675   4.367   5.180   6.365  1.7895  0.3231 -1.3875
   28SAPC  H13C 3676   4.447   5.025   6.390 -1.4916 -2.1066  1.5362
   28SAPC   C14 3677   4.568   5.152   6.620  0.6063 -0.4372 -0.3865
   28SAPC  H14A 3678   4.631   5.066   6.601  0.4246 -0.5190 -0.6242
   28SAPC  H14B 3679   4.630   5.222   6.673 -0.5774  0.2736  0.0821
   28SAPC  H14C 3680   4.494   5.118   6.691  0.1947  0.3121 -0.4523
   28SAPC   C15 3681   4.454   5.340   6.520  0.6168  0.4822 -0.1506
   28SAPC  H15A 3682   4.367   5.330   6.583  1.6943  0.2987  1.3635
   28SAPC  H15B 3683   4.528   5.411   6.554 -0.4182  1.8280 -0.6581
   28SAPC  H15C 3684   4.423   5.372   6.422 -2.7310 -1.6658  0.0569
   28SAPC   C11 3685   4.756   5.307   6.453  0.0429  0.1377 -0.4198
   28SAPC  H11A 3686   4.836   5.313   6.377 -1.7437 -0.4674 -2.4372
   28SAPC  H11B 3687   4.803   5.245   6.532 -0.8390  0.0940  0.0842
   28SAPC     P 3688   4.766   5.566   6.434 -0.3564  0.1132  0.1269
   28SAPC   O13 3689   4.912   5.590   6.448 -0.0188 -0.3108 -0.5198
   28SAPC   O14 3690   4.710   5.571   6.302 -0.0683  0.2792  0.2604
   28SAPC   O12 3691   4.716   5.432   6.507 -0.1589 -0.5368 -0.3864
   28SAPC   O11 3692   4.695   5.686   6.503  0.8419  0.2512  0.2876
   28SAPC    C1 3693   4.567   5.685   6.565 -0.1552  0.6796  0.1858
   28SAPC    HA 3694   4.485   5.680   6.490 -1.4136  1.1964  1.4826
   28SAPC    HB 3695   4.558   5.594   6.629 -0.2382 -0.2719 -1.1323
   28SAPC    C2 3696   4.534   5.807   6.655 -0.1429 -0.2617 -0.2399
   28SAPC    HS 3697   4.532   5.901   6.596 -1.8153 -0.8229 -1.1466
   28SAPC   O21 3698   4.628   5.811   6.768 -0.1136 -0.3513 -0.0925
   28SAPC   C21 3699   4.675   5.932   6.790  0.0242 -0.0609  0.7144
   28SAPC   O22 3700   4.647   6.029   6.723 -0.5910 -0.3674 -0.4326
   28SAPC   C22 3701   4.761   5.929   6.907 -0.6192  0.1599 -0.2897
   28SAPC   H2R 3702   4.706   5.895   6.997  1.6200  0.6751  1.3551
   28SAPC   H2S 3703   4.841   5.853   6.899 -0.1106  0.4230  1.7979
   28SAPC    C3 3704   4.392   5.793   6.714 -0.0749  0.0418  0.4032
   28SAPC    HX 3705   4.329   5.803   6.624 -0.9016 -0.1972  0.9431
   28SAPC    HY 3706   4.368   5.880   6.779 -1.1824 -0.4507  0.6624
   28SAPC   O31 3707   4.370   5.664   6.772  0.2463  0.2734 -0.3853
   28SAPC   C31 3708   4.385   5.662   6.903 -0.5527 -0.6486  0.0869
   28SAPC   O32 3709   4.394   5.761   6.973 -0.1589 -0.2082  0.5973
   28SAPC   C32 3710   4.389   5.515   6.943  0.2987 -0.1160  0.0204
   28SAPC   H2X 3711   4.422   5.452   6.858  0.7628  0.2163 -0.0473
   28SAPC   H2Y 3712   4.285   5.479   6.962  1.1402 -1.6022  2.2334
   28SAPC   C23 3713   4.841   6.058   6.928  0.3511 -0.4528 -0.5348
   28SAPC   H3R 3714   4.763   6.131   6.955 -0.8774 -1.5880 -0.9074
   28SAPC   H3S 3715   4.911   6.080   6.844 -0.5404  0.1508 -1.1277
   28SAPC   C24 3716   4.915   6.062   7.067 -0.2713 -0.5944  0.7459
   28SAPC   H4R 3717   4.951   6.167   7.077 -0.2539 -0.5886  0.6189
   28SAPC   H4S 3718   4.850   6.044   7.156 -0.5865 -0.5449  0.5296
   28SAPC   C25 3719   5.046   5.985   7.088 -0.5629 -0.1507  0.3833
   28SAPC   H5R 3720   5.090   5.931   7.003  0.8438 -1.5450  1.9091
   28SAPC   C26 3721   5.124   6.001   7.199 -0.7194  0.3158  0.7881
   28SAPC   H6R 3722   5.212   5.935   7.207 -1.3383 -1.0220 -1.9463
   28SAPC   C27 3723   5.090   6.082   7.325 -0.3859 -0.1215 -0.1697
   28SAPC   H7R 3724   5.070   6.190   7.310 -0.2270  0.0402  0.7353
   28SAPC   H7S 3725   5.189   6.077   7.375 -0.4263 -2.1360 -0.1911
   28SAPC   C28 3726   4.989   6.010   7.413 -0.0965 -0.7245  0.5857
   28SAPC   H8R 3727   4.905   5.956   7.368  0.1649  0.3402 -1.2813
   28SAPC   C29 3728   4.998   6.003   7.549 -0.3618 -0.6292  0.4810
   28SAPC   H9R 3729   4.916   5.965   7.612  0.8643 -3.7631  0.3686
   28SAPC  C210 3730   5.097   6.067   7.638 -0.0553 -0.0514  0.2104
   28SAPC  H10R 3731   5.062   6.063   7.743  0.7326 -2.1639  0.4561
   28SAPC  H10S 3732   5.097   6.174   7.609 -2.2841 -0.2162 -0.5849
   28SAPC  C211 3733   5.232   5.994   7.626 -0.0196 -0.6603 -0.9539
   28SAPC  H11R 3734   5.236   5.916   7.548 -0.8372 -0.9005 -0.7676
   28SAPC  C212 3735   5.341   6.021   7.694  0.1235  0.4997 -0.7120
   28SAPC  H12R 3736   5.419   5.946   7.673 -2.0182 -3.0019  2.4613
   28SAPC  C213 3737   5.368   6.117   7.802  0.3202 -1.1260 -0.8703
   28SAPC  H13R 3738   5.273   6.138   7.857 -1.3564 -3.2791 -2.7320
   28SAPC  H13S 3739   5.406   6.217   7.772 -1.9397  0.2342  0.4947
   28SAPC  C214 3740   5.454   6.057   7.908 -0.1901  1.0822 -0.2289
   28SAPC  H14R 3741   5.564   6.066   7.902 -0.2063  2.6323  1.0090
   28SAPC  C215 3742   5.418   5.978   8.012 -0.4385  0.4332 -0.5274
   28SAPC  H15R 3743   5.499   5.946   8.078 -0.7478  1.2414  0.2574
   28SAPC  C216 3744   5.279   5.944   8.062 -0.2107 -0.2561 -0.2406
   28SAPC  H16R 3745   5.229   5.902   7.971  0.8634  1.3294 -1.6144
   28SAPC  H16S 3746   5.220   6.035   8.085  0.7627  0.1424  0.7553
   28SAPC  C217 3747   5.273   5.843   8.176  0.1568  0.2036 -0.6284
   28SAPC  H17R 3748   5.331   5.753   8.147 -1.5445 -2.0621  2.3442
   28SAPC  H17S 3749   5.167   5.808   8.178  0.2219 -0.0390 -1.2803
   28SAPC  C218 3750   5.324   5.885   8.308 -0.2292  1.0168 -0.5615
   28SAPC  H18R 3751   5.248   5.930   8.375 -0.1274  0.2332  0.1059
   28SAPC  H18S 3752   5.414   5.949   8.296  0.7629 -0.2107  0.0660
   28SAPC  C219 3753   5.379   5.765   8.395 -0.0939  0.1201  0.2801
   28SAPC  H19R 3754   5.449   5.824   8.459 -0.2282 -0.4976  1.0075
   28SAPC  H19S 3755   5.446   5.693   8.345  0.3499  1.1889 -0.7163
   28SAPC  C220 3756   5.271   5.704   8.482  0.2797  0.4040  0.3464
   28SAPC  H20R 3757   5.204   5.779   8.529 -0.4865 -0.2248  0.2823
   28SAPC  H20S 3758   5.320   5.650   8.565  1.5921 -0.3776 -0.8914
   28SAPC  H20T 3759   5.209   5.627   8.430  0.7403 -0.9029  1.6610
   28SAPC   C33 3760   4.484   5.470   7.061  0.1218 -0.0961  0.4457
   28SAPC   H3X 3761   4.587   5.512   7.056  0.2441 -0.0112  2.6595
   28SAPC   H3Y 3762   4.494   5.361   7.044 -0.3309  0.0002 -0.4921
   28SAPC   C34 3763   4.418   5.499   7.203 -0.3840  0.0475  0.0513
   28SAPC   H4X 3764   4.393   5.398   7.241 -0.5780  0.4455  1.0110
   28SAPC   H4Y 3765   4.320   5.548   7.183  0.0678  0.1302 -2.3165
   28SAPC   C35 3766   4.497   5.582   7.301 -0.1037  0.2670 -0.3066
   28SAPC   H5X 3767   4.451   5.581   7.402  0.4962 -3.7254  0.0945
   28SAPC   H5Y 3768   4.504   5.683   7.257 -0.0174 -0.2838 -1.6333
   28SAPC   C36 3769   4.644   5.533   7.333  0.0688  0.3880 -0.1552
   28SAPC   H6X 3770   4.717   5.537   7.249 -0.6623 -1.4631 -0.9197
   28SAPC   H6Y 3771   4.634   5.425   7.353  1.6422  0.7659  3.6238
   28SAPC   C37 3772   4.714   5.604   7.450  0.6742  0.0015  0.4024
   28SAPC   H7X 3773   4.655   5.578   7.540 -0.2875  1.2331  0.1590
   28SAPC   H7Y 3774   4.718   5.715   7.446 -0.3813  0.0163 -1.8153
   28SAPC   C38 3775   4.859   5.570   7.466 -0.1003 -0.1098  0.8556
   28SAPC   H8X 3776   4.919   5.635   7.398 -2.1613  0.4934 -0.4581
   28SAPC   H8Y 3777   4.872   5.461   7.451  0.1650  0.2451 -1.9447
   28SAPC   C39 3778   4.911   5.614   7.606 -1.2129  0.4112 -0.4068
   28SAPC   H9X 3779   4.872   5.543   7.683 -0.4690  1.3708  0.9065
   28SAPC   H9Y 3780   4.870   5.714   7.633 -1.8963  0.3756 -1.2777
   28SAPC  C310 3781   5.062   5.619   7.634  0.5626  0.0602  0.6545
   28SAPC  H10X 3782   5.117   5.667   7.550 -0.8363 -1.5201 -1.2371
   28SAPC  H10Y 3783   5.093   5.514   7.649  0.2815 -0.4659 -2.0309
   28SAPC  C311 3784   5.109   5.689   7.761 -0.0462  0.3747 -0.1208
   28SAPC  H11X 3785   5.088   5.798   7.751 -0.3174  0.3340  0.0088
   28SAPC  H11Y 3786   5.219   5.677   7.769 -0.0103 -0.8806 -2.0297
   28SAPC  C312 3787   5.046   5.640   7.893  0.2951  0.2913 -0.8189
   28SAPC  H12X 3788   4.937   5.659   7.894  0.2582  0.1159  0.6812
   28SAPC  H12Y 3789   5.097   5.692   7.977  1.0210  1.3732 -1.8838
   28SAPC  C313 3790   5.060   5.488   7.926 -0.5394  0.3267 -0.3158
   28SAPC  H13X 3791   5.165   5.465   7.900 -0.4475 -1.3095  1.2854
   28SAPC  H13Y 3792   4.995   5.432   7.855  2.1324 -1.4459 -1.5038
   28SAPC  C314 3793   5.030   5.447   8.068  0.2627 -0.1450  0.5824
   28SAPC  H14X 3794   4.950   5.370   8.070  0.5004 -0.3849  1.1711
   28SAPC  H14Y 3795   4.990   5.533   8.124  3.5879  1.6191  0.5112
   28SAPC  C315 3796   5.151   5.398   8.144  0.1855  0.0203  0.4658
   28SAPC  H15X 3797   5.221   5.484   8.137 -1.4292  1.3024 -1.1427
   28SAPC  H15Y 3798   5.204   5.327   8.076 -2.1815  0.1245 -1.6477
   28SAPC  C316 3799   5.126   5.357   8.284 -0.7216  0.5174 -0.5461
   28SAPC  H16X 3800   5.096   5.450   8.337  1.2506  1.1930 -0.5345
   28SAPC  H16Y 3801   5.227   5.321   8.312 -0.5420  0.0692 -1.7042
   28SAPC  C317 3802   5.029   5.243   8.311 -0.3171 -0.0583 -0.1858
   28SAPC  H17X 3803   4.923   5.275   8.297 -0.0822  1.0818  0.5203
   28SAPC  H17Y 3804   5.041   5.239   8.422 -1.7407 -1.3291 -0.0407
   28SAPC  C318 3805   5.044   5.104   8.259 -0.1886  0.1109  1.3110
   28SAPC  H18X 3806   5.141   5.067   8.298 -0.0088 -0.4104  0.3844
   28SAPC  H18Y 3807   5.036   5.097   8.149  2.6515 -3.9685  1.1377
   28SAPC  H18Z 3808   4.975   5.029   8.303 -0.1886 -1.5032 -1.2985
   29SAPC     N 3809   5.250   3.338   6.090  0.3282  0.1146 -0.3733
   29SAPC   C12 3810   5.258   3.338   6.247  0.1011  0.4400 -0.0011
   29SAPC  H12A 3811   5.317   3.252   6.277 -0.2869  0.2839  0.3185
   29SAPC  H12B 3812   5.161   3.308   6.285 -0.9289  0.8346 -2.1985
   29SAPC   C13 3813   5.388   3.351   6.031  0.6495 -0.3169  0.2817
   29SAPC  H13A 3814   5.424   3.441   6.078  1.5938 -0.6260  0.1606
   29SAPC  H13B 3815   5.452   3.266   6.047  2.6878  1.1970  0.6576
   29SAPC  H13C 3816   5.391   3.387   5.929  3.1886 -0.8643  0.0879
   29SAPC   C14 3817   5.187   3.214   6.040  0.1412 -0.9277 -0.0383
   29SAPC  H14A 3818   5.234   3.126   6.080  2.2962 -1.2613 -3.0072
   29SAPC  H14B 3819   5.080   3.225   6.052  0.3607  3.3725 -0.5308
   29SAPC  H14C 3820   5.202   3.199   5.934 -0.3647  0.0677 -0.2620
   29SAPC   C15 3821   5.159   3.445   6.051  0.2758 -0.4995 -0.0044
   29SAPC  H15A 3822   5.150   3.452   5.944 -0.8280 -0.2410  0.0925
   29SAPC  H15B 3823   5.064   3.442   6.102  0.1101  1.0962 -0.1468
   29SAPC  H15C 3824   5.205   3.535   6.091  1.4094 -1.0022 -0.1459
   29SAPC   C11 3825   5.332   3.458   6.316  0.4601  0.2735 -0.1893
   29SAPC  H11A 3826   5.288   3.476   6.416  0.1181 -1.4179  0.0054
   29SAPC  H11B 3827   5.301   3.551   6.264 -0.6538 -1.9833 -3.9653
   29SAPC     P 3828   5.515   3.329   6.428  0.1293 -0.2488 -0.0858
   29SAPC   O13 3829   5.539   3.204   6.352  0.4699  0.6806 -0.9179
   29SAPC   O14 3830   5.640   3.381   6.493  0.0319  0.1924  0.2156
   29SAPC   O12 3831   5.471   3.440   6.319 -0.4747  0.0427  0.6448
   29SAPC   O11 3832   5.402   3.325   6.540  0.0888 -0.4762  0.3661
   29SAPC    C1 3833   5.407   3.416   6.646 -0.0401 -0.1754 -1.1618
   29SAPC    HA 3834   5.487   3.494   6.647 -1.1923  1.0392 -1.3675
   29SAPC    HB 3835   5.308   3.466   6.655 -0.2413 -0.6730 -0.5537
   29SAPC    C2 3836   5.426   3.339   6.782 -0.4109  0.5518  0.0539
   29SAPC    HS 3837   5.423   3.420   6.859  3.4020 -0.5764  1.6195
   29SAPC   O21 3838   5.554   3.277   6.799  0.1262  0.2054 -0.5910
   29SAPC   C21 3839   5.654   3.358   6.809  0.3217 -0.0575  0.6639
   29SAPC   O22 3840   5.653   3.478   6.828  0.1266  0.4313  0.5809
   29SAPC   C22 3841   5.782   3.283   6.784 -0.0028  1.0083  0.3196
   29SAPC   H2R 3842   5.774   3.177   6.817  3.2904  0.9451  1.3052
   29SAPC   H2S 3843   5.791   3.289   6.673  0.7420  0.4878  0.3449
   29SAPC    C3 3844   5.308   3.236   6.802 -0.8683  0.0799  0.0692
   29SAPC    HX 3845   5.301   3.178   6.707  0.5356  1.3577 -0.8728
   29SAPC    HY 3846   5.208   3.286   6.796 -1.1249 -0.4544 -0.1299
   29SAPC   O31 3847   5.322   3.149   6.911  0.0393  0.4981  0.0303
   29SAPC   C31 3848   5.324   3.197   7.027 -0.3082  0.4221  0.5813
   29SAPC   O32 3849   5.322   3.313   7.064  0.2749 -0.7195  0.7192
   29SAPC   C32 3850   5.323   3.082   7.126  0.3739  0.6125  0.7136
   29SAPC   H2X 3851   5.401   3.006   7.106 -0.0887  0.5563 -1.0856
   29SAPC   H2Y 3852   5.227   3.025   7.120  1.2212 -1.0707  2.2648
   29SAPC   C23 3853   5.907   3.348   6.843  0.4137 -0.4076 -0.2050
   29SAPC   H3R 3854   5.917   3.458   6.833 -0.6520 -0.3577 -0.8359
   29SAPC   H3S 3855   6.002   3.302   6.807  0.2981 -0.7117 -0.1230
   29SAPC   C24 3856   5.902   3.302   6.991 -0.4922 -0.2270  0.3839
   29SAPC   H4R 3857   5.886   3.192   6.996 -2.6673  0.0311  0.1360
   29SAPC   H4S 3858   5.819   3.359   7.037 -1.4709 -1.6774  0.4833
   29SAPC   C25 3859   6.014   3.344   7.079 -0.4919 -0.7109  0.6141
   29SAPC   H5R 3860   6.076   3.422   7.030 -0.1334 -1.7476 -0.6371
   29SAPC   C26 3861   6.034   3.296   7.203 -0.0872  0.3716  0.1416
   29SAPC   H6R 3862   6.114   3.332   7.269 -1.9143  3.1194  1.0481
   29SAPC   C27 3863   5.952   3.188   7.273 -0.1919 -0.2884 -0.3313
   29SAPC   H7R 3864   5.856   3.158   7.226 -1.9020  0.7690  2.3070
   29SAPC   H7S 3865   5.916   3.234   7.367 -2.4455  1.2292 -1.8068
   29SAPC   C28 3866   6.029   3.053   7.285  0.5243  0.6021  0.1703
   29SAPC   H8R 3867   6.055   2.998   7.194 -0.9563  1.3426 -0.7531
   29SAPC   C29 3868   6.069   2.993   7.402 -0.2856  0.1302  0.0511
   29SAPC   H9R 3869   6.138   2.907   7.395 -0.4313 -0.1997  2.1083
   29SAPC  C210 3870   6.069   3.061   7.540  1.1089  0.0541 -0.0634
   29SAPC  H10R 3871   5.969   3.062   7.589  1.6901  0.7484  1.1600
   29SAPC  H10S 3872   6.109   3.163   7.520 -0.5958  1.1164  1.6204
   29SAPC  C211 3873   6.167   2.997   7.641  0.2293 -0.0149  0.0946
   29SAPC  H11R 3874   6.233   2.919   7.600  0.5435  0.6398 -0.6730
   29SAPC  C212 3875   6.169   3.030   7.770 -0.1092  0.3107  0.1913
   29SAPC  H12R 3876   6.243   2.982   7.837 -0.4979 -2.8453 -1.4534
   29SAPC  C213 3877   6.088   3.136   7.839  0.4442 -0.4724 -0.8208
   29SAPC  H13R 3878   6.038   3.081   7.921 -0.5633  0.1505 -1.0028
   29SAPC  H13S 3879   6.000   3.161   7.776  1.7360  1.3731 -1.9694
   29SAPC  C214 3880   6.163   3.262   7.870 -0.4511 -0.3755  0.3687
   29SAPC  H14R 3881   6.199   3.316   7.781 -1.1367  0.5423  0.6400
   29SAPC  C215 3882   6.189   3.301   7.992  0.0407 -0.0755 -0.8686
   29SAPC  H15R 3883   6.247   3.394   8.002  0.5959 -0.4142 -0.8798
   29SAPC  C216 3884   6.162   3.228   8.117  0.6203  0.3745 -0.3189
   29SAPC  H16R 3885   6.089   3.145   8.109 -0.4005  1.2135 -0.0274
   29SAPC  H16S 3886   6.135   3.298   8.199  0.8237  1.0176 -0.7966
   29SAPC  C217 3887   6.295   3.159   8.161  0.9006  0.5629  0.2493
   29SAPC  H17R 3888   6.326   3.088   8.081 -0.3763 -1.1832  1.2328
   29SAPC  H17S 3889   6.277   3.099   8.252 -2.0506 -0.7404 -1.0505
   29SAPC  C218 3890   6.415   3.251   8.173 -0.0777 -0.3644 -0.1164
   29SAPC  H18R 3891   6.389   3.311   8.263 -0.3149 -0.5815 -0.0376
   29SAPC  H18S 3892   6.434   3.313   8.083  2.4883  1.0422  1.2813
   29SAPC  C219 3893   6.546   3.173   8.190  0.4697  0.1362 -0.1414
   29SAPC  H19R 3894   6.566   3.125   8.092  1.7165  0.4772 -0.0592
   29SAPC  H19S 3895   6.539   3.099   8.273 -0.5676  0.6475  0.2430
   29SAPC  C220 3896   6.666   3.263   8.224 -0.1278 -0.0463 -0.0203
   29SAPC  H20R 3897   6.663   3.355   8.162 -1.3829 -0.4482 -0.5682
   29SAPC  H20S 3898   6.755   3.204   8.194 -1.3308 -1.6469 -0.5458
   29SAPC  H20T 3899   6.678   3.284   8.333  0.6670 -0.1170 -0.0833
   29SAPC   C33 3900   5.331   3.146   7.269  0.5093  0.8301  0.3999
   29SAPC   H3X 3901   5.268   3.090   7.342 -1.4878  2.2714 -0.1251
   29SAPC   H3Y 3902   5.265   3.236   7.265 -0.6195 -0.0134 -2.1814
   29SAPC   C34 3903   5.476   3.184   7.312  0.7292  1.0240 -0.4403
   29SAPC   H4X 3904   5.525   3.253   7.239  0.0622  0.2313 -1.6732
   29SAPC   H4Y 3905   5.539   3.093   7.317 -0.0618  0.3291 -2.2622
   29SAPC   C35 3906   5.483   3.246   7.452 -0.9174  0.2845 -0.1361
   29SAPC   H5X 3907   5.426   3.342   7.450  1.8899  2.1282  1.7160
   29SAPC   H5Y 3908   5.587   3.271   7.481 -1.4368  1.7163  0.5766
   29SAPC   C36 3909   5.429   3.151   7.559  0.0940 -0.3092 -0.6121
   29SAPC   H6X 3910   5.470   3.049   7.542  1.5356 -0.0356  0.8392
   29SAPC   H6Y 3911   5.319   3.149   7.546  0.0879 -2.9029 -0.5503
   29SAPC   C37 3912   5.462   3.203   7.698 -0.0056  0.3019 -0.4055
   29SAPC   H7X 3913   5.378   3.161   7.757 -0.6117  1.1216 -0.6657
   29SAPC   H7Y 3914   5.458   3.314   7.701  0.7171  0.3784 -1.5622
   29SAPC   C38 3915   5.594   3.153   7.752  0.4537  0.2028 -0.1345
   29SAPC   H8X 3916   5.678   3.195   7.694  0.9069 -0.7991 -0.2347
   29SAPC   H8Y 3917   5.602   3.043   7.734 -2.9389  0.0018 -1.1456
   29SAPC   C39 3918   5.608   3.189   7.898  0.6306  0.2317 -0.1547
   29SAPC   H9X 3919   5.580   3.296   7.910 -0.0645  0.3127 -2.1337
   29SAPC   H9Y 3920   5.714   3.182   7.931  0.7746  1.6310 -0.2408
   29SAPC  C310 3921   5.508   3.124   7.996 -0.0948 -0.0605  0.5850
   29SAPC  H10X 3922   5.507   3.015   7.977 -0.0794 -0.4306  2.5124
   29SAPC  H10Y 3923   5.407   3.169   7.990  0.4109  1.1968  0.9678
   29SAPC  C311 3924   5.549   3.130   8.148  0.5745 -0.8597  0.3246
   29SAPC  H11X 3925   5.639   3.067   8.164  0.1084 -1.5749  0.1551
   29SAPC  H11Y 3926   5.459   3.089   8.199  0.2046 -0.3697  0.0760
   29SAPC  C312 3927   5.578   3.280   8.185 -0.0891 -0.0506  0.4252
   29SAPC  H12X 3928   5.493   3.334   8.136  0.0996  1.3035  1.5435
   29SAPC  H12Y 3929   5.672   3.315   8.138  0.1241  1.7099  2.0486
   29SAPC  C313 3930   5.564   3.323   8.329  0.4452 -0.2440 -0.7071
   29SAPC  H13X 3931   5.465   3.295   8.370  1.0002  0.2002  1.0552
   29SAPC  H13Y 3932   5.586   3.431   8.346 -1.8274  0.6876 -3.0216
   29SAPC  C314 3933   5.664   3.248   8.423 -0.4507 -0.5400 -0.4144
   29SAPC  H14X 3934   5.657   3.138   8.416 -1.6282 -0.7515  2.7846
   29SAPC  H14Y 3935   5.646   3.259   8.532  1.1518  0.4862 -0.2210
   29SAPC  C315 3936   5.821   3.287   8.407  0.0283  0.6272  0.2151
   29SAPC  H15X 3937   5.831   3.397   8.418  0.1561  0.7224 -0.7261
   29SAPC  H15Y 3938   5.858   3.249   8.309 -2.5544 -0.0148 -0.5899
   29SAPC  C316 3939   5.903   3.230   8.519  0.3594 -0.2421  0.1862
   29SAPC  H16X 3940   5.853   3.133   8.541  0.4509 -0.0289  1.4252
   29SAPC  H16Y 3941   5.898   3.295   8.609 -2.1894  1.0943 -0.8178
   29SAPC  C317 3942   6.047   3.205   8.475  0.2122 -0.5400  0.4893
   29SAPC  H17X 3943   6.106   3.296   8.455  3.2420 -2.2500  1.0539
   29SAPC  H17Y 3944   6.033   3.155   8.377 -2.0717  0.0928  0.4341
   29SAPC  C318 3945   6.125   3.116   8.567  0.2832 -0.3901 -0.0041
   29SAPC  H18X 3946   6.115   3.146   8.673  1.2043  0.3108 -0.1089
   29SAPC  H18Y 3947   6.230   3.095   8.536  1.4304 -0.6306  3.5747
   29SAPC  H18Z 3948   6.086   3.014   8.547  2.7462 -1.1051 -1.7314
   30SAPC     N 3949   1.030   1.350   6.102 -0.2619 -0.3471  0.0905
   30SAPC   C12 3950   0.907   1.275   6.046  0.4958 -0.0094 -0.5860
   30SAPC  H12A 3951   0.900   1.186   6.106 -3.2666  1.5707  1.6543
   30SAPC  H12B 3952   0.923   1.255   5.941 -0.2150  0.0820 -0.7168
   30SAPC   C13 3953   1.152   1.289   6.034  0.1422 -0.1830 -0.7086
   30SAPC  H13A 3954   1.128   1.256   5.934 -0.6830 -0.5852 -0.3897
   30SAPC  H13B 3955   1.235   1.357   6.039 -1.3982  1.7009  1.0192
   30SAPC  H13C 3956   1.183   1.200   6.088  0.3798  0.7623  0.7650
   30SAPC   C14 3957   1.011   1.500   6.067  0.1089 -0.2862  0.6440
   30SAPC  H14A 3958   0.929   1.534   6.128 -0.4497  0.5562 -0.5512
   30SAPC  H14B 3959   1.095   1.555   6.107 -0.9168 -0.1699  2.8134
   30SAPC  H14C 3960   0.985   1.515   5.964  1.6194 -1.7677  0.0096
   30SAPC   C15 3961   1.035   1.345   6.256  0.3270  0.9251 -0.0871
   30SAPC  H15A 3962   1.122   1.401   6.288 -0.3617  3.2955 -2.0271
   30SAPC  H15B 3963   0.944   1.386   6.297  0.3802 -0.2977  1.3420
   30SAPC  H15C 3964   1.032   1.249   6.304 -0.9628  0.6857 -0.6135
   30SAPC   C11 3965   0.770   1.349   6.041  0.1059  0.3205 -0.5095
   30SAPC  H11A 3966   0.690   1.274   6.021  0.1135  0.4838 -1.1754
   30SAPC  H11B 3967   0.788   1.416   5.955  0.8213  2.1115  0.9602
   30SAPC     P 3968   0.633   1.380   6.261 -0.2887 -0.1671 -0.5349
   30SAPC   O13 3969   0.508   1.434   6.204  0.4630  0.1136 -0.5759
   30SAPC   O14 3970   0.657   1.237   6.290 -0.6686 -0.0993  0.5043
   30SAPC   O12 3971   0.748   1.430   6.161  0.2639 -0.5948 -0.0782
   30SAPC   O11 3972   0.677   1.463   6.388 -0.4586 -0.2813 -0.3384
   30SAPC    C1 3973   0.769   1.574   6.389 -0.3643  0.0583  0.2810
   30SAPC    HA 3974   0.871   1.530   6.383  1.1344  3.4223 -2.1295
   30SAPC    HB 3975   0.767   1.653   6.311 -0.4444  1.9972  2.1339
   30SAPC    C2 3976   0.753   1.660   6.520 -0.6542  0.1586 -0.5655
   30SAPC    HS 3977   0.807   1.757   6.521 -0.1954  0.0252  2.8996
   30SAPC   O21 3978   0.790   1.576   6.635  0.2338 -0.4238 -0.0254
   30SAPC   C21 3979   0.901   1.608   6.703  0.5569 -0.1979  0.4256
   30SAPC   O22 3980   0.961   1.714   6.687 -0.2456  0.0670  0.0032
   30SAPC   C22 3981   0.935   1.494   6.798 -0.7389 -0.2497 -0.0757
   30SAPC   H2R 3982   0.971   1.407   6.739 -0.7135 -1.2490  1.3630
   30SAPC   H2S 3983   1.021   1.536   6.853  0.8471  0.0806 -2.6261
   30SAPC    C3 3984   0.608   1.706   6.544  1.0123 -0.5436 -0.3594
   30SAPC    HX 3985   0.538   1.620   6.554 -2.3340  1.6653 -2.4496
   30SAPC    HY 3986   0.575   1.758   6.451 -0.9151  0.4698  0.8246
   30SAPC   O31 3987   0.578   1.789   6.656  0.1620  1.0643 -0.2847
   30SAPC   C31 3988   0.618   1.914   6.648  0.0615  0.9240  0.6169
   30SAPC   O32 3989   0.690   1.965   6.566 -0.1798 -0.2701  0.0865
   30SAPC   C32 3990   0.571   1.988   6.770 -0.3809  0.1685 -1.0481
   30SAPC   H2X 3991   0.462   2.007   6.758 -0.6914 -1.4797 -1.0399
   30SAPC   H2Y 3992   0.616   2.089   6.771 -0.3900  0.1812  0.0033
   30SAPC   C23 3993   0.825   1.442   6.892  0.9440  0.4450  0.3475
   30SAPC   H3R 3994   0.866   1.350   6.938  0.3691 -1.7304 -3.1768
   30SAPC   H3S 3995   0.741   1.402   6.831  1.6554 -0.9813  0.2660
   30SAPC   C24 3996   0.776   1.550   6.991 -0.3602 -0.0257 -0.7950
   30SAPC   H4R 3997   0.675   1.518   7.024  1.2884 -4.1214  0.9569
   30SAPC   H4S 3998   0.777   1.649   6.941 -0.8912 -0.0732 -0.9036
   30SAPC   C25 3999   0.860   1.573   7.111  0.0176 -0.5245 -0.4619
   30SAPC   H5R 4000   0.966   1.548   7.099  0.2342  0.5612 -0.8623
   30SAPC   C26 4001   0.825   1.646   7.213  0.3815 -0.9269 -0.0001
   30SAPC   H6R 4002   0.898   1.659   7.295 -2.4255 -2.1770  2.9316
   30SAPC   C27 4003   0.683   1.705   7.238 -0.0471 -0.5960  0.4018
   30SAPC   H7R 4004   0.601   1.661   7.177  1.8073 -1.2242 -1.7839
   30SAPC   H7S 4005   0.692   1.813   7.211 -0.8728 -0.4918  0.4972
   30SAPC   C28 4006   0.655   1.701   7.381  0.0875  0.1490 -0.9785
   30SAPC   H8R 4007   0.746   1.681   7.440 -0.2761  1.5817  0.1307
   30SAPC   C29 4008   0.537   1.724   7.442  0.2197  0.4533 -0.4770
   30SAPC   H9R 4009   0.527   1.712   7.551 -0.0890 -3.2915 -0.7600
   30SAPC  C210 4010   0.409   1.761   7.365 -0.0567 -0.0402  0.1642
   30SAPC  H10R 4011   0.335   1.681   7.387  0.1728 -0.3291 -0.1089
   30SAPC  H10S 4012   0.424   1.760   7.255  2.9952 -0.1492  0.4942
   30SAPC  C211 4013   0.358   1.895   7.394 -0.0866 -1.1918 -0.1081
   30SAPC  H11R 4014   0.420   1.978   7.358  2.6532 -2.2321  1.8606
   30SAPC  C212 4015   0.251   1.926   7.473 -0.0650 -0.0473  0.1107
   30SAPC  H12R 4016   0.223   2.032   7.483 -1.5076 -0.2738 -1.2481
   30SAPC  C213 4017   0.174   1.828   7.556 -0.2707  0.1847 -0.2393
   30SAPC  H13R 4018   0.238   1.739   7.577 -1.8972 -1.2698 -1.1913
   30SAPC  H13S 4019   0.086   1.796   7.495 -0.4562 -2.6356  1.3236
   30SAPC  C214 4020   0.118   1.880   7.691 -0.0061 -0.5697 -0.2179
   30SAPC  H14R 4021   0.016   1.922   7.684  0.4123  0.2100 -2.5900
   30SAPC  C215 4022   0.190   1.902   7.806 -0.0154 -0.2065  0.8997
   30SAPC  H15R 4023   0.141   1.945   7.895  0.7845  1.9632  0.3627
   30SAPC  C216 4024   0.341   1.873   7.818 -0.0957  0.2803 -0.3554
   30SAPC  H16R 4025   0.390   1.938   7.894 -0.4424  1.1398 -0.8548
   30SAPC  H16S 4026   0.392   1.883   7.720 -2.0169  1.4350 -1.3112
   30SAPC  C217 4027   0.364   1.723   7.877  0.7364 -0.8897  0.6741
   30SAPC  H17R 4028   0.305   1.670   7.799  1.9051 -0.3528 -0.6102
   30SAPC  H17S 4029   0.314   1.731   7.976  0.6664  3.5932  0.4962
   30SAPC  C218 4030   0.505   1.698   7.870  0.3993  0.1385 -0.5399
   30SAPC  H18R 4031   0.568   1.766   7.931 -0.4750  0.4539  0.0426
   30SAPC  H18S 4032   0.535   1.699   7.763 -0.9399  0.1144 -0.9357
   30SAPC  C219 4033   0.537   1.551   7.903  0.4421  0.2910 -0.2715
   30SAPC  H19R 4034   0.486   1.496   7.821 -1.5631  0.8734  0.5364
   30SAPC  H19S 4035   0.496   1.530   8.004 -0.9703  0.4272 -0.8015
   30SAPC  C220 4036   0.684   1.526   7.907 -1.0001  1.0417 -0.7434
   30SAPC  H20R 4037   0.733   1.603   7.971  0.8769 -0.5342 -0.1815
   30SAPC  H20S 4038   0.727   1.522   7.805 -0.4929 -0.2501 -0.5092
   30SAPC  H20T 4039   0.699   1.428   7.959  1.2369  2.4036  1.4342
   30SAPC   C33 4040   0.615   1.922   6.904  0.2086  0.2507  0.2664
   30SAPC   H3X 4041   0.725   1.924   6.913  0.3619 -0.4237 -1.2156
   30SAPC   H3Y 4042   0.571   1.820   6.903 -1.2490  0.8399 -1.1677
   30SAPC   C34 4043   0.554   1.999   7.022  0.0448  0.4435  0.2479
   30SAPC   H4X 4044   0.540   1.929   7.108  0.7653  0.7810  0.6466
   30SAPC   H4Y 4045   0.459   2.051   6.995  0.5802  2.0662  1.3803
   30SAPC   C35 4046   0.657   2.102   7.077 -0.0614  0.0138  0.3359
   30SAPC   H5X 4047   0.680   2.180   7.001 -3.5791  0.9631  0.0543
   30SAPC   H5Y 4048   0.752   2.046   7.089 -0.0384  0.1289  0.6895
   30SAPC   C36 4049   0.621   2.169   7.209  0.3233  0.1551  0.1128
   30SAPC   H6X 4050   0.522   2.219   7.206  1.6310  2.8413 -0.9538
   30SAPC   H6Y 4051   0.682   2.262   7.210 -0.2555  0.5391  0.2426
   30SAPC   C37 4052   0.662   2.096   7.334 -0.3745  0.1759 -0.2939
   30SAPC   H7X 4053   0.770   2.070   7.335 -0.6832 -1.2101 -0.5045
   30SAPC   H7Y 4054   0.615   1.996   7.347 -1.0148  0.3636 -1.1121
   30SAPC   C38 4055   0.635   2.173   7.462 -0.6226 -0.2522 -0.1931
   30SAPC   H8X 4056   0.532   2.210   7.444 -0.6969 -0.6864 -0.6843
   30SAPC   H8Y 4057   0.693   2.266   7.448 -2.6226  0.9530 -0.9024
   30SAPC   C39 4058   0.661   2.097   7.598  1.0437 -0.1185 -0.2357
   30SAPC   H9X 4059   0.771   2.089   7.613  0.8345 -2.8636  0.2682
   30SAPC   H9Y 4060   0.616   1.995   7.599  2.7460 -0.8961 -0.1933
   30SAPC  C310 4061   0.587   2.176   7.710 -0.4355 -0.6042 -0.2556
   30SAPC  H10X 4062   0.478   2.154   7.707 -0.2770 -1.3640 -0.7418
   30SAPC  H10Y 4063   0.611   2.284   7.700 -0.6217 -0.6562 -1.3846
   30SAPC  C311 4064   0.635   2.126   7.846  0.2788 -0.1652  0.1615
   30SAPC  H11X 4065   0.745   2.133   7.850  0.2610 -0.4485  1.9977
   30SAPC  H11Y 4066   0.604   2.019   7.853  1.6208 -0.6679 -1.0622
   30SAPC  C312 4067   0.575   2.196   7.964 -0.0309  0.1500  1.0449
   30SAPC  H12X 4068   0.464   2.194   7.965 -0.0661  0.2040 -0.6946
   30SAPC  H12Y 4069   0.600   2.301   7.936 -0.2835 -0.8831 -3.8472
   30SAPC  C313 4070   0.633   2.153   8.101  0.1188  1.1107  0.5394
   30SAPC  H13X 4071   0.637   2.233   8.178 -0.6086  1.3215  0.3727
   30SAPC  H13Y 4072   0.736   2.114   8.090 -0.4337 -0.9638  2.1195
   30SAPC  C314 4073   0.557   2.032   8.150 -0.3990 -0.1783 -0.1646
   30SAPC  H14X 4074   0.577   1.951   8.077  0.1268  0.0966 -0.3282
   30SAPC  H14Y 4075   0.448   2.052   8.157 -0.6624 -1.7828  1.0730
   30SAPC  C315 4076   0.603   1.969   8.289  0.0954 -0.4053 -0.4104
   30SAPC  H15X 4077   0.565   2.037   8.368 -1.6395 -2.6420  0.8094
   30SAPC  H15Y 4078   0.714   1.967   8.299  0.2113 -2.7636 -1.3547
   30SAPC  C316 4079   0.556   1.827   8.319  0.1382  1.0125 -0.4024
   30SAPC  H16X 4080   0.580   1.758   8.236  0.0142  0.9877 -0.4176
   30SAPC  H16Y 4081   0.445   1.834   8.322 -0.0195 -1.1986  0.4216
   30SAPC  C317 4082   0.612   1.772   8.451 -0.2684  0.7080  0.5353
   30SAPC  H17X 4083   0.717   1.736   8.448 -0.7349 -0.6822 -0.0660
   30SAPC  H17Y 4084   0.548   1.687   8.483  1.1729 -0.4867  0.3284
   30SAPC  C318 4085   0.601   1.862   8.579 -0.1753 -0.3116  0.4534
   30SAPC  H18X 4086   0.674   1.945   8.570 -0.6163 -0.0303 -0.7130
   30SAPC  H18Y 4087   0.625   1.806   8.672  0.0245 -1.0700 -0.0428
   30SAPC  H18Z 4088   0.502   1.911   8.594  0.2929  0.3609  1.3680
   31SAPC     N 4089   1.324   4.849   6.417  0.0803  0.3821  0.6490
   31SAPC   C12 4090   1.393   4.822   6.546 -0.0436 -0.3724 -0.7478
   31SAPC  H12A 4091   1.488   4.775   6.526 -0.0566  0.3412 -2.5939
   31SAPC  H12B 4092   1.336   4.743   6.594 -0.8996  0.1962 -0.8040
   31SAPC   C13 4093   1.294   4.718   6.350 -0.8963  0.3557  0.6862
   31SAPC  H13A 4094   1.385   4.662   6.333  0.0057  1.9394  0.0130
   31SAPC  H13B 4095   1.222   4.655   6.399 -0.6431  0.0211  0.6352
   31SAPC  H13C 4096   1.253   4.732   6.251  1.0986  0.7993 -0.1478
   31SAPC   C14 4097   1.195   4.912   6.448 -0.2270 -0.3410 -0.2852
   31SAPC  H14A 4098   1.135   4.915   6.358  0.3864  0.8820 -0.6713
   31SAPC  H14B 4099   1.146   4.872   6.536 -1.3369  0.6247 -0.4451
   31SAPC  H14C 4100   1.218   5.014   6.475  0.9424 -0.4053 -0.9640
   31SAPC   C15 4101   1.409   4.935   6.332  0.2373  0.3673  0.2878
   31SAPC  H15A 4102   1.422   5.036   6.367  2.6095 -0.1077  0.9164
   31SAPC  H15B 4103   1.504   4.893   6.304  0.4370  2.3428 -2.2726
   31SAPC  H15C 4104   1.353   4.958   6.243 -1.1100  1.6080  1.4112
   31SAPC   C11 4105   1.402   4.936   6.655 -0.2012 -0.1024  0.4677
   31SAPC  H11A 4106   1.400   4.888   6.754 -0.6508 -0.8679  0.0963
   31SAPC  H11B 4107   1.306   4.992   6.663 -0.3292 -0.6335  5.7269
   31SAPC     P 4108   1.658   4.971   6.659 -0.3119 -0.1647  0.1818
   31SAPC   O13 4109   1.678   4.846   6.594 -0.7144  0.6646  0.7259
   31SAPC   O14 4110   1.751   5.087   6.619 -0.3722  0.2091 -0.6014
   31SAPC   O12 4111   1.509   5.024   6.627  0.3163  0.0395 -0.5281
   31SAPC   O11 4112   1.658   4.951   6.818  0.4155 -0.9130 -0.3086
   31SAPC    C1 4113   1.638   5.072   6.901 -0.0778 -0.3836  0.2516
   31SAPC    HA 4114   1.723   5.143   6.905 -0.7052  0.6487 -2.3300
   31SAPC    HB 4115   1.550   5.129   6.863  0.2328  0.6796  1.0998
   31SAPC    C2 4116   1.601   5.020   7.041 -0.4708  0.2669 -0.1795
   31SAPC    HS 4117   1.576   5.112   7.099 -3.8199  0.4591 -1.6636
   31SAPC   O21 4118   1.697   4.930   7.098 -0.5723 -0.3197 -0.3504
   31SAPC   C21 4119   1.808   4.990   7.125  1.1056 -0.0952  0.6275
   31SAPC   O22 4120   1.827   5.112   7.132  0.2256 -0.4085 -0.2683
   31SAPC   C22 4121   1.921   4.891   7.149 -0.0101  0.8710  0.2511
   31SAPC   H2R 4122   1.918   4.834   7.244  1.6393  0.6382  0.1900
   31SAPC   H2S 4123   1.927   4.821   7.063 -3.5073  0.1990  0.4012
   31SAPC    C3 4124   1.464   4.943   7.045 -0.3646 -0.7325 -0.8070
   31SAPC    HX 4125   1.488   4.844   7.000 -0.0392 -1.7766  1.5409
   31SAPC    HY 4126   1.386   4.990   6.981  0.7559  2.2453 -0.1426
   31SAPC   O31 4127   1.415   4.919   7.178  0.3572 -0.3818  0.1799
   31SAPC   C31 4128   1.355   5.036   7.222 -0.1639  0.9514 -0.0300
   31SAPC   O32 4129   1.318   5.124   7.150  0.0300  0.7159  0.2314
   31SAPC   C32 4130   1.340   5.028   7.376  0.4330 -0.9555 -0.1025
   31SAPC   H2X 4131   1.435   4.998   7.425  0.1309  0.8579  1.7556
   31SAPC   H2Y 4132   1.258   4.956   7.396 -0.0704 -0.1525  0.8412
   31SAPC   C23 4133   2.052   4.963   7.146 -0.4647 -0.6396  0.7489
   31SAPC   H3R 4134   2.067   5.043   7.070  1.7689 -1.7158 -0.0139
   31SAPC   H3S 4135   2.118   4.880   7.113 -2.0948 -1.4960 -0.5441
   31SAPC   C24 4136   2.091   5.007   7.287  0.3561  0.3456 -0.0633
   31SAPC   H4R 4137   2.090   4.923   7.360 -1.5859  1.4081  1.2174
   31SAPC   H4S 4138   2.009   5.066   7.335  0.2024  0.9805 -1.0937
   31SAPC   C25 4139   2.221   5.087   7.290  0.6550 -0.2273  0.6180
   31SAPC   H5R 4140   2.243   5.142   7.198  0.4771  1.2064  1.3972
   31SAPC   C26 4141   2.297   5.111   7.402  0.7108 -0.1266 -0.4599
   31SAPC   H6R 4142   2.389   5.172   7.400  0.5928  0.0349 -1.1764
   31SAPC   C27 4143   2.268   5.054   7.548 -0.4626 -0.3648 -0.0935
   31SAPC   H7R 4144   2.363   5.035   7.602 -0.0690  0.6249 -0.4021
   31SAPC   H7S 4145   2.218   4.955   7.543 -0.7046 -0.3616  1.5877
   31SAPC   C28 4146   2.192   5.158   7.629  0.1202 -0.0071 -0.4297
   31SAPC   H8R 4147   2.109   5.207   7.575 -0.9612 -0.1888  1.0146
   31SAPC   C29 4148   2.201   5.187   7.756 -0.6636  0.2111  0.2550
   31SAPC   H9R 4149   2.146   5.277   7.785  2.2233  1.6876  1.5205
   31SAPC  C210 4150   2.289   5.143   7.870 -0.2483 -0.1500 -0.2238
   31SAPC  H10R 4151   2.360   5.223   7.901  1.2067 -1.4131 -0.1527
   31SAPC  H10S 4152   2.356   5.056   7.852  1.4942  0.6780  1.8200
   31SAPC  C211 4153   2.209   5.107   7.995 -0.4612 -0.5594  0.0637
   31SAPC  H11R 4154   2.116   5.164   8.012  0.1112 -0.6567  4.7668
   31SAPC  C212 4155   2.244   5.026   8.098 -0.5319  0.1986  0.5005
   31SAPC  H12R 4156   2.173   5.016   8.181 -1.7658 -1.2027 -0.6646
   31SAPC  C213 4157   2.376   4.950   8.115 -0.0569 -0.7639  0.8746
   31SAPC  H13R 4158   2.458   5.021   8.139  0.5497 -1.1274 -0.0593
   31SAPC  H13S 4159   2.397   4.895   8.021 -1.7926 -1.0475  0.6217
   31SAPC  C214 4160   2.378   4.840   8.226  0.3321 -0.5229 -0.0211
   31SAPC  H14R 4161   2.367   4.737   8.190  0.1616 -0.7317  0.6196
   31SAPC  C215 4162   2.392   4.854   8.360 -0.3321  0.4847  0.1959
   31SAPC  H15R 4163   2.405   4.765   8.423 -1.0237  0.1475 -0.1200
   31SAPC  C216 4164   2.418   4.983   8.444 -0.2420 -0.5622 -0.0193
   31SAPC  H16R 4165   2.412   5.064   8.369 -0.1763 -0.5015  0.0412
   31SAPC  H16S 4166   2.519   4.975   8.489 -1.7081 -2.5147  3.3072
   31SAPC  C217 4167   2.318   5.015   8.555 -0.4031 -0.2753 -1.2718
   31SAPC  H17R 4168   2.292   4.925   8.613  1.7636  0.8097  1.6124
   31SAPC  H17S 4169   2.227   5.053   8.504 -1.5849  0.9463  1.5821
   31SAPC  C218 4170   2.376   5.149   8.622  0.1291  0.6980  0.4916
   31SAPC  H18R 4171   2.389   5.228   8.545  0.8617 -1.1325 -1.3325
   31SAPC  H18S 4172   2.477   5.125   8.660  0.7406  2.1958 -0.0772
   31SAPC  C219 4173   2.281   5.203   8.731  0.0027  0.0943  0.6621
   31SAPC  H19R 4174   2.214   5.119   8.761  1.2044 -1.1285  0.0332
   31SAPC  H19S 4175   2.228   5.293   8.693  0.4016 -0.7707 -2.2143
   31SAPC  C220 4176   2.353   5.249   8.855 -0.2887 -0.1975 -0.1752
   31SAPC  H20R 4177   2.276   5.278   8.928 -0.8445  0.8486 -1.1411
   31SAPC  H20S 4178   2.419   5.336   8.831  0.5709 -0.7879 -0.0077
   31SAPC  H20T 4179   2.414   5.166   8.898  0.8603 -0.5417 -2.3086
   31SAPC   C33 4180   1.296   5.157   7.450 -0.2355 -0.3198  0.4053
   31SAPC   H3X 4181   1.204   5.189   7.398 -0.1220 -0.5303  0.0698
   31SAPC   H3Y 4182   1.377   5.232   7.439 -0.8096  0.2375 -0.1296
   31SAPC   C34 4183   1.269   5.136   7.598  0.1219  0.3349 -0.1455
   31SAPC   H4X 4184   1.169   5.092   7.616  0.0216  0.6875  0.1609
   31SAPC   H4Y 4185   1.265   5.237   7.645 -0.8436 -0.3597  1.3129
   31SAPC   C35 4186   1.378   5.055   7.682 -0.5432  0.6392  0.1614
   31SAPC   H5X 4187   1.477   5.105   7.675  1.4150 -3.0645 -0.9290
   31SAPC   H5Y 4188   1.387   4.957   7.631  3.0613  0.2907  1.2479
   31SAPC   C36 4189   1.346   5.021   7.829 -0.0835  0.6065  0.1403
   31SAPC   H6X 4190   1.396   4.924   7.851 -2.9107 -0.8823  0.4240
   31SAPC   H6Y 4191   1.236   5.004   7.830  0.0789 -0.5245 -0.0218
   31SAPC   C37 4192   1.387   5.129   7.922  0.2747  0.0913 -0.6398
   31SAPC   H7X 4193   1.379   5.229   7.874  0.5872  0.4344  0.0151
   31SAPC   H7Y 4194   1.494   5.114   7.946  0.4352  1.4239 -0.4216
   31SAPC   C38 4195   1.304   5.131   8.045 -0.0068  0.2049 -0.4222
   31SAPC   H8X 4196   1.297   5.038   8.105 -2.8949  1.3722  1.2473
   31SAPC   H8Y 4197   1.196   5.144   8.021 -0.0720 -2.7261 -2.2674
   31SAPC   C39 4198   1.347   5.238   8.144 -0.0639  0.0742 -0.1495
   31SAPC   H9X 4199   1.352   5.334   8.088  3.1489 -0.5449 -1.1077
   31SAPC   H9Y 4200   1.455   5.228   8.168  0.0688  0.9016 -0.3599
   31SAPC  C310 4201   1.263   5.249   8.270  0.6739  0.0795 -0.5795
   31SAPC  H10X 4202   1.265   5.152   8.325  0.5186  0.8889  0.9049
   31SAPC  H10Y 4203   1.157   5.265   8.241  0.9734  3.7969 -0.1702
   31SAPC  C311 4204   1.311   5.365   8.364 -0.3115 -0.6214  0.2441
   31SAPC  H11X 4205   1.220   5.411   8.408  1.1552  0.9810  1.7854
   31SAPC  H11Y 4206   1.347   5.452   8.304  1.3313 -1.0140  0.6203
   31SAPC  C312 4207   1.416   5.329   8.472  0.6502 -0.4359 -0.4135
   31SAPC  H12X 4208   1.507   5.304   8.413  2.1499  1.0766  1.1424
   31SAPC  H12Y 4209   1.376   5.239   8.523  2.6759 -2.0587 -1.5438
   31SAPC  C313 4210   1.450   5.444   8.565  0.2316 -0.2363  0.6469
   31SAPC  H13X 4211   1.361   5.479   8.621  0.2657 -0.8289  1.0838
   31SAPC  H13Y 4212   1.489   5.533   8.511 -2.5687  0.3959 -0.5190
   31SAPC  C314 4213   1.546   5.401   8.686  0.0508  0.0701 -0.7117
   31SAPC  H14X 4214   1.644   5.357   8.657 -0.8533 -2.6321 -0.0313
   31SAPC  H14Y 4215   1.513   5.307   8.735  2.0708 -1.0499 -1.3411
   31SAPC  C315 4216   1.570   5.503   8.797  0.1544  0.2861 -0.3503
   31SAPC  H15X 4217   1.611   5.599   8.762 -0.7752  0.2595 -1.5917
   31SAPC  H15Y 4218   1.643   5.467   8.872 -0.4025  2.3251  1.2718
   31SAPC  C316 4219   1.445   5.545   8.875  0.4197  0.2800 -0.6996
   31SAPC  H16X 4220   1.370   5.591   8.807 -1.1386  0.2816  0.9692
   31SAPC  H16Y 4221   1.479   5.618   8.952 -0.4922 -3.0038  3.1141
   31SAPC  C317 4222   1.376   5.433   8.967  0.0867  0.0309 -0.1455
   31SAPC  H17X 4223   1.460   5.394   9.029 -0.1744  0.7000  0.6397
   31SAPC  H17Y 4224   1.341   5.348   8.905  0.0490 -1.9532  2.4286
   31SAPC  C318 4225   1.261   5.490   9.062 -0.3117 -0.7722 -0.2629
   31SAPC  H18X 4226   1.214   5.413   9.127 -2.7424  2.0472  1.5683
   31SAPC  H18Y 4227   1.186   5.554   9.010  0.7959  0.9913  0.2376
   31SAPC  H18Z 4228   1.305   5.556   9.139 -0.3372 -1.0337 -0.0201
   32SAPC     N 4229   4.276   4.617   6.302  0.5464  0.0021  0.1489
   32SAPC   C12 4230   4.178   4.575   6.193 -0.3650 -0.2573 -0.2791
   32SAPC  H12A 4231   4.191   4.469   6.174 -2.3931 -0.4723 -0.7740
   32SAPC  H12B 4232   4.203   4.626   6.102 -2.2720  0.4482 -0.4673
   32SAPC   C13 4233   4.419   4.564   6.262  1.0913 -0.2405  0.3140
   32SAPC  H13A 4234   4.489   4.615   6.327 -0.0544  1.3311  0.3694
   32SAPC  H13B 4235   4.436   4.458   6.266  2.9426 -0.1368 -1.9092
   32SAPC  H13C 4236   4.432   4.587   6.157 -0.5398  1.6606  0.4694
   32SAPC   C14 4237   4.282   4.769   6.306 -0.3348  0.4317  0.2852
   32SAPC  H14A 4238   4.366   4.800   6.366 -1.4706  3.9243  0.2918
   32SAPC  H14B 4239   4.284   4.813   6.208  1.4562  1.7279  0.8554
   32SAPC  H14C 4240   4.193   4.809   6.354  0.2964 -1.7375  3.6311
   32SAPC   C15 4241   4.228   4.555   6.430 -0.5388  0.3233  0.1171
   32SAPC  H15A 4242   4.134   4.601   6.456 -0.7710  1.2585 -2.0707
   32SAPC  H15B 4243   4.220   4.448   6.417 -1.7161  0.5072 -0.9031
   32SAPC  H15C 4244   4.301   4.581   6.505  1.2711 -3.1857 -0.2208
   32SAPC   C11 4245   4.025   4.594   6.222  0.0785  0.3956  0.8118
   32SAPC  H11A 4246   3.989   4.563   6.122  0.9661 -1.7796  1.1159
   32SAPC  H11B 4247   4.010   4.701   6.250 -0.5627  0.1378  1.4638
   32SAPC     P 4248   3.814   4.525   6.349 -0.1245 -0.1506 -0.0965
   32SAPC   O13 4249   3.746   4.594   6.233  0.3027  0.0355 -0.1105
   32SAPC   O14 4250   3.763   4.392   6.391 -0.2861 -0.0841 -0.0325
   32SAPC   O12 4251   3.967   4.498   6.308  0.2053  0.3266 -0.5281
   32SAPC   O11 4252   3.814   4.626   6.467  0.5941  0.1559 -0.3637
   32SAPC    C1 4253   3.899   4.620   6.587  0.5849 -0.4171  0.4372
   32SAPC    HA 4254   3.943   4.519   6.598  0.6635 -0.3907  0.3732
   32SAPC    HB 4255   3.984   4.692   6.591  1.3064 -1.2874  1.2303
   32SAPC    C2 4256   3.802   4.661   6.703  0.3293 -0.4808  0.0596
   32SAPC    HS 4257   3.741   4.747   6.670 -0.4129 -1.0884 -0.1780
   32SAPC   O21 4258   3.883   4.691   6.814 -0.2987 -0.3993  0.1266
   32SAPC   C21 4259   3.900   4.815   6.851  0.1869 -0.2243  0.3263
   32SAPC   O22 4260   3.846   4.912   6.807 -0.1177 -0.4408  0.2971
   32SAPC   C22 4261   3.998   4.813   6.968  0.6172 -0.5014 -0.1983
   32SAPC   H2R 4262   4.086   4.753   6.938  0.4863 -0.0994 -1.4309
   32SAPC   H2S 4263   4.022   4.918   6.992 -2.1709  0.0974  0.4002
   32SAPC    C3 4264   3.711   4.544   6.730  0.0754 -0.1992  0.5881
   32SAPC    HX 4265   3.773   4.461   6.770 -0.0783 -0.4057  0.4026
   32SAPC    HY 4266   3.661   4.506   6.638  0.3078 -2.2030  1.2490
   32SAPC   O31 4267   3.612   4.584   6.824  0.3329 -0.6178 -0.5535
   32SAPC   C31 4268   3.564   4.474   6.885 -0.7833  0.4329 -0.1241
   32SAPC   O32 4269   3.583   4.362   6.851  0.6735 -0.2243 -0.5331
   32SAPC   C32 4270   3.468   4.522   6.996 -0.0156  0.2414 -0.4980
   32SAPC   H2X 4271   3.373   4.549   6.946 -0.9918  3.1109  2.5633
   32SAPC   H2Y 4272   3.502   4.619   7.038  0.5980 -0.5233  0.8623
   32SAPC   C23 4273   3.946   4.742   7.099  0.0531  0.4262  0.5350
   32SAPC   H3R 4274   4.036   4.710   7.156  1.1388 -0.3342 -1.5072
   32SAPC   H3S 4275   3.893   4.652   7.062 -0.7820  0.8870  0.5921
   32SAPC   C24 4276   3.856   4.825   7.188  0.3278  0.4234  0.1185
   32SAPC   H4R 4277   3.784   4.871   7.117  0.1090 -1.9088 -1.2588
   32SAPC   H4S 4278   3.913   4.915   7.221  0.4179  0.6749 -0.6970
   32SAPC   C25 4279   3.786   4.740   7.295  0.3165 -0.8352 -0.5358
   32SAPC   H5R 4280   3.718   4.659   7.267 -2.4863  1.1191  0.1324
   32SAPC   C26 4281   3.776   4.765   7.428 -0.3299  0.4234 -0.1308
   32SAPC   H6R 4282   3.714   4.698   7.489  1.2277 -0.6440  0.3422
   32SAPC   C27 4283   3.849   4.872   7.499 -0.4180  1.0253  0.1028
   32SAPC   H7R 4284   3.947   4.876   7.446 -0.7651  2.8754 -0.4799
   32SAPC   H7S 4285   3.881   4.824   7.594  1.2569  0.8411 -0.5230
   32SAPC   C28 4286   3.779   5.004   7.507  0.5796 -0.5727 -0.3379
   32SAPC   H8R 4287   3.711   5.032   7.425 -1.4206  1.4507  1.8734
   32SAPC   C29 4288   3.763   5.075   7.620 -0.2401 -0.6750 -0.1879
   32SAPC   H9R 4289   3.703   5.167   7.625 -0.6860 -0.8719 -1.4834
   32SAPC  C210 4290   3.826   5.045   7.753  0.2734  0.1700  0.3663
   32SAPC  H10R 4291   3.907   5.119   7.771  2.4152 -0.9457 -3.5693
   32SAPC  H10S 4292   3.889   4.954   7.745  0.9446  0.6537  0.0068
   32SAPC  C211 4293   3.724   5.032   7.857 -0.9761  0.1790  0.2091
   32SAPC  H11R 4294   3.625   4.995   7.827 -2.2572  1.9077  2.0078
   32SAPC  C212 4295   3.746   5.064   7.987 -0.2217  0.0373  0.1281
   32SAPC  H12R 4296   3.657   5.050   8.051 -1.3481  0.0998 -1.3903
   32SAPC  C213 4297   3.874   5.113   8.055 -0.4550  0.1218 -0.3163
   32SAPC  H13R 4298   3.868   5.222   8.073  2.1473  0.1202  1.0581
   32SAPC  H13S 4299   3.963   5.100   7.989  1.7817 -0.4768  2.6158
   32SAPC  C214 4300   3.907   5.049   8.181 -0.4717  0.1252 -0.5510
   32SAPC  H14R 4301   3.821   5.000   8.229 -2.1493  1.1115 -2.3905
   32SAPC  C215 4302   4.022   5.080   8.249 -0.3903  1.0503 -0.3991
   32SAPC  H15R 4303   4.035   5.030   8.346  1.3385  0.9921 -0.6333
   32SAPC  C216 4304   4.129   5.175   8.203  0.3616  0.5008 -0.2089
   32SAPC  H16R 4305   4.097   5.218   8.106  0.0699 -0.5311 -0.5899
   32SAPC  H16S 4306   4.225   5.120   8.201 -1.1322 -2.3488 -2.1199
   32SAPC  C217 4307   4.149   5.295   8.298  0.4091  0.4638 -0.5607
   32SAPC  H17R 4308   4.234   5.352   8.255 -0.2271 -0.0354 -2.6259
   32SAPC  H17S 4309   4.177   5.255   8.398  1.3167 -1.7455 -1.6107
   32SAPC  C218 4310   4.023   5.377   8.320 -0.9741 -0.4811  0.4195
   32SAPC  H18R 4311   3.942   5.307   8.351  0.0275 -2.0766 -0.4135
   32SAPC  H18S 4312   4.001   5.424   8.222 -0.8002  0.4563  0.8282
   32SAPC  C219 4313   4.039   5.482   8.430 -0.0720  0.5626 -0.0310
   32SAPC  H19R 4314   4.071   5.433   8.524  1.7917 -0.5459 -1.1855
   32SAPC  H19S 4315   3.948   5.545   8.436  0.3914  1.1402  1.2300
   32SAPC  C220 4316   4.155   5.581   8.396 -0.1825 -0.0155  0.3794
   32SAPC  H20R 4317   4.161   5.667   8.466  0.0053  0.1686  0.1388
   32SAPC  H20S 4318   4.133   5.627   8.297  1.3954  0.8850  0.4050
   32SAPC  H20T 4319   4.249   5.521   8.395 -0.6138 -0.7373  1.6081
   32SAPC   C33 4320   3.428   4.420   7.101 -0.6568 -0.5239  0.2524
   32SAPC   H3X 4321   3.422   4.314   7.066  1.7773 -0.9527  0.9433
   32SAPC   H3Y 4322   3.330   4.446   7.145 -0.4512  1.1028 -0.1863
   32SAPC   C34 4323   3.534   4.411   7.214 -0.7267  0.4857  0.1374
   32SAPC   H4X 4324   3.538   4.511   7.261  0.7116  0.4967  0.0137
   32SAPC   H4Y 4325   3.630   4.389   7.162 -1.9925 -3.1197 -0.9645
   32SAPC   C35 4326   3.500   4.318   7.333 -0.4643 -0.3691  0.1632
   32SAPC   H5X 4327   3.482   4.216   7.294  0.3610 -0.1596 -0.8105
   32SAPC   H5Y 4328   3.408   4.360   7.380 -1.9861 -2.7648 -0.4965
   32SAPC   C36 4329   3.608   4.317   7.440  0.4430 -0.1000 -0.0517
   32SAPC   H6X 4330   3.626   4.421   7.475  3.1064 -0.3538 -0.4486
   32SAPC   H6Y 4331   3.700   4.277   7.392  0.7155  2.7238 -2.1525
   32SAPC   C37 4332   3.546   4.259   7.567  0.9721  0.3655 -0.0901
   32SAPC   H7X 4333   3.496   4.162   7.547  0.8416  0.1054  1.4141
   32SAPC   H7Y 4334   3.467   4.324   7.610  0.4683 -0.6983  0.6130
   32SAPC   C38 4335   3.648   4.223   7.676  0.4610 -1.0560 -0.6719
   32SAPC   H8X 4336   3.694   4.318   7.709  1.1019 -0.5918 -2.7891
   32SAPC   H8Y 4337   3.719   4.147   7.636  2.2655  0.0000  0.3846
   32SAPC   C39 4338   3.585   4.156   7.795 -0.0172  0.9830  0.2520
   32SAPC   H9X 4339   3.659   4.103   7.859  0.5101 -0.9822 -1.8373
   32SAPC   H9Y 4340   3.513   4.080   7.759  1.0794  0.4802 -0.9721
   32SAPC  C310 4341   3.504   4.248   7.892  0.6960 -0.1242  0.1318
   32SAPC  H10X 4342   3.414   4.285   7.837  1.6030  1.7273 -0.2074
   32SAPC  H10Y 4343   3.563   4.336   7.924  0.0223  0.6474 -0.6684
   32SAPC  C311 4344   3.461   4.168   8.016 -0.2687 -0.3421 -0.1472
   32SAPC  H11X 4345   3.445   4.060   7.991  1.0932 -0.7297  0.5560
   32SAPC  H11Y 4346   3.362   4.216   8.031  0.2484  0.2145  1.7304
   32SAPC  C312 4347   3.555   4.185   8.132  0.3181 -0.1407 -0.1084
   32SAPC  H12X 4348   3.542   4.286   8.177  1.0145 -0.4840  0.9068
   32SAPC  H12Y 4349   3.660   4.173   8.097  1.3360  2.4280  1.7389
   32SAPC  C313 4350   3.534   4.087   8.244  0.2851  0.1409  0.3708
   32SAPC  H13X 4351   3.430   4.053   8.264  0.7842 -1.8148 -0.0733
   32SAPC  H13Y 4352   3.577   4.140   8.332  0.1437  2.4202 -0.8592
   32SAPC  C314 4353   3.587   3.951   8.191  0.7800  0.8507 -0.0039
   32SAPC  H14X 4354   3.680   3.967   8.131  0.6236 -1.4247 -0.9485
   32SAPC  H14Y 4355   3.507   3.909   8.127  0.5656 -0.3175  1.0013
   32SAPC  C315 4356   3.612   3.840   8.308  0.7520  1.1936  0.2530
   32SAPC  H15X 4357   3.521   3.850   8.370 -0.2562  1.5804 -1.2381
   32SAPC  H15Y 4358   3.706   3.865   8.363  1.5486 -0.7705 -0.1176
   32SAPC  C316 4359   3.611   3.696   8.255 -0.7015  0.3272  0.0702
   32SAPC  H16X 4360   3.694   3.676   8.184 -1.1173  2.4422 -1.1030
   32SAPC  H16Y 4361   3.527   3.678   8.185 -0.9942  0.0421  0.4929
   32SAPC  C317 4362   3.596   3.583   8.355 -0.1864  0.2231 -0.1677
   32SAPC  H17X 4363   3.494   3.594   8.398 -0.1167  1.1653 -0.2227
   32SAPC  H17Y 4364   3.678   3.591   8.429 -0.9797  0.5471  0.6954
   32SAPC  C318 4365   3.613   3.444   8.295  0.0885 -0.5996 -0.0895
   32SAPC  H18X 4366   3.554   3.436   8.202  1.1209 -5.0857 -0.6040
   32SAPC  H18Y 4367   3.592   3.370   8.375  0.9980  0.2435  0.9621
   32SAPC  H18Z 4368   3.713   3.423   8.251  0.0744 -0.2623 -0.2858
   33POPC     N 4369   5.773   6.128  10.403  0.2858 -0.0470  0.4964
   33POPC   C12 4370   5.743   6.000  10.480 -0.5053 -0.3210  0.4534
   33POPC  H12A 4371   5.780   5.915  10.426  1.8989  0.9558 -0.0706
   33POPC  H12B 4372   5.637   5.989  10.493 -0.5539  0.4681  0.8370
   33POPC   C13 4373   5.920   6.141  10.381 -0.0124 -0.2463  0.5784
   33POPC  H13A 4374   5.965   6.054  10.335  3.6706  1.1950  1.0908
   33POPC  H13B 4375   5.943   6.234  10.330  2.0295 -2.4386 -2.9379
   33POPC  H13C 4376   5.963   6.148  10.480  0.3782 -1.2928  0.4920
   33POPC   C14 4377   5.706   6.134  10.273  0.3972  0.2493  0.7296
   33POPC  H14A 4378   5.746   6.221  10.223  0.5786 -0.4524 -0.3726
   33POPC  H14B 4379   5.726   6.043  10.219 -4.0615 -2.0277  2.4230
   33POPC  H14C 4380   5.599   6.147  10.276  0.1747 -0.6671 -1.4990
   33POPC   C15 4381   5.738   6.249  10.481 -0.0381 -0.1189  0.5135
   33POPC  H15A 4382   5.635   6.253  10.512 -0.4587  3.3383 -0.8698
   33POPC  H15B 4383   5.771   6.341  10.434  0.7503 -0.6123  0.0873
   33POPC  H15C 4384   5.796   6.249  10.572  1.7714  0.2715 -0.5827
   33POPC   C11 4385   5.791   5.991  10.626 -0.5552 -0.2880 -0.0662
   33POPC  H11A 4386   5.764   5.887  10.657  1.2609 -0.1463  2.3002
   33POPC  H11B 4387   5.742   6.076  10.678  0.8776  1.6663 -1.7517
   33POPC     P 4388   6.042   5.905  10.635 -0.2717 -0.3913 -0.2605
   33POPC   O13 4389   6.032   5.805  10.744  0.3718 -0.6652  0.1991
   33POPC   O14 4390   6.172   5.972  10.634 -0.3318 -0.5733  0.0453
   33POPC   O12 4391   5.929   6.019  10.647 -0.4162 -0.4536  0.1682
   33POPC   O11 4392   6.016   5.834  10.500 -0.3149  0.0390 -0.0822
   33POPC    C1 4393   6.110   5.809  10.396 -0.1996  0.1322  0.1286
   33POPC    HA 4394   6.195   5.881  10.392  0.3110 -0.4974 -0.6283
   33POPC    HB 4395   6.159   5.710  10.409 -0.5775  0.0230  0.7655
   33POPC    C2 4396   6.029   5.816  10.266  0.3752  0.4635  0.7899
   33POPC    HS 4397   5.948   5.891  10.279 -0.1490  0.1206 -0.3317
   33POPC   O21 4398   5.969   5.687  10.229  0.2972 -0.7535 -0.4198
   33POPC   C21 4399   5.841   5.691  10.204  0.3647 -0.4071  0.1187
   33POPC   O22 4400   5.773   5.795  10.210  0.2143 -0.3166  0.7710
   33POPC   C22 4401   5.784   5.547  10.202 -0.5697  0.8805 -0.4004
   33POPC   H2R 4402   5.737   5.517  10.298  0.4131  0.0588 -0.1645
   33POPC   H2S 4403   5.857   5.472  10.167 -1.0297  0.4220 -0.3972
   33POPC    C3 4404   6.123   5.860  10.147  0.2577  0.0856 -0.2434
   33POPC    HX 4405   6.206   5.787  10.152 -2.7181 -3.5495  0.5055
   33POPC    HY 4406   6.173   5.955  10.177 -0.3525  0.3363  0.0071
   33POPC   O31 4407   6.060   5.865  10.014 -0.5912 -0.2967  0.1891
   33POPC   C31 4408   6.019   5.980   9.977  0.4406  0.9090 -0.5745
   33POPC   O32 4409   6.006   6.084  10.044 -0.1410  0.7216  0.1348
   33POPC   C32 4410   5.981   5.964   9.833 -0.2977 -0.3705  0.1500
   33POPC   H2X 4411   5.918   5.873   9.823 -0.7826 -0.1303  0.9436
   33POPC   H2Y 4412   6.069   5.968   9.765 -0.6452  0.1709 -0.2774
   33POPC   C23 4413   5.674   5.542  10.088  0.6250  0.0383 -0.3201
   33POPC   H3R 4414   5.576   5.587  10.115  1.2435  0.5917  1.1245
   33POPC   H3S 4415   5.661   5.432  10.087  1.4516 -0.1203  1.6236
   33POPC   C24 4416   5.712   5.589   9.952 -0.9274 -0.0335 -0.0609
   33POPC   H4R 4417   5.731   5.699   9.957 -0.1538 -0.1942  0.9324
   33POPC   H4S 4418   5.620   5.565   9.894 -1.4600 -0.0522  0.7724
   33POPC   C25 4419   5.841   5.527   9.904 -0.0209  0.4355  0.0490
   33POPC   H5R 4420   5.837   5.416   9.909 -2.1294  0.5149  2.6471
   33POPC   H5S 4421   5.928   5.567   9.959 -2.0780  1.2073  3.0078
   33POPC   C26 4422   5.876   5.560   9.756 -0.8049  0.5403  0.1542
   33POPC   H6R 4423   5.872   5.668   9.734 -1.2725  0.0127 -2.9209
   33POPC   H6S 4424   5.798   5.520   9.687  1.5081 -1.3081 -1.5812
   33POPC   C27 4425   6.012   5.505   9.712 -0.3662 -0.1268 -0.4440
   33POPC   H7R 4426   6.032   5.533   9.606 -2.8082 -0.9901 -1.2061
   33POPC   H7S 4427   6.026   5.395   9.715  2.3831  0.1624  0.0254
   33POPC   C28 4428   6.127   5.561   9.799 -0.4206 -0.7729 -0.0408
   33POPC   H8R 4429   6.117   5.513   9.898 -1.1534 -0.8522 -0.1452
   33POPC   H8S 4430   6.117   5.671   9.818  1.1886 -0.4793 -0.7694
   33POPC   C29 4431   6.269   5.535   9.752 -0.6669  0.2567  0.6886
   33POPC   H91 4432   6.303   5.431   9.751 -1.5257 -0.0673 -1.7388
   33POPC  C210 4433   6.368   5.623   9.717  0.7792  0.1353 -0.0623
   33POPC  H101 4434   6.465   5.588   9.678 -0.1337 -0.8966 -1.5299
   33POPC  C211 4435   6.353   5.768   9.714  0.1037  0.2046 -0.2709
   33POPC  H11R 4436   6.459   5.801   9.704  0.0652  0.3822 -0.1094
   33POPC  H11S 4437   6.310   5.816   9.805 -1.2326 -1.2936 -0.0630
   33POPC  C212 4438   6.265   5.813   9.592 -0.4263  0.6091 -0.7411
   33POPC  H12R 4439   6.164   5.769   9.606  0.1901 -0.1202  2.0718
   33POPC  H12S 4440   6.297   5.759   9.500  1.8333 -0.1981  0.4416
   33POPC  C213 4441   6.279   5.961   9.540 -0.6740  0.5107 -0.7118
   33POPC  H13R 4442   6.383   5.986   9.511 -0.0893 -0.8332  0.1470
   33POPC  H13S 4443   6.237   6.036   9.610  1.9576  1.5706 -0.1684
   33POPC  C214 4444   6.199   5.967   9.405 -0.7048  0.2315 -0.1287
   33POPC  H14R 4445   6.095   5.938   9.430 -0.2676  1.1302  3.0660
   33POPC  H14S 4446   6.242   5.901   9.325 -0.8892  1.6460 -1.4430
   33POPC  C215 4447   6.207   6.111   9.348  0.5686 -0.3885 -0.0269
   33POPC  H15R 4448   6.314   6.140   9.359  0.1824  0.6348  1.4085
   33POPC  H15S 4449   6.154   6.174   9.423  0.4743 -0.6769  0.1504
   33POPC  C216 4450   6.154   6.127   9.205  0.5142 -0.1891  0.4500
   33POPC  H16R 4451   6.226   6.070   9.143 -1.4071 -1.4768 -0.7023
   33POPC  H16S 4452   6.169   6.233   9.173  2.0871  0.0179  1.7366
   33POPC  C217 4453   6.015   6.073   9.186 -0.5798 -0.0344 -0.2732
   33POPC  H17R 4454   6.014   5.962   9.193 -0.4077  0.0071  0.6411
   33POPC  H17S 4455   5.986   6.098   9.082  3.6569 -0.7477 -1.8311
   33POPC  C218 4456   5.906   6.136   9.272  0.1003 -0.8113 -0.5608
   33POPC  H18R 4457   5.883   6.235   9.228  0.0419  0.3208  1.8315
   33POPC  H18S 4458   5.938   6.157   9.377 -1.8051 -0.0979 -0.0789
   33POPC  H18T 4459   5.816   6.072   9.263  1.0102 -2.5114  1.4607
   33POPC   C33 4460   5.887   6.072   9.788  0.0708 -1.0185 -0.3011
   33POPC   H3X 4461   5.803   6.071   9.860  0.9681 -1.8685  0.7678
   33POPC   H3Y 4462   5.855   6.047   9.685  0.5178  1.6829 -1.1536
   33POPC   C34 4463   5.940   6.220   9.787  0.0825 -0.3965  0.3755
   33POPC   H4X 4464   5.938   6.254   9.892  2.6701 -1.0101  0.7042
   33POPC   H4Y 4465   5.864   6.279   9.731 -0.9369  0.7919  2.8962
   33POPC   C35 4466   6.077   6.252   9.721  0.3274 -0.3061 -0.1147
   33POPC   H5X 4467   6.075   6.236   9.611  2.0721  2.9462 -0.7362
   33POPC   H5Y 4468   6.149   6.179   9.763  1.5841 -0.0335 -1.7036
   33POPC   C36 4469   6.127   6.392   9.746 -0.0458  0.1383 -0.2986
   33POPC   H6X 4470   6.227   6.398   9.698 -0.4702  0.4140 -1.1665
   33POPC   H6Y 4471   6.134   6.400   9.857  0.5379  2.0633 -0.4296
   33POPC   C37 4472   6.038   6.508   9.702 -1.8518  0.0671 -0.2055
   33POPC   H7X 4473   6.083   6.600   9.744 -2.1723 -0.7990  2.1521
   33POPC   H7Y 4474   5.937   6.496   9.746 -0.7342  0.6782  2.7364
   33POPC   C38 4475   6.028   6.509   9.549 -0.4300 -0.1866  0.2875
   33POPC   H8X 4476   5.999   6.406   9.518 -0.6668 -0.5889  1.7642
   33POPC   H8Y 4477   6.122   6.535   9.495  1.3598 -0.3356  3.1181
   33POPC   C39 4478   5.913   6.597   9.500 -0.4811  0.2656 -0.8775
   33POPC   H9X 4479   5.960   6.697   9.484  0.4238 -0.1453 -0.8932
   33POPC   H9Y 4480   5.836   6.611   9.579 -1.0199  0.1800 -1.3914
   33POPC  C310 4481   5.853   6.574   9.355 -0.3969  0.0375 -0.1996
   33POPC  H10X 4482   5.763   6.509   9.354  0.3696 -1.0227 -0.9653
   33POPC  H10Y 4483   5.935   6.531   9.295 -0.2626  1.3243 -0.9972
   33POPC  C311 4484   5.817   6.703   9.270 -0.5019  0.3877 -0.2597
   33POPC  H11X 4485   5.912   6.761   9.267  0.3352 -0.7779  1.9320
   33POPC  H11Y 4486   5.730   6.758   9.312  0.5275  2.7377 -1.0145
   33POPC  C312 4487   5.766   6.668   9.128  0.2428 -0.1339  0.3785
   33POPC  H12X 4488   5.712   6.759   9.092  0.4466  1.0039  2.7633
   33POPC  H12Y 4489   5.689   6.588   9.121 -0.1204 -0.0138  2.3432
   33POPC  C313 4490   5.876   6.628   9.029 -0.6131  0.7972 -0.6356
   33POPC  H13X 4491   5.973   6.660   9.073  0.1432 -0.7344 -1.1107
   33POPC  H13Y 4492   5.875   6.678   8.930 -0.6570 -0.3873 -1.2596
   33POPC  C314 4493   5.880   6.477   9.005  0.3879 -0.3334 -0.5560
   33POPC  H14X 4494   5.869   6.432   9.106 -1.2271  2.2986  0.5249
   33POPC  H14Y 4495   5.978   6.454   8.958  1.5985 -0.7140  1.9799
   33POPC  C315 4496   5.773   6.436   8.899  0.3477  0.0950 -0.5673
   33POPC  H15X 4497   5.772   6.508   8.815 -1.7747  0.0237 -0.6584
   33POPC  H15Y 4498   5.669   6.421   8.936 -0.0082 -0.8867 -1.9050
   33POPC  C316 4499   5.797   6.291   8.847 -0.1846 -0.1860 -0.0594
   33POPC  H16X 4500   5.897   6.282   8.799 -1.1243  0.9155 -2.3720
   33POPC  H16Y 4501   5.723   6.266   8.769  0.9368  1.4796 -1.7306
   33POPC  H16Z 4502   5.792   6.220   8.932  0.0793 -1.2135 -0.8794
   34POPC     N 4503   5.005   5.559  11.253  0.6323  0.1481 -0.2423
   34POPC   C12 4504   5.032   5.580  11.105 -0.3115 -0.0535 -0.4080
   34POPC  H12A 4505   4.969   5.522  11.039  0.2965 -2.2740  0.8573
   34POPC  H12B 4506   5.130   5.539  11.086 -0.1533  1.2411 -2.8062
   34POPC   C13 4507   4.858   5.568  11.285  0.7191 -0.4547  0.2153
   34POPC  H13A 4508   4.814   5.509  11.206 -0.4227  1.8605 -0.9940
   34POPC  H13B 4509   4.828   5.536  11.383  1.3414 -0.9264  0.2567
   34POPC  H13C 4510   4.818   5.669  11.280 -2.7591 -1.7201 -0.3037
   34POPC   C14 4511   5.034   5.421  11.282 -1.0497  0.3486 -0.1825
   34POPC  H14A 4512   5.004   5.393  11.381  0.9410 -0.4307  0.2427
   34POPC  H14B 4513   4.997   5.356  11.204 -0.4513  0.3268 -0.4536
   34POPC  H14C 4514   5.139   5.396  11.281 -1.3100 -0.8083  0.3471
   34POPC   C15 4515   5.087   5.645  11.350  0.2841  0.1783 -0.4690
   34POPC  H15A 4516   5.066   5.751  11.342  2.2075  0.7151  0.8330
   34POPC  H15B 4517   5.187   5.614  11.322 -0.6063 -1.2968 -2.2238
   34POPC  H15C 4518   5.061   5.624  11.453  1.6251  2.7604  0.4903
   34POPC   C11 4519   5.015   5.726  11.062 -0.4789  0.3176  0.4877
   34POPC  H11A 4520   5.068   5.728  10.964 -2.1060 -1.2751 -0.4794
   34POPC  H11B 4521   5.064   5.802  11.127  1.8892 -1.3988  0.8403
   34POPC     P 4522   4.790   5.739  10.915  0.1468 -0.1199  0.3303
   34POPC   O13 4523   4.688   5.848  10.911  0.2292  0.3454  0.1953
   34POPC   O14 4524   4.749   5.605  10.921  0.2084  0.2001  0.4957
   34POPC   O12 4525   4.879   5.762  11.045  0.0643 -0.2442  0.5862
   34POPC   O11 4526   4.894   5.755  10.805 -0.0717  0.6165  0.6534
   34POPC    C1 4527   4.932   5.882  10.759  0.0168 -0.3736  0.8222
   34POPC    HA 4528   5.041   5.883  10.741 -0.4144 -1.3113 -2.6251
   34POPC    HB 4529   4.908   5.971  10.820  0.2657  1.5262 -1.6708
   34POPC    C2 4530   4.886   5.913  10.608  0.3488 -0.2261 -0.3177
   34POPC    HS 4531   4.776   5.923  10.608  0.5085  2.0942 -0.1076
   34POPC   O21 4532   4.929   5.812  10.513 -0.5987 -0.3734 -0.0022
   34POPC   C21 4533   4.852   5.719  10.494 -0.5625 -0.2944 -0.2006
   34POPC   O22 4534   4.731   5.721  10.521  0.2174 -0.2267  0.3804
   34POPC   C22 4535   4.918   5.600  10.417 -0.7028 -0.0253  0.1574
   34POPC   H2R 4536   4.972   5.537  10.491 -1.8409  0.4728  1.4618
   34POPC   H2S 4537   4.986   5.646  10.342  2.1681 -1.5178  1.6495
   34POPC    C3 4538   4.930   6.058  10.563 -0.4853  0.2081  0.4752
   34POPC    HX 4539   5.033   6.079  10.599  0.2206  0.6890 -1.6760
   34POPC    HY 4540   4.865   6.136  10.607 -1.8622  0.0339 -1.1454
   34POPC   O31 4541   4.936   6.068  10.417  0.8528  0.2349  0.2203
   34POPC   C31 4542   4.823   6.057  10.351 -0.0903  0.6932  0.7704
   34POPC   O32 4543   4.713   6.043  10.405 -0.3960 -0.0562 -0.3349
   34POPC   C32 4544   4.843   6.062  10.205 -0.2251 -0.1540  0.6340
   34POPC   H2X 4545   4.859   6.169  10.181  1.3735 -0.5106  0.0096
   34POPC   H2Y 4546   4.753   6.026  10.150  0.5976 -0.3963 -0.5955
   34POPC   C23 4547   4.817   5.516  10.329 -0.3844  0.5541  0.3679
   34POPC   H3R 4548   4.734   5.583  10.295 -2.2632 -1.5503  0.5489
   34POPC   H3S 4549   4.772   5.438  10.394  1.1438 -1.8677 -1.3450
   34POPC   C24 4550   4.892   5.459  10.200  0.5381 -0.0134  0.2971
   34POPC   H4R 4551   4.976   5.393  10.231  2.2455  1.1331 -1.6301
   34POPC   H4S 4552   4.925   5.539  10.131 -0.2825 -0.3813 -0.5363
   34POPC   C25 4553   4.801   5.364  10.130 -0.3053 -0.0597 -0.1868
   34POPC   H5R 4554   4.710   5.425  10.111 -0.7261 -0.3343  0.8624
   34POPC   H5S 4555   4.762   5.275  10.184 -4.4144  0.6635 -1.5499
   34POPC   C26 4556   4.854   5.316   9.990  0.0765  0.2348  0.1180
   34POPC   H6R 4557   4.932   5.239  10.004  1.1058  0.0732 -4.6771
   34POPC   H6S 4558   4.896   5.406   9.940  0.6333 -1.0008 -1.7641
   34POPC   C27 4559   4.731   5.260   9.904 -0.3653  0.8331  0.5131
   34POPC   H7R 4560   4.648   5.334   9.908 -1.2593 -0.1760  1.2388
   34POPC   H7S 4561   4.675   5.170   9.938  0.9570 -0.4772 -0.6417
   34POPC   C28 4562   4.768   5.221   9.759  0.0338 -0.2833 -0.3626
   34POPC   H8R 4563   4.812   5.310   9.708 -1.3552  2.0349  2.2390
   34POPC   H8S 4564   4.675   5.195   9.704  0.4757 -1.2348 -0.6958
   34POPC   C29 4565   4.856   5.097   9.759 -0.7555 -0.5727  0.0121
   34POPC   H91 4566   4.963   5.119   9.761 -0.9955  0.6827  0.4019
   34POPC  C210 4567   4.817   4.969   9.763  0.3163 -0.5083  0.3586
   34POPC  H101 4568   4.895   4.892   9.771  0.5562 -0.1741  1.5101
   34POPC  C211 4569   4.673   4.921   9.752 -0.2188  0.1282  0.4478
   34POPC  H11R 4570   4.600   4.997   9.714 -0.6884 -0.7943 -0.5573
   34POPC  H11S 4571   4.635   4.900   9.854  1.0853  0.4809  1.0284
   34POPC  C212 4572   4.654   4.799   9.677 -0.3436  0.4181 -0.2235
   34POPC  H12R 4573   4.553   4.755   9.693 -1.1275  0.7394 -3.5379
   34POPC  H12S 4574   4.719   4.719   9.718  0.4096  0.5669 -1.1146
   34POPC  C213 4575   4.674   4.814   9.526 -0.1106  0.6889  0.5094
   34POPC  H13R 4576   4.779   4.838   9.496  0.3484  2.1321  3.0298
   34POPC  H13S 4577   4.621   4.897   9.474 -2.1075 -0.9363 -0.1767
   34POPC  C214 4578   4.614   4.688   9.452  0.1980 -0.2503  0.1190
   34POPC  H14R 4579   4.506   4.699   9.474  0.2203 -0.5387  0.3909
   34POPC  H14S 4580   4.650   4.600   9.510  0.9018 -0.9990 -1.4013
   34POPC  C215 4581   4.645   4.670   9.307  0.3636 -0.1510 -0.4933
   34POPC  H15R 4582   4.629   4.564   9.280 -0.1699 -0.0099 -0.7308
   34POPC  H15S 4583   4.752   4.690   9.285  0.8650 -1.4329  0.6268
   34POPC  C216 4584   4.568   4.764   9.210  0.0697 -0.2042 -0.3001
   34POPC  H16R 4585   4.592   4.871   9.231 -1.4893  0.1606 -0.2545
   34POPC  H16S 4586   4.460   4.748   9.230  0.1346  0.6222  0.8085
   34POPC  C217 4587   4.607   4.740   9.063  0.0907  0.5648  0.7879
   34POPC  H17R 4588   4.717   4.731   9.054 -0.0813 -0.1436 -1.2633
   34POPC  H17S 4589   4.563   4.822   9.002 -1.5712 -1.8115 -1.4456
   34POPC  C218 4590   4.534   4.619   9.004 -0.0709 -0.5828 -0.3873
   34POPC  H18R 4591   4.561   4.535   9.071  0.8959  0.9624  1.2474
   34POPC  H18S 4592   4.560   4.597   8.898 -1.9038  1.2822 -1.3046
   34POPC  H18T 4593   4.423   4.629   9.011 -0.1751 -1.7632 -0.2591
   34POPC   C33 4594   4.963   5.977  10.153 -0.1655 -0.1271  0.6868
   34POPC   H3X 4595   4.988   5.901  10.230  0.4889 -1.2117 -0.5510
   34POPC   H3Y 4596   5.050   6.047  10.149  0.3666 -0.8037  0.2286
   34POPC   C34 4597   4.927   5.901  10.021 -0.0533 -0.2703  0.4862
   34POPC   H4X 4598   5.018   5.839  10.004  2.3584  2.6291  1.9561
   34POPC   H4Y 4599   4.902   5.970   9.938  1.6217 -0.3937 -0.1461
   34POPC   C35 4600   4.800   5.808  10.036 -0.4125  0.3853 -0.5739
   34POPC   H5X 4601   4.707   5.867  10.049 -0.6071  0.0520 -0.4257
   34POPC   H5Y 4602   4.816   5.748  10.128  0.1811  1.8711  0.3130
   34POPC   C36 4603   4.784   5.711   9.915 -0.6534 -0.0940 -0.4294
   34POPC   H6X 4604   4.702   5.638   9.935 -0.0726 -0.2372  1.6799
   34POPC   H6Y 4605   4.885   5.666   9.907 -0.5788  0.2938 -1.9228
   34POPC   C37 4606   4.749   5.798   9.797 -0.0518  0.4283 -0.0786
   34POPC   H7X 4607   4.842   5.857   9.783 -0.3332  1.3655  1.6645
   34POPC   H7Y 4608   4.663   5.866   9.819  1.3080  2.2639 -0.1430
   34POPC   C38 4609   4.726   5.718   9.670  0.0191 -0.5168  0.0644
   34POPC   H8X 4610   4.800   5.635   9.663  0.4709 -0.0963 -0.1042
   34POPC   H8Y 4611   4.747   5.778   9.580 -0.2631 -2.4685 -1.3678
   34POPC   C39 4612   4.585   5.665   9.659 -0.2311  0.2239  0.5818
   34POPC   H9X 4613   4.507   5.743   9.663 -0.7218 -0.2949  1.3600
   34POPC   H9Y 4614   4.569   5.608   9.753  0.9762 -0.7750  0.2126
   34POPC  C310 4615   4.567   5.568   9.541 -0.3496 -0.2019 -0.5471
   34POPC  H10X 4616   4.480   5.502   9.560 -0.8745  0.7519  0.4239
   34POPC  H10Y 4617   4.658   5.504   9.535  0.4758  0.9312 -0.5468
   34POPC  C311 4618   4.538   5.642   9.414  0.5517 -0.2268 -0.4852
   34POPC  H11X 4619   4.618   5.719   9.417 -0.4343  0.8036  0.3569
   34POPC  H11Y 4620   4.438   5.692   9.419  2.0782  3.1025 -0.8183
   34POPC  C312 4621   4.538   5.541   9.296  0.6478  0.0755  0.8036
   34POPC  H12X 4622   4.442   5.485   9.303 -0.2275  1.6940  2.5848
   34POPC  H12Y 4623   4.614   5.467   9.329  1.5388  1.1637  1.2516
   34POPC  C313 4624   4.562   5.592   9.156  0.1921 -0.1144  0.4858
   34POPC  H13X 4625   4.662   5.641   9.152  3.3354 -5.6495  1.0369
   34POPC  H13Y 4626   4.477   5.656   9.126 -0.7159 -0.8697  1.3915
   34POPC  C314 4627   4.569   5.468   9.052 -0.3959 -0.5966 -0.1582
   34POPC  H14X 4628   4.660   5.406   9.066 -0.4844 -1.8227 -3.8773
   34POPC  H14Y 4629   4.565   5.515   8.951 -2.8743 -0.7421 -0.1873
   34POPC  C315 4630   4.452   5.376   9.054 -0.5586 -0.1916 -0.0418
   34POPC  H15X 4631   4.360   5.434   9.030 -0.8393 -1.4169 -2.1337
   34POPC  H15Y 4632   4.434   5.326   9.151 -2.3141  2.0192  0.8701
   34POPC  C316 4633   4.465   5.264   8.952  0.4721  0.8630 -0.0338
   34POPC  H16X 4634   4.490   5.301   8.851 -3.9513  1.8183 -0.9596
   34POPC  H16Y 4635   4.375   5.201   8.944 -0.0845  1.4941  1.0153
   34POPC  H16Z 4636   4.545   5.194   8.986  1.5203  2.0932  0.1053
   35POPC     N 4637   2.824   5.611  11.288  0.4640  0.1797 -0.4511
   35POPC   C12 4638   2.868   5.475  11.233  0.3175 -0.5446 -0.3599
   35POPC  H12A 4639   2.783   5.426  11.188 -0.5604  0.0082  0.6215
   35POPC  H12B 4640   2.894   5.413  11.318  0.8022 -0.7988 -0.6913
   35POPC   C13 4641   2.712   5.591  11.388  0.2611 -0.2189  0.2200
   35POPC  H13A 4642   2.642   5.524  11.341 -0.9375 -0.2373  1.9520
   35POPC  H13B 4643   2.744   5.546  11.481  1.3058 -1.1964 -0.5822
   35POPC  H13C 4644   2.670   5.690  11.401  2.0036  0.4815  0.9029
   35POPC   C14 4645   2.944   5.685  11.352  0.1577  0.5390 -0.6662
   35POPC  H14A 4646   2.965   5.632  11.443  0.7367 -0.1609 -1.1887
   35POPC  H14B 4647   3.033   5.672  11.293  0.7718 -1.9649  0.6583
   35POPC  H14C 4648   2.925   5.790  11.370  0.5757  0.5626 -0.3769
   35POPC   C15 4649   2.757   5.685  11.179  0.5624 -0.3623 -0.2420
   35POPC  H15A 4650   2.830   5.679  11.099  2.2662 -2.7078  1.3631
   35POPC  H15B 4651   2.743   5.788  11.209  1.3949  0.1115 -1.3740
   35POPC  H15C 4652   2.661   5.650  11.145 -0.0987  1.6364 -0.5875
   35POPC   C11 4653   2.987   5.471  11.135 -0.5648  0.2682 -0.7958
   35POPC  H11A 4654   2.957   5.549  11.062  0.8607  1.7145  0.1139
   35POPC  H11B 4655   2.994   5.380  11.071 -1.8794  0.8512 -1.8417
   35POPC     P 4656   3.183   5.394  11.304  0.2308 -0.1806  0.3969
   35POPC   O13 4657   3.079   5.362  11.411 -0.4001 -0.1328  0.3996
   35POPC   O14 4658   3.307   5.454  11.349 -0.4672 -0.1296 -0.2087
   35POPC   O12 4659   3.113   5.490  11.197  0.7671 -0.1145  0.1160
   35POPC   O11 4660   3.205   5.262  11.212  0.1587 -0.4590  0.3984
   35POPC    C1 4661   3.305   5.264  11.114  0.1629 -0.2064 -0.2948
   35POPC    HA 4662   3.358   5.166  11.117  2.5827  1.0331  1.2227
   35POPC    HB 4663   3.394   5.328  11.132 -0.0659 -0.4044  1.8204
   35POPC    C2 4664   3.258   5.289  10.968 -0.6418 -0.4293 -0.4292
   35POPC    HS 4665   3.218   5.393  10.964 -1.2103 -0.4275  2.4984
   35POPC   O21 4666   3.148   5.197  10.953 -0.0310  0.1840  0.0626
   35POPC   C21 4667   3.059   5.223  10.858 -0.3372 -0.3312  0.4676
   35POPC   O22 4668   3.061   5.326  10.791  0.2701  0.3195  0.0328
   35POPC   C22 4669   2.962   5.112  10.832 -0.1701  0.0709 -0.3011
   35POPC   H2R 4670   2.867   5.152  10.875  1.5132  2.8875  1.1429
   35POPC   H2S 4671   2.998   5.018  10.880  0.9002  0.5834 -0.0726
   35POPC    C3 4672   3.378   5.266  10.862 -0.2372 -0.3441  0.5786
   35POPC    HX 4673   3.410   5.161  10.878 -1.6815 -0.7429  0.9821
   35POPC    HY 4674   3.462   5.334  10.886  0.7389 -1.0874 -0.5912
   35POPC   O31 4675   3.324   5.290  10.727  0.3806  0.3203 -0.3529
   35POPC   C31 4676   3.371   5.404  10.666  0.3812  0.1916 -0.6888
   35POPC   O32 4677   3.454   5.483  10.717 -0.2334  1.0310 -0.1138
   35POPC   C32 4678   3.298   5.435  10.539 -0.3815 -0.2541 -0.0288
   35POPC   H2X 4679   3.252   5.535  10.555 -1.7135 -0.6426 -1.2519
   35POPC   H2Y 4680   3.210   5.369  10.524 -1.8102  2.0023 -2.3527
   35POPC   C23 4681   2.932   5.088  10.684  0.0175 -0.3802 -0.3469
   35POPC   H3R 4682   3.018   5.064  10.617  0.7772  0.2094  0.3987
   35POPC   H3S 4683   2.883   5.180  10.646 -1.6114 -1.0079  0.1389
   35POPC   C24 4684   2.830   4.971  10.674  0.6778  0.5316 -0.0814
   35POPC   H4R 4685   2.744   4.996  10.740 -0.5090  0.1952 -1.4207
   35POPC   H4S 4686   2.869   4.881  10.725 -2.2169 -1.2387 -0.7332
   35POPC   C25 4687   2.775   4.956  10.529  0.5841  0.1372 -0.0160
   35POPC   H5R 4688   2.758   5.054  10.479 -2.4965 -0.0733  0.4124
   35POPC   H5S 4689   2.679   4.902  10.542  1.4699 -1.4651  0.2478
   35POPC   C26 4690   2.873   4.869  10.438 -0.0153 -0.3079 -0.5308
   35POPC   H6R 4691   2.890   4.772  10.489  1.6447  0.2132 -0.0496
   35POPC   H6S 4692   2.973   4.918  10.438 -0.2223  0.1251 -0.4309
   35POPC   C27 4693   2.812   4.866  10.296 -0.4695 -0.6488 -0.4302
   35POPC   H7R 4694   2.897   4.835  10.231 -2.0060 -1.2202 -2.2950
   35POPC   H7S 4695   2.792   4.972  10.272  3.0779  0.0121 -0.9708
   35POPC   C28 4696   2.707   4.760  10.264  0.1667  0.4439  0.4583
   35POPC   H8R 4697   2.627   4.777  10.339  0.8157  1.4819  0.9346
   35POPC   H8S 4698   2.738   4.653  10.263 -3.2287 -0.6606 -0.2474
   35POPC   C29 4699   2.643   4.769  10.129  0.4485 -0.4396 -0.6230
   35POPC   H91 4700   2.541   4.810  10.139 -0.3000 -2.6397  2.2485
   35POPC  C210 4701   2.689   4.718  10.015 -0.5134 -0.2897 -0.5529
   35POPC  H101 4702   2.640   4.742   9.920 -1.0835 -2.8555 -0.9984
   35POPC  C211 4703   2.820   4.644  10.006 -0.4247  0.0241  0.4786
   35POPC  H11R 4704   2.786   4.541  10.030 -2.3750  0.3614 -0.6247
   35POPC  H11S 4705   2.905   4.677  10.069 -0.4987  0.5574  0.2990
   35POPC  C212 4706   2.884   4.639   9.866 -0.8208 -0.1661 -1.2006
   35POPC  H12R 4707   2.849   4.557   9.799 -2.5908  0.9764 -1.7484
   35POPC  H12S 4708   2.993   4.619   9.871 -0.5611  1.2903 -0.7216
   35POPC  C213 4709   2.886   4.772   9.787  0.4271 -0.1640  0.4880
   35POPC  H13R 4710   2.906   4.859   9.852 -1.2973  1.1286 -0.5992
   35POPC  H13S 4711   2.784   4.799   9.751  1.0252  1.2910 -0.2023
   35POPC  C214 4712   2.979   4.784   9.664  1.1810 -0.0824 -0.3966
   35POPC  H14R 4713   2.960   4.700   9.594  0.1776 -0.8240  0.7489
   35POPC  H14S 4714   3.082   4.779   9.705  0.7844 -0.8701  0.5324
   35POPC  C215 4715   2.971   4.918   9.588 -0.0077  0.5987 -1.2474
   35POPC  H15R 4716   3.014   4.999   9.651  1.9439  0.1800 -1.9713
   35POPC  H15S 4717   2.861   4.932   9.578 -0.5257 -1.8571  0.1635
   35POPC  C216 4718   3.044   4.917   9.459  0.5331 -0.3353  0.6819
   35POPC  H16R 4719   3.010   4.831   9.398  0.4599  0.6521 -0.7136
   35POPC  H16S 4720   3.150   4.893   9.483  1.7658  3.0523 -0.7360
   35POPC  C217 4721   3.024   5.047   9.384 -0.0014  0.5793 -0.1062
   35POPC  H17R 4722   3.043   5.127   9.459  0.4623 -0.2889  0.7244
   35POPC  H17S 4723   2.916   5.051   9.355  0.4304  1.0923 -1.8056
   35POPC  C218 4724   3.117   5.068   9.259 -0.1040 -0.2446 -0.1524
   35POPC  H18R 4725   3.099   5.171   9.223 -1.2181  0.5824  2.5156
   35POPC  H18S 4726   3.094   4.999   9.175 -0.7689  1.6479 -1.6028
   35POPC  H18T 4727   3.225   5.060   9.280 -0.3383  0.1063  1.2944
   35POPC   C33 4728   3.390   5.416  10.409 -0.2877 -0.0578 -0.6771
   35POPC   H3X 4729   3.400   5.306  10.401  2.3934  0.0747  0.0564
   35POPC   H3Y 4730   3.491   5.461  10.415  0.1346 -0.8980 -1.2775
   35POPC   C34 4731   3.321   5.461  10.276  0.0022  0.3809 -0.8179
   35POPC   H4X 4732   3.212   5.483  10.280 -0.0676 -0.0655  0.0564
   35POPC   H4Y 4733   3.342   5.380  10.202 -0.5887 -0.4008 -0.1437
   35POPC   C35 4734   3.376   5.602  10.238 -0.0155  0.2572 -0.4057
   35POPC   H5X 4735   3.485   5.595  10.255 -0.1111  0.5768  0.3968
   35POPC   H5Y 4736   3.337   5.678  10.310 -3.6889  0.2431 -2.1418
   35POPC   C36 4737   3.331   5.660  10.103 -0.5756 -0.4469  0.0502
   35POPC   H6X 4738   3.378   5.760  10.096  2.4794 -1.6911  1.3044
   35POPC   H6Y 4739   3.221   5.678  10.100 -0.8601 -1.4533  2.4040
   35POPC   C37 4740   3.363   5.578   9.978 -0.3490 -0.7102  0.3919
   35POPC   H7X 4741   3.295   5.492   9.959 -1.8238 -0.2245  2.9602
   35POPC   H7Y 4742   3.461   5.530   9.994  1.3418  2.6138  0.8628
   35POPC   C38 4743   3.375   5.669   9.854 -0.2023 -0.0240  0.4394
   35POPC   H8X 4744   3.451   5.748   9.872  0.4168 -0.5566  0.1987
   35POPC   H8Y 4745   3.274   5.714   9.850 -1.4490 -2.6706 -1.1775
   35POPC   C39 4746   3.393   5.584   9.732 -0.5941 -0.0886 -1.0095
   35POPC   H9X 4747   3.338   5.488   9.736 -1.7176  0.5414 -0.7295
   35POPC   H9Y 4748   3.495   5.541   9.730 -1.0167 -1.2087  0.1787
   35POPC  C310 4749   3.358   5.659   9.602 -0.0556 -0.1304  0.7459
   35POPC  H10X 4750   3.422   5.749   9.605  0.0522 -0.2289  1.7411
   35POPC  H10Y 4751   3.251   5.686   9.609 -0.8197 -2.1769 -1.7026
   35POPC  C311 4752   3.362   5.575   9.473  0.3366  0.0761  0.1251
   35POPC  H11X 4753   3.275   5.507   9.472 -1.9763  2.7925  1.1606
   35POPC  H11Y 4754   3.456   5.517   9.460  0.5960  0.9446 -2.4361
   35POPC  C312 4755   3.354   5.662   9.345  0.7612 -0.5444 -0.2418
   35POPC  H12X 4756   3.416   5.752   9.367 -0.1138 -0.4381  2.1190
   35POPC  H12Y 4757   3.248   5.691   9.331 -0.2964 -2.9546  2.0087
   35POPC  C313 4758   3.392   5.598   9.215 -0.7010 -0.4274  0.1608
   35POPC  H13X 4759   3.500   5.571   9.215 -0.4203  0.0852 -3.8509
   35POPC  H13Y 4760   3.383   5.674   9.135 -1.0646 -0.1558  0.4585
   35POPC  C314 4761   3.316   5.470   9.169  0.1470 -0.2057  0.1217
   35POPC  H14X 4762   3.209   5.494   9.188 -0.6286 -2.3852 -1.0589
   35POPC  H14Y 4763   3.341   5.403   9.254  0.8947  1.6278  1.4210
   35POPC  C315 4764   3.350   5.418   9.036 -0.1419  0.5726  0.0547
   35POPC  H15X 4765   3.311   5.498   8.970 -0.0350  0.3056 -0.3390
   35POPC  H15Y 4766   3.288   5.331   9.006 -0.8683  1.7125 -1.8807
   35POPC  C316 4767   3.499   5.393   9.017  1.0068  0.0258  0.8108
   35POPC  H16X 4768   3.505   5.324   8.930 -0.9733  1.9348 -0.9419
   35POPC  H16Y 4769   3.547   5.344   9.104 -1.6531 -1.5914  1.4530
   35POPC  H16Z 4770   3.550   5.489   8.993 -0.6088  0.7993  0.3835
   36POPC     N 4771   5.057   2.572  11.347  0.7814  0.1625  0.2366
   36POPC   C12 4772   5.099   2.428  11.355 -0.2858 -0.2104 -0.6372
   36POPC  H12A 4773   5.088   2.385  11.453  1.6185 -0.4209 -0.4780
   36POPC  H12B 4774   5.207   2.432  11.355 -0.3076  2.3422  1.2382
   36POPC   C13 4775   5.101   2.635  11.476 -0.3839  0.3351  0.0291
   36POPC  H13A 4776   5.061   2.596  11.569  0.4961  1.0265  0.7090
   36POPC  H13B 4777   5.208   2.625  11.485 -0.0711  1.4904 -1.9040
   36POPC  H13C 4778   5.082   2.742  11.475 -0.9421  0.2615  1.1113
   36POPC   C14 4779   5.138   2.638  11.241 -0.2607  0.0357 -0.3595
   36POPC  H14A 4780   5.166   2.579  11.155 -1.8448 -2.1793  0.5538
   36POPC  H14B 4781   5.089   2.726  11.203  0.9399  0.7593 -0.3015
   36POPC  H14C 4782   5.225   2.686  11.284 -0.6686  0.9925 -0.5633
   36POPC   C15 4783   4.907   2.581  11.329  0.0073 -0.5437 -0.5377
   36POPC  H15A 4784   4.869   2.501  11.266 -1.8355 -2.0191  2.2480
   36POPC  H15B 4785   4.885   2.674  11.278 -2.3792  0.1696  1.5531
   36POPC  H15C 4786   4.850   2.570  11.420 -0.9978 -0.2182 -1.1160
   36POPC   C11 4787   5.059   2.329  11.248  0.3129 -0.1684  0.3914
   36POPC  H11A 4788   5.098   2.228  11.276 -0.9000 -0.6927  0.2660
   36POPC  H11B 4789   5.115   2.368  11.161  0.3541 -0.6382  0.2002
   36POPC     P 4790   4.850   2.286  11.079 -0.2302  0.3882  0.3661
   36POPC   O13 4791   4.774   2.408  11.037  0.3467 -0.0174  0.0116
   36POPC   O14 4792   4.782   2.158  11.096  0.5413 -0.5496  0.0655
   36POPC   O12 4793   4.921   2.318  11.217  0.0536  0.6792  0.6304
   36POPC   O11 4794   4.967   2.263  10.976 -0.3909  0.1344  0.6999
   36POPC    C1 4795   5.025   2.369  10.897 -0.3842  0.2331  0.0240
   36POPC    HA 4796   5.123   2.391  10.946  1.3076 -2.7858 -1.7068
   36POPC    HB 4797   4.970   2.465  10.898  0.9426  1.0996 -2.4259
   36POPC    C2 4798   5.055   2.342  10.743 -0.1377  0.1613  0.4954
   36POPC    HS 4799   5.119   2.419  10.696  1.5694 -2.0034 -0.9172
   36POPC   O21 4800   4.928   2.331  10.679 -0.0019  0.5607  0.3329
   36POPC   C21 4801   4.879   2.443  10.627  0.0874  0.1621 -0.0198
   36POPC   O22 4802   4.914   2.552  10.659  0.1039  0.0801 -0.3316
   36POPC   C22 4803   4.781   2.415  10.513 -0.1666  0.4537 -0.0838
   36POPC   H2R 4804   4.693   2.480  10.537  0.6552  1.1480  1.1220
   36POPC   H2S 4805   4.749   2.311  10.531  0.3327 -0.0227 -1.7159
   36POPC    C3 4806   5.134   2.207  10.727  0.2965 -0.1680 -0.1414
   36POPC    HX 4807   5.077   2.127  10.778  0.8405 -2.0463 -2.2838
   36POPC    HY 4808   5.226   2.219  10.788 -0.0968  2.2487  0.0771
   36POPC   O31 4809   5.159   2.180  10.585 -0.3521  0.4387 -0.4224
   36POPC   C31 4810   5.151   2.056  10.547  0.5195  0.5798  0.1749
   36POPC   O32 4811   5.094   1.966  10.605  0.2320  0.4592 -0.7112
   36POPC   C32 4812   5.187   2.046  10.403 -0.2867  0.2018  0.3773
   36POPC   H2X 4813   5.164   1.943  10.368 -0.4705  0.9869 -2.0571
   36POPC   H2Y 4814   5.294   2.052  10.374 -0.4805  0.3840 -0.3253
   36POPC   C23 4815   4.843   2.436  10.379 -0.0735 -0.2330  0.0919
   36POPC   H3R 4816   4.913   2.352  10.359 -0.6662 -0.4388 -1.2463
   36POPC   H3S 4817   4.904   2.529  10.381  3.4532 -2.3461 -0.1526
   36POPC   C24 4818   4.742   2.434  10.265  0.0528 -0.7612 -0.1894
   36POPC   H4R 4819   4.685   2.529  10.271  0.2798 -0.6894  0.9679
   36POPC   H4S 4820   4.689   2.336  10.266  2.2433 -2.0869 -2.3606
   36POPC   C25 4821   4.810   2.435  10.132  0.3549 -0.0866  0.2334
   36POPC   H5R 4822   4.855   2.334  10.116 -2.2965 -1.1344 -1.2520
   36POPC   H5S 4823   4.893   2.507  10.113 -0.3106  0.6084 -0.0564
   36POPC   C26 4824   4.705   2.446  10.027 -0.9743  0.3106 -0.1701
   36POPC   H6R 4825   4.629   2.369  10.052  0.6373 -0.5920  2.4148
   36POPC   H6S 4826   4.754   2.419   9.931 -0.2778 -4.1036  1.1968
   36POPC   C27 4827   4.648   2.581  10.013  0.3521 -0.1017  0.3377
   36POPC   H7R 4828   4.735   2.640   9.975 -0.7281  1.8399  0.7392
   36POPC   H7S 4829   4.607   2.617  10.109 -3.7936 -1.1981 -0.8429
   36POPC   C28 4830   4.536   2.592   9.907 -0.9251 -0.5145 -0.1496
   36POPC   H8R 4831   4.584   2.585   9.807 -0.4397  1.7678 -0.1272
   36POPC   H8S 4832   4.508   2.699   9.899 -0.2477 -0.2978  0.2831
   36POPC   C29 4833   4.419   2.501   9.920  0.0222 -0.0036  0.2904
   36POPC   H91 4834   4.393   2.468  10.022 -1.8878 -1.4561 -0.6011
   36POPC  C210 4835   4.337   2.464   9.819 -0.1049  0.0599  1.0953
   36POPC  H101 4836   4.254   2.393   9.828 -0.7608 -0.1157 -3.5497
   36POPC  C211 4837   4.362   2.525   9.679  0.1904  0.1016 -0.1130
   36POPC  H11R 4838   4.446   2.598   9.671 -0.6686  1.1108 -0.1447
   36POPC  H11S 4839   4.269   2.575   9.646  0.1217  0.5764  0.7728
   36POPC  C212 4840   4.379   2.416   9.578 -0.4025  0.1450 -0.0051
   36POPC  H12R 4841   4.282   2.366   9.554  0.5813 -2.2945  0.8232
   36POPC  H12S 4842   4.454   2.342   9.614 -1.7061 -0.9941  0.4767
   36POPC  C213 4843   4.443   2.480   9.446  0.1497 -0.2768  0.2219
   36POPC  H13R 4844   4.548   2.506   9.471 -0.0190 -0.1932  0.8626
   36POPC  H13S 4845   4.399   2.579   9.423 -0.7106 -0.1309  2.2691
   36POPC  C214 4846   4.429   2.388   9.320 -0.1336 -0.6820 -0.5105
   36POPC  H14R 4847   4.369   2.296   9.334 -0.4846 -0.5250 -0.9561
   36POPC  H14S 4848   4.536   2.356   9.311  0.3329  0.5244  0.5990
   36POPC  C215 4849   4.373   2.469   9.204  0.6399  0.5317 -0.0183
   36POPC  H15R 4850   4.389   2.416   9.108 -0.8684  0.6715 -0.3774
   36POPC  H15S 4851   4.418   2.571   9.201 -1.0102  1.2805 -2.2763
   36POPC  C216 4852   4.218   2.477   9.203  0.2040  0.1242  0.7373
   36POPC  H16R 4853   4.186   2.528   9.296  1.3011  0.3020  1.0381
   36POPC  H16S 4854   4.156   2.386   9.209 -1.9953  1.4884  0.0953
   36POPC  C217 4855   4.167   2.536   9.068  0.1059  0.1521  0.8207
   36POPC  H17R 4856   4.217   2.479   8.986 -0.2201 -1.3594  1.6286
   36POPC  H17S 4857   4.192   2.644   9.062  0.4722  0.0794  0.9662
   36POPC  C218 4858   4.017   2.518   9.049 -0.2986  0.1542  0.6567
   36POPC  H18R 4859   3.984   2.413   9.034 -0.1031  0.1020  0.5890
   36POPC  H18S 4860   3.973   2.573   8.963  0.8520  0.1799  0.0625
   36POPC  H18T 4861   3.969   2.566   9.136 -0.0865  0.3539  0.6631
   36POPC   C33 4862   5.105   2.145  10.315  0.3120  0.7051  0.9688
   36POPC   H3X 4863   5.126   2.253  10.331 -1.2926  1.6026 -2.1309
   36POPC   H3Y 4864   4.998   2.126  10.338  0.5211 -1.7911  0.1499
   36POPC   C34 4865   5.114   2.118  10.162  0.6565 -0.4425 -0.0081
   36POPC   H4X 4866   5.218   2.091  10.135  0.6921  0.2802 -0.6244
   36POPC   H4Y 4867   5.095   2.216  10.113  0.2080 -0.6623 -0.2754
   36POPC   C35 4868   5.022   2.012  10.107 -0.5034 -0.5283  0.2295
   36POPC   H5X 4869   4.920   2.050  10.129 -0.1304  1.9731 -1.7954
   36POPC   H5Y 4870   5.044   1.914  10.152  2.1484  0.5414  1.4558
   36POPC   C36 4871   5.039   2.005   9.954  0.1843  0.3720  0.6186
   36POPC   H6X 4872   5.007   1.904   9.922  2.0086  0.3216 -1.2264
   36POPC   H6Y 4873   5.148   2.006   9.934  0.3121 -1.6998  0.9793
   36POPC   C37 4874   4.952   2.101   9.872  0.2305 -0.8290 -0.2675
   36POPC   H7X 4875   4.956   2.199   9.925  1.7794  0.7130 -3.0329
   36POPC   H7Y 4876   4.850   2.059   9.861  0.4300 -1.1477 -0.8945
   36POPC   C38 4877   5.004   2.114   9.727 -0.2342 -0.6822 -0.4870
   36POPC   H8X 4878   5.036   2.013   9.696  1.3977 -0.4627  0.3788
   36POPC   H8Y 4879   5.092   2.182   9.724  0.7766 -1.8708  1.1251
   36POPC   C39 4880   4.895   2.164   9.629  0.6633 -0.6615  0.3500
   36POPC   H9X 4881   4.872   2.268   9.662  2.7163  0.3586 -1.2402
   36POPC   H9Y 4882   4.810   2.092   9.635 -0.9754  1.1850  0.3585
   36POPC  C310 4883   4.936   2.161   9.474  0.3739 -0.4881 -0.1046
   36POPC  H10X 4884   5.009   2.081   9.448 -2.0250 -2.7237 -0.4015
   36POPC  H10Y 4885   4.985   2.258   9.457  1.8943 -1.1415  0.3995
   36POPC  C311 4886   4.823   2.146   9.377  0.1331 -0.1425  0.0328
   36POPC  H11X 4887   4.749   2.227   9.397 -0.3373 -0.8510  1.3446
   36POPC  H11Y 4888   4.780   2.045   9.390  0.1398 -0.3127 -1.1898
   36POPC  C312 4889   4.869   2.162   9.230 -0.5233  0.0595 -0.1920
   36POPC  H12X 4890   4.924   2.070   9.200 -2.2593 -1.0109 -0.2078
   36POPC  H12Y 4891   4.938   2.248   9.214 -0.0615 -0.3993 -0.7190
   36POPC  C313 4892   4.745   2.161   9.141  0.8662  0.4889 -0.4484
   36POPC  H13X 4893   4.684   2.253   9.155 -1.8857 -1.4741  1.4352
   36POPC  H13Y 4894   4.683   2.076   9.177  3.3677 -0.9095  0.8910
   36POPC  C314 4895   4.778   2.150   8.987  0.0453  1.3939  0.2725
   36POPC  H14X 4896   4.867   2.083   8.991 -1.5237 -0.7283  1.1374
   36POPC  H14Y 4897   4.797   2.252   8.947 -2.6408  0.9591 -2.4722
   36POPC  C315 4898   4.658   2.103   8.910 -0.1346 -0.0342 -0.0016
   36POPC  H15X 4899   4.610   2.015   8.960  0.4535  0.4122  1.3911
   36POPC  H15Y 4900   4.694   2.066   8.812  0.6005 -2.0408  0.9776
   36POPC  C316 4901   4.553   2.216   8.892  0.2176  0.2069  0.4667
   36POPC  H16X 4902   4.464   2.179   8.837  0.5478 -2.6166  1.6520
   36POPC  H16Y 4903   4.607   2.296   8.837 -0.6912  2.2903  2.4374
   36POPC  H16Z 4904   4.542   2.271   8.989 -0.3547 -1.5684  1.4449
   37POPC     N 4905   5.493   5.515   6.380  0.7639 -0.5190 -0.0981
   37POPC   C12 4906   5.569   5.494   6.507  0.0263  0.5468  0.1866
   37POPC  H12A 4907   5.675   5.488   6.489  0.2061 -1.2447  1.5103
   37POPC  H12B 4908   5.539   5.394   6.535  1.4194  0.2948  0.9027
   37POPC   C13 4909   5.490   5.395   6.288  0.3252  0.0704 -0.4122
   37POPC  H13A 4910   5.418   5.404   6.208  1.9025 -1.5607 -2.1152
   37POPC  H13B 4911   5.582   5.376   6.234  0.6807  0.5781 -0.0012
   37POPC  H13C 4912   5.460   5.307   6.343 -1.2867  0.6786 -0.2805
   37POPC   C14 4913   5.349   5.536   6.414  0.6338 -0.1060  0.2696
   37POPC  H14A 4914   5.291   5.564   6.327 -0.4556  2.5463  1.7353
   37POPC  H14B 4915   5.293   5.448   6.440 -0.1540  0.5643  0.9065
   37POPC  H14C 4916   5.334   5.613   6.488  1.2695  1.4278 -1.1197
   37POPC   C15 4917   5.546   5.624   6.296 -0.1915  0.3481 -0.4754
   37POPC  H15A 4918   5.645   5.592   6.267 -0.2950  1.4568 -2.1954
   37POPC  H15B 4919   5.575   5.713   6.349  0.9963 -0.8256  0.9494
   37POPC  H15C 4920   5.501   5.639   6.199  0.6124 -1.3492 -1.1600
   37POPC   C11 4921   5.543   5.587   6.628 -0.0855  0.1266  0.1551
   37POPC  H11A 4922   5.604   5.553   6.714  2.3698  1.7077 -0.8594
   37POPC  H11B 4923   5.438   5.596   6.663 -0.1575 -0.1173  0.0025
   37POPC     P 4924   5.731   5.773   6.627  0.0550 -0.6312  0.5911
   37POPC   O13 4925   5.722   5.919   6.649  0.0812 -0.0153 -0.6034
   37POPC   O14 4926   5.824   5.722   6.529 -0.9060  0.2676 -0.3444
   37POPC   O12 4927   5.584   5.724   6.585  0.1297 -0.0412 -0.4364
   37POPC   O11 4928   5.753   5.701   6.759  0.1534 -0.0688 -0.1886
   37POPC    C1 4929   5.880   5.678   6.820  0.5822  0.1133 -0.4687
   37POPC    HA 4930   5.953   5.755   6.786  0.2432  0.0614 -1.3388
   37POPC    HB 4931   5.921   5.582   6.780 -0.7834 -0.3866 -0.7101
   37POPC    C2 4932   5.867   5.673   6.975  1.1642  1.2265 -0.2253
   37POPC    HS 4933   5.953   5.621   7.022 -0.1160 -1.5241 -0.7289
   37POPC   O21 4934   5.748   5.603   7.015  0.0075  0.0977 -0.3252
   37POPC   C21 4935   5.751   5.466   6.988  0.1762  0.2490  0.4913
   37POPC   O22 4936   5.837   5.414   6.922  0.0312 -0.8607  0.0337
   37POPC   C22 4937   5.623   5.401   7.045  0.2286  0.2711 -0.8094
   37POPC   H2R 4938   5.598   5.323   6.969  1.0073 -0.2548 -0.5436
   37POPC   H2S 4939   5.541   5.476   7.040  0.2074  0.2836 -0.2966
   37POPC    C3 4940   5.860   5.820   7.032  0.2280  0.1885 -0.0483
   37POPC    HX 4941   5.756   5.855   7.012 -0.5112 -2.7715 -2.0314
   37POPC    HY 4942   5.931   5.884   6.976 -1.8647  2.2251 -0.4983
   37POPC   O31 4943   5.877   5.820   7.172 -0.5764  0.1101  0.2078
   37POPC   C31 4944   6.000   5.862   7.215 -0.2630 -0.5855 -0.3660
   37POPC   O32 4945   6.082   5.915   7.143 -0.0247  0.4380  0.0216
   37POPC   C32 4946   6.009   5.843   7.369  0.8722 -0.4144 -0.1496
   37POPC   H2X 4947   6.034   5.735   7.373 -2.3204 -1.2177  1.1828
   37POPC   H2Y 4948   5.907   5.858   7.410  0.0697 -1.8042 -1.5473
   37POPC   C23 4949   5.648   5.350   7.187  1.2503  0.1979  0.0681
   37POPC   H3R 4950   5.724   5.269   7.197  1.7751  0.5506 -0.9959
   37POPC   H3S 4951   5.549   5.308   7.215  0.5862  1.5270 -0.2060
   37POPC   C24 4952   5.683   5.462   7.284  0.4968 -0.2926 -0.1331
   37POPC   H4R 4953   5.605   5.542   7.282  0.1290 -0.6485 -0.3433
   37POPC   H4S 4954   5.774   5.522   7.263 -1.8113  2.8356 -2.1288
   37POPC   C25 4955   5.688   5.427   7.440 -0.3125  0.0572  0.0789
   37POPC   H5R 4956   5.772   5.356   7.451 -1.1962 -0.7331  2.2359
   37POPC   H5S 4957   5.606   5.369   7.487 -0.2399  1.1007  1.5650
   37POPC   C26 4958   5.720   5.549   7.532  0.1078  0.4042 -0.8456
   37POPC   H6R 4959   5.623   5.598   7.556 -0.6408 -0.5162 -1.8913
   37POPC   H6S 4960   5.780   5.627   7.481  0.0570  0.6563 -0.5239
   37POPC   C27 4961   5.796   5.498   7.656  0.2382  0.7604 -0.1288
   37POPC   H7R 4962   5.898   5.478   7.617 -0.4802  1.5795 -2.6202
   37POPC   H7S 4963   5.757   5.405   7.702  0.6152  1.5767  1.9583
   37POPC   C28 4964   5.806   5.602   7.773 -0.1996  0.2758  0.5520
   37POPC   H8R 4965   5.863   5.691   7.739  0.8158 -1.7693 -3.7498
   37POPC   H8S 4966   5.876   5.553   7.844  2.4365 -0.2585 -2.2310
   37POPC   C29 4967   5.671   5.634   7.831 -0.2311 -0.7819 -0.0471
   37POPC   H91 4968   5.618   5.721   7.789  1.7174  0.8548  0.7747
   37POPC  C210 4969   5.602   5.570   7.929 -0.4699  0.2171 -0.1090
   37POPC  H101 4970   5.507   5.612   7.964  0.2367  1.5412  0.2701
   37POPC  C211 4971   5.635   5.455   8.016 -0.3817  0.1933 -0.1792
   37POPC  H11R 4972   5.694   5.378   7.960 -0.8639 -0.5285  0.2915
   37POPC  H11S 4973   5.544   5.407   8.057  0.9436 -0.6986  1.8592
   37POPC  C212 4974   5.738   5.507   8.120 -0.1430  0.1478  0.0551
   37POPC  H12R 4975   5.832   5.545   8.075  1.5173 -0.4207  2.7879
   37POPC  H12S 4976   5.768   5.420   8.181  2.0615 -0.2800 -1.5602
   37POPC  C213 4977   5.676   5.610   8.216 -0.7433 -0.1292 -1.0867
   37POPC  H13R 4978   5.641   5.556   8.306 -2.3068 -0.9231 -2.1222
   37POPC  H13S 4979   5.593   5.671   8.175 -1.3971 -1.3001 -1.5593
   37POPC  C214 4980   5.790   5.709   8.266  0.2552  0.3160 -0.4659
   37POPC  H14R 4981   5.813   5.774   8.180 -0.6373 -0.8379 -1.6084
   37POPC  H14S 4982   5.887   5.670   8.304  0.1330  1.1138  0.7281
   37POPC  C215 4983   5.750   5.815   8.370  0.5936 -0.2905 -0.3866
   37POPC  H15R 4984   5.694   5.773   8.457 -1.0317 -0.7401 -1.5915
   37POPC  H15S 4985   5.669   5.884   8.336  0.9043  0.0476 -0.4480
   37POPC  C216 4986   5.879   5.902   8.409 -0.3962  0.2369  0.2813
   37POPC  H16R 4987   5.918   5.922   8.307 -2.7982  1.7081 -0.4359
   37POPC  H16S 4988   5.961   5.854   8.466 -0.3992 -0.9000 -0.6199
   37POPC  C217 4989   5.841   6.045   8.454 -0.8184 -0.2327 -0.0255
   37POPC  H17R 4990   5.758   6.040   8.528 -0.7202 -0.2150  0.0867
   37POPC  H17S 4991   5.794   6.102   8.370 -0.9594  1.2086  0.9901
   37POPC  C218 4992   5.957   6.129   8.499 -0.2739 -0.1073  0.0985
   37POPC  H18R 4993   5.993   6.093   8.598 -0.2085 -0.0430  0.0982
   37POPC  H18S 4994   5.943   6.239   8.504 -0.2868 -0.0503 -0.9498
   37POPC  H18T 4995   6.047   6.109   8.437  0.1704  1.0538  0.3387
   37POPC   C33 4996   6.114   5.930   7.442  0.1338 -0.5510  0.8459
   37POPC   H3X 4997   6.104   6.040   7.432 -2.1865 -0.8464 -0.7151
   37POPC   H3Y 4998   6.209   5.900   7.391 -0.5539 -0.1482 -0.7176
   37POPC   C34 4999   6.109   5.880   7.589 -0.3705 -0.2487  0.0934
   37POPC   H4X 5000   6.112   5.769   7.591  2.3401 -0.2585 -0.3770
   37POPC   H4Y 5001   6.010   5.911   7.629 -1.0015 -0.3057 -1.3391
   37POPC   C35 5002   6.231   5.929   7.674 -0.7497  0.3692  0.9165
   37POPC   H5X 5003   6.252   6.035   7.645 -0.5629 -0.2047 -1.2312
   37POPC   H5Y 5004   6.315   5.877   7.623 -2.9252 -3.8635  1.2319
   37POPC   C36 5005   6.233   5.920   7.827  0.2299  0.2441  1.1019
   37POPC   H6X 5006   6.141   5.965   7.871 -0.9068 -0.2423 -0.6611
   37POPC   H6Y 5007   6.312   5.987   7.868  0.0778  1.2356 -0.1433
   37POPC   C37 5008   6.258   5.777   7.877  0.5231  0.2554 -0.2245
   37POPC   H7X 5009   6.356   5.728   7.861 -0.7464 -2.1901 -1.0889
   37POPC   H7Y 5010   6.195   5.705   7.821  2.5123  1.3330 -4.2298
   37POPC   C38 5011   6.218   5.758   8.024 -0.5121  0.2327  1.1099
   37POPC   H8X 5012   6.219   5.650   8.048 -0.8565 -0.2821 -0.9754
   37POPC   H8Y 5013   6.120   5.806   8.047  0.1152  0.2098  4.1133
   37POPC   C39 5014   6.316   5.828   8.119  0.4877 -0.0654 -0.7780
   37POPC   H9X 5015   6.328   5.932   8.082 -2.1740  1.4331  2.0640
   37POPC   H9Y 5016   6.410   5.769   8.113  0.2696 -0.3481 -1.5358
   37POPC  C310 5017   6.271   5.819   8.270  0.2422  0.2573 -0.1190
   37POPC  H10X 5018   6.209   5.734   8.306 -1.8397  2.6163  2.2283
   37POPC  H10Y 5019   6.199   5.902   8.278  0.1855  0.2721 -0.7231
   37POPC  C311 5020   6.390   5.853   8.363  0.6374 -0.6877  0.1993
   37POPC  H11X 5021   6.448   5.939   8.322  0.0061 -1.4810 -2.6312
   37POPC  H11Y 5022   6.460   5.769   8.378  0.7201 -0.8564 -1.0017
   37POPC  C312 5023   6.345   5.908   8.502  0.2385  0.9069 -0.0965
   37POPC  H12X 5024   6.273   5.991   8.487  2.2153  2.8273  0.4659
   37POPC  H12Y 5025   6.430   5.950   8.561 -1.1437  1.6849  1.4335
   37POPC  C313 5026   6.285   5.797   8.584  0.1130 -1.6160  0.0135
   37POPC  H13X 5027   6.338   5.699   8.579 -0.9199 -2.2507  0.9028
   37POPC  H13Y 5028   6.192   5.786   8.524 -0.1447  0.7178 -0.1007
   37POPC  C314 5029   6.241   5.839   8.726  0.1862  0.0386  0.3307
   37POPC  H14X 5030   6.191   5.938   8.730  0.5225  0.3668 -2.0221
   37POPC  H14Y 5031   6.335   5.874   8.774  0.5788  2.6272 -2.1244
   37POPC  C315 5032   6.177   5.732   8.811  0.8037  0.3499 -0.1358
   37POPC  H15X 5033   6.189   5.763   8.918 -0.7478  1.0028 -0.1158
   37POPC  H15Y 5034   6.210   5.628   8.794 -1.6772 -0.6800  0.9126
   37POPC  C316 5035   6.024   5.723   8.786  0.5452 -0.5216 -0.7651
   37POPC  H16X 5036   5.984   5.827   8.778  2.0281  0.1420 -0.0750
   37POPC  H16Y 5037   5.979   5.659   8.865 -1.5535  0.3596 -1.1792
   37POPC  H16Z 5038   6.017   5.688   8.681  0.8664  1.5416 -1.5247
   38POPC     N 5039   5.706   1.711   6.434 -0.3208 -0.3176 -0.0003
   38POPC   C12 5040   5.713   1.809   6.556 -0.6848  0.3625  0.0113
   38POPC  H12A 5041   5.647   1.783   6.638 -0.3826  0.7931  0.3968
   38POPC  H12B 5042   5.679   1.907   6.527  1.6403  0.7159 -1.7487
   38POPC   C13 5043   5.795   1.595   6.458  0.3966 -0.1472 -0.3108
   38POPC  H13A 5044   5.881   1.638   6.506  0.7204  0.0051 -1.0151
   38POPC  H13B 5045   5.754   1.522   6.527  2.6065  0.6019  1.9474
   38POPC  H13C 5046   5.808   1.553   6.360  0.2031  1.0410 -0.8630
   38POPC   C14 5047   5.558   1.665   6.417 -0.5400 -0.0936 -0.0042
   38POPC  H14A 5048   5.557   1.593   6.337 -1.9640  0.0385 -0.1281
   38POPC  H14B 5049   5.522   1.615   6.506  1.2013  0.1343  0.8817
   38POPC  H14C 5050   5.485   1.742   6.397  0.2765  0.9281  0.8192
   38POPC   C15 5051   5.757   1.779   6.306  0.2309 -0.5274  0.2795
   38POPC  H15A 5052   5.863   1.795   6.317  0.2589  0.2520 -0.9092
   38POPC  H15B 5053   5.698   1.869   6.295 -1.6375 -1.5576  1.2256
   38POPC  H15C 5054   5.747   1.722   6.214 -1.5320  0.4458 -0.1935
   38POPC   C11 5055   5.852   1.819   6.617  0.3719 -0.1328  0.1691
   38POPC  H11A 5056   5.892   1.739   6.683  2.1704  2.3892  2.3687
   38POPC  H11B 5057   5.850   1.899   6.695 -1.3657 -0.2415  0.2647
   38POPC     P 5058   6.004   1.974   6.485 -0.1854  0.0326 -0.5620
   38POPC   O13 5059   5.889   2.065   6.496  0.0258 -0.7250 -0.7304
   38POPC   O14 5060   6.070   1.961   6.351 -0.5149  0.2817  0.2675
   38POPC   O12 5061   5.958   1.841   6.526  0.1218  0.4545  0.4932
   38POPC   O11 5062   6.113   2.017   6.588 -0.7205 -0.0458  0.1086
   38POPC    C1 5063   6.084   2.055   6.720  0.6587 -0.4920  0.8804
   38POPC    HA 5064   5.982   2.094   6.735  0.5444  0.8079 -2.4773
   38POPC    HB 5065   6.147   2.142   6.748  0.6422  0.8461 -2.7085
   38POPC    C2 5066   6.112   1.935   6.806  0.5775  0.3027 -0.4861
   38POPC    HS 5067   6.045   1.848   6.786  1.7898 -1.0314  0.9662
   38POPC   O21 5068   6.092   1.983   6.942  0.4403 -0.3883 -0.2358
   38POPC   C21 5069   5.962   1.988   6.979  0.0204 -0.1887  0.9178
   38POPC   O22 5070   5.867   1.941   6.923 -0.2940 -0.6633 -0.5120
   38POPC   C22 5071   5.965   2.075   7.108 -0.1236 -0.3539  0.5740
   38POPC   H2R 5072   6.010   2.173   7.084 -0.2319 -0.5325 -0.3871
   38POPC   H2S 5073   6.015   2.017   7.189 -0.3801  0.2014  1.1397
   38POPC    C3 5074   6.252   1.872   6.794  0.4804 -0.0395 -0.8144
   38POPC    HX 5075   6.321   1.949   6.834  0.2352 -0.3221  0.1873
   38POPC    HY 5076   6.274   1.854   6.687 -2.5940 -0.1960 -1.5143
   38POPC   O31 5077   6.257   1.745   6.872  0.0245 -0.3841 -0.6148
   38POPC   C31 5078   6.378   1.706   6.897 -0.1809  0.4815  0.1407
   38POPC   O32 5079   6.476   1.765   6.867 -0.1330  0.1557 -0.1082
   38POPC   C32 5080   6.387   1.580   6.968  0.8485  0.8200 -0.3335
   38POPC   H2X 5081   6.430   1.617   7.063 -0.6785  0.2574  0.6118
   38POPC   H2Y 5082   6.471   1.521   6.924  0.8403  0.3099  0.3366
   38POPC   C23 5083   5.822   2.111   7.155  0.5962 -0.0494 -0.5972
   38POPC   H3R 5084   5.769   2.013   7.155 -0.1461  0.3209 -2.8359
   38POPC   H3S 5085   5.769   2.177   7.084  0.1706  0.0067 -0.2293
   38POPC   C24 5086   5.826   2.186   7.289 -0.4775 -0.4116 -0.1410
   38POPC   H4R 5087   5.730   2.222   7.332  0.2974  0.2083  1.1318
   38POPC   H4S 5088   5.888   2.273   7.261 -0.3606 -0.0264  1.2268
   38POPC   C25 5089   5.877   2.100   7.405  0.1939 -0.0951  0.0388
   38POPC   H5R 5090   5.984   2.071   7.394  0.1184  0.1730 -1.5936
   38POPC   H5S 5091   5.819   2.005   7.406 -1.3171  0.7917 -0.2964
   38POPC   C26 5092   5.874   2.184   7.536  0.5952  0.8927  0.1354
   38POPC   H6R 5093   5.768   2.216   7.548 -0.3877 -0.1724 -3.9160
   38POPC   H6S 5094   5.923   2.281   7.513  1.5008  0.0569 -1.6647
   38POPC   C27 5095   5.917   2.100   7.657 -0.4865  0.0650 -0.7481
   38POPC   H7R 5096   6.021   2.067   7.638 -0.2429 -0.3942  1.1954
   38POPC   H7S 5097   5.853   2.009   7.668 -0.6404  0.3680  1.0850
   38POPC   C28 5098   5.918   2.188   7.793  0.1458  0.1129 -0.7208
   38POPC   H8R 5099   5.942   2.121   7.878 -0.8362  0.1638 -0.3921
   38POPC   H8S 5100   5.815   2.224   7.816 -0.3467 -1.6030 -0.0358
   38POPC   C29 5101   6.006   2.304   7.786  0.4033 -0.0579 -0.7200
   38POPC   H91 5102   5.994   2.361   7.692 -0.2451 -1.3855 -1.4757
   38POPC  C210 5103   6.106   2.344   7.872  0.0711  0.6309  0.1169
   38POPC  H101 5104   6.169   2.431   7.848  1.6380 -0.5787 -0.3484
   38POPC  C211 5105   6.131   2.279   8.007  0.1556 -0.3323  0.0163
   38POPC  H11R 5106   6.235   2.242   8.012 -0.1078 -0.9162  4.1027
   38POPC  H11S 5107   6.061   2.194   8.019 -2.0492  0.9396 -2.6008
   38POPC  C212 5108   6.108   2.378   8.118 -0.3010 -0.1791  0.3433
   38POPC  H12R 5109   6.005   2.420   8.108 -0.8963 -1.2683  1.6244
   38POPC  H12S 5110   6.173   2.467   8.112  0.1366 -0.4412  1.0552
   38POPC  C213 5111   6.123   2.312   8.253  0.3976  0.3293 -0.3211
   38POPC  H13R 5112   6.227   2.277   8.270 -0.4330 -2.3147 -0.2311
   38POPC  H13S 5113   6.057   2.223   8.256  0.0217  0.6136  0.0593
   38POPC  C214 5114   6.087   2.389   8.382  0.0447 -0.0170 -0.0684
   38POPC  H14R 5115   5.979   2.412   8.382  0.6752  3.4171 -0.2155
   38POPC  H14S 5116   6.144   2.485   8.383 -0.3528  0.2863  3.3377
   38POPC  C215 5117   6.130   2.303   8.503  0.2409 -0.1990 -0.4834
   38POPC  H15R 5118   6.227   2.252   8.486 -0.7670 -2.0899 -0.9085
   38POPC  H15S 5119   6.049   2.226   8.496  0.0184 -0.3375  2.4153
   38POPC  C216 5120   6.118   2.390   8.630  0.0011 -0.1631  0.2036
   38POPC  H16R 5121   6.019   2.437   8.645  0.7830  1.3018  0.9443
   38POPC  H16S 5122   6.193   2.472   8.624 -0.4530  0.1763 -1.0817
   38POPC  C217 5123   6.148   2.299   8.757 -0.3331 -0.2392 -0.6951
   38POPC  H17R 5124   6.253   2.264   8.751 -0.0835  0.0546  1.2206
   38POPC  H17S 5125   6.072   2.219   8.743 -0.4949  0.0105 -1.2527
   38POPC  C218 5126   6.135   2.365   8.895  0.2139  0.3250  1.3627
   38POPC  H18R 5127   6.168   2.294   8.974 -2.5619 -2.5518  0.1315
   38POPC  H18S 5128   6.030   2.391   8.918  0.4175  2.0369  0.4771
   38POPC  H18T 5129   6.199   2.456   8.899 -1.0028  1.4010 -1.5704
   38POPC   C33 5130   6.258   1.499   6.992 -0.4052 -0.5652 -0.1943
   38POPC   H3X 5131   6.297   1.395   6.985  0.4656 -0.3819  1.4325
   38POPC   H3Y 5132   6.184   1.510   6.910  0.9365 -2.4288 -1.7653
   38POPC   C34 5133   6.196   1.519   7.137  1.1300  0.2310 -0.1139
   38POPC   H4X 5134   6.266   1.488   7.217 -3.8902 -0.8581  4.4391
   38POPC   H4Y 5135   6.106   1.459   7.164 -3.7532  6.1936 -0.7835
   38POPC   C35 5136   6.137   1.657   7.148  0.0105 -0.1814  0.0869
   38POPC   H5X 5137   6.082   1.684   7.056  0.4517  2.2807  0.4859
   38POPC   H5Y 5138   6.222   1.729   7.148 -0.8327  0.9798  3.0779
   38POPC   C36 5139   6.049   1.673   7.282 -0.7349  0.0409  0.8193
   38POPC   H6X 5140   5.955   1.618   7.260 -0.2266 -2.3298  3.8284
   38POPC   H6Y 5141   6.023   1.780   7.293 -3.1188 -0.7170  4.1396
   38POPC   C37 5142   6.123   1.612   7.398  0.6790  0.2245 -0.3662
   38POPC   H7X 5143   6.224   1.657   7.410  1.6766 -1.9974  0.0792
   38POPC   H7Y 5144   6.135   1.501   7.393  0.2671  0.1103  0.8356
   38POPC   C38 5145   6.054   1.660   7.520  0.4310  0.3363  0.4635
   38POPC   H8X 5146   5.951   1.619   7.513  1.2796 -1.6155 -2.5406
   38POPC   H8Y 5147   6.059   1.769   7.543 -3.8828  0.2001  2.9380
   38POPC   C39 5148   6.111   1.604   7.651  0.2350  0.0436 -0.1868
   38POPC   H9X 5149   6.222   1.609   7.661  0.1822 -2.1654  2.8708
   38POPC   H9Y 5150   6.084   1.497   7.652 -0.3298  0.1415  2.7528
   38POPC  C310 5151   6.047   1.670   7.776 -0.2423 -0.6322  0.0042
   38POPC  H10X 5152   5.938   1.650   7.781 -0.7927  1.4904 -1.7511
   38POPC  H10Y 5153   6.067   1.779   7.780  0.3984 -0.7558  0.3134
   38POPC  C311 5154   6.107   1.616   7.912  0.4093  0.1197 -0.0263
   38POPC  H11X 5155   6.214   1.641   7.927  0.7830 -1.9036  0.9970
   38POPC  H11Y 5156   6.112   1.505   7.905 -0.1482  0.1618 -1.5291
   38POPC  C312 5157   6.029   1.658   8.036 -0.2023  0.0405  0.9130
   38POPC  H12X 5158   6.097   1.625   8.117  1.6026  1.0100 -0.1388
   38POPC  H12Y 5159   5.928   1.613   8.038 -0.3358 -0.3918 -3.6485
   38POPC  C313 5160   6.004   1.802   8.062 -0.5683  0.1304 -0.4884
   38POPC  H13X 5161   5.946   1.851   7.981  0.3306  1.2206 -0.5001
   38POPC  H13Y 5162   6.107   1.844   8.060 -1.1710  1.8161  0.7506
   38POPC  C314 5163   5.941   1.832   8.198  0.1867  0.4605  0.2179
   38POPC  H14X 5164   5.843   1.780   8.189  0.4861 -0.5092  2.0746
   38POPC  H14Y 5165   5.917   1.937   8.222  0.8742  0.9028 -0.9493
   38POPC  C315 5166   6.012   1.771   8.323  0.4060  0.6336 -0.5072
   38POPC  H15X 5167   6.115   1.752   8.284 -0.5150 -1.4898 -2.1083
   38POPC  H15Y 5168   5.972   1.669   8.344 -0.5625  0.6141 -2.2716
   38POPC  C316 5169   6.008   1.861   8.442 -0.4486  0.2489 -0.1679
   38POPC  H16X 5170   6.071   1.811   8.519 -2.1635 -1.3959  0.2594
   38POPC  H16Y 5171   5.906   1.871   8.485 -0.8812 -1.1815 -0.7937
   38POPC  H16Z 5172   6.043   1.961   8.410 -0.5239  0.3154 -0.0452
   39POPC     N 5173   3.666   5.977   5.989  0.4686  0.2394  0.3235
   39POPC   C12 5174   3.556   5.967   6.094  0.3266 -0.2950 -0.6065
   39POPC  H12A 5175   3.491   5.885   6.068 -2.1034  2.0931 -2.8054
   39POPC  H12B 5176   3.492   6.052   6.072  0.0809 -0.3321 -0.0548
   39POPC   C13 5177   3.602   6.002   5.854  0.2395 -0.5795  0.2659
   39POPC  H13A 5178   3.534   5.923   5.825 -2.0130  1.8625 -1.4858
   39POPC  H13B 5179   3.547   6.094   5.853  1.4064  0.1417  0.6643
   39POPC  H13C 5180   3.675   6.023   5.777 -0.9746 -0.1200 -0.7954
   39POPC   C14 5181   3.751   6.091   6.016  0.2296 -0.1704 -0.8332
   39POPC  H14A 5182   3.780   6.086   6.120 -0.5642 -2.2945 -0.6588
   39POPC  H14B 5183   3.833   6.089   5.946  0.8777  2.6693 -0.2780
   39POPC  H14C 5184   3.688   6.178   6.008  1.0222  1.0852  3.9271
   39POPC   C15 5185   3.742   5.847   5.982 -0.4286  0.8041 -0.4799
   39POPC  H15A 5186   3.829   5.864   5.920  0.9249 -2.4112  0.2964
   39POPC  H15B 5187   3.687   5.766   5.935  0.3160  0.2355 -0.3969
   39POPC  H15C 5188   3.776   5.824   6.082  0.8497  1.8429 -0.6551
   39POPC   C11 5189   3.596   5.969   6.244 -0.4907  0.4225 -0.6504
   39POPC  H11A 5190   3.501   5.949   6.298 -0.2040 -1.2509 -0.7172
   39POPC  H11B 5191   3.641   6.067   6.269  1.4741 -1.1067  2.6064
   39POPC     P 5192   3.662   5.724   6.309  0.3698  0.0572 -0.5650
   39POPC   O13 5193   3.742   5.636   6.219 -0.4708 -0.2308 -0.2253
   39POPC   O14 5194   3.521   5.692   6.323  0.4199  0.4435 -0.6263
   39POPC   O12 5195   3.695   5.870   6.266 -0.5095 -0.0098 -0.4169
   39POPC   O11 5196   3.724   5.717   6.457 -0.3073  0.1583 -0.1493
   39POPC    C1 5197   3.704   5.837   6.535 -0.3844  0.1254 -0.6450
   39POPC    HA 5198   3.616   5.816   6.599  1.2503 -3.0823  0.8012
   39POPC    HB 5199   3.678   5.925   6.473 -1.4440 -0.7825 -1.5146
   39POPC    C2 5200   3.824   5.874   6.626  0.0632 -0.2084  0.3081
   39POPC    HS 5201   3.904   5.906   6.555  1.2051 -3.5452 -0.0918
   39POPC   O21 5202   3.865   5.757   6.704  0.1368  0.9397 -0.0509
   39POPC   C21 5203   3.987   5.742   6.737 -0.8497  0.4265 -0.0509
   39POPC   O22 5204   4.077   5.811   6.697 -0.0307 -0.4634  0.0819
   39POPC   C22 5205   4.013   5.626   6.832  1.0150 -0.0964 -0.2940
   39POPC   H2R 5206   4.111   5.576   6.815 -0.0530 -3.0038  1.3332
   39POPC   H2S 5207   3.934   5.551   6.810  1.2437 -1.3141  2.6264
   39POPC    C3 5208   3.796   5.998   6.717  0.7651 -0.6992 -0.0164
   39POPC    HX 5209   3.717   5.961   6.787  1.2032  2.1442  2.1506
   39POPC    HY 5210   3.755   6.076   6.649  0.3355 -1.8024 -1.0570
   39POPC   O31 5211   3.909   6.034   6.804  0.4046 -0.5703 -0.0429
   39POPC   C31 5212   4.013   6.087   6.732 -0.1100  0.7004  0.4245
   39POPC   O32 5213   4.006   6.117   6.617 -1.0103 -0.2974  0.4133
   39POPC   C32 5214   4.142   6.101   6.823 -0.4324  0.8726 -0.9586
   39POPC   H2X 5215   4.140   6.014   6.893  0.6083 -0.2020 -2.2092
   39POPC   H2Y 5216   4.229   6.074   6.760  0.3468 -0.1180  0.4745
   39POPC   C23 5217   4.023   5.665   6.988 -0.5661  0.0140 -0.1211
   39POPC   H3R 5218   4.119   5.719   7.001  0.9250 -1.8405 -2.5951
   39POPC   H3S 5219   4.020   5.572   7.050 -1.3240  0.6849  0.8918
   39POPC   C24 5220   3.899   5.741   7.032  0.0513 -0.2135 -0.3057
   39POPC   H4R 5221   3.803   5.685   7.027 -0.3573  0.5887 -1.8134
   39POPC   H4S 5222   3.891   5.838   6.980 -0.7784  0.6309  1.3218
   39POPC   C25 5223   3.910   5.802   7.176  0.4724  0.3085  0.5243
   39POPC   H5R 5224   3.833   5.881   7.189  0.2714  0.0293  1.0696
   39POPC   H5S 5225   4.009   5.852   7.185  2.0151 -2.1610 -1.4674
   39POPC   C26 5226   3.913   5.701   7.287  0.0490 -0.1209  0.0070
   39POPC   H6R 5227   4.004   5.639   7.276  0.8754  1.3238 -2.0853
   39POPC   H6S 5228   3.834   5.626   7.266  1.8584 -2.0519 -0.2769
   39POPC   C27 5229   3.930   5.776   7.419  0.6511 -0.3566  0.2967
   39POPC   H7R 5230   3.843   5.844   7.433  1.5609  1.0963 -0.8408
   39POPC   H7S 5231   4.029   5.826   7.424  0.2510  0.3962  0.8843
   39POPC   C28 5232   3.930   5.689   7.548 -0.0048  0.6252 -0.0944
   39POPC   H8R 5233   3.929   5.752   7.639  0.9700  0.9490 -0.3022
   39POPC   H8S 5234   4.021   5.625   7.547  0.5406  1.3408 -2.6618
   39POPC   C29 5235   3.808   5.596   7.557 -0.5889 -0.6182 -0.4112
   39POPC   H91 5236   3.730   5.621   7.484  0.9121  0.8796 -1.5706
   39POPC  C210 5237   3.799   5.498   7.646 -0.3404  0.3620 -0.2262
   39POPC  H101 5238   3.709   5.435   7.649 -1.5165  1.9987  1.1061
   39POPC  C211 5239   3.910   5.442   7.733  0.1927 -0.1178 -0.5066
   39POPC  H11R 5240   3.996   5.513   7.732  1.0207 -1.0772  0.2751
   39POPC  H11S 5241   3.935   5.341   7.697  2.3308  0.7060 -1.5155
   39POPC  C212 5242   3.856   5.425   7.879 -0.6798 -0.1038  0.2027
   39POPC  H12R 5243   3.939   5.371   7.929  0.2549 -0.3847 -1.5727
   39POPC  H12S 5244   3.775   5.348   7.881 -0.9519  0.1795  0.2449
   39POPC  C213 5245   3.818   5.555   7.949  0.1889 -0.5849 -0.5007
   39POPC  H13R 5246   3.786   5.516   8.048 -0.1477  0.2683 -0.2589
   39POPC  H13S 5247   3.737   5.613   7.900  0.6921  0.2538 -0.3648
   39POPC  C214 5248   3.931   5.660   7.970  0.6286  0.5150  0.1318
   39POPC  H14R 5249   3.962   5.690   7.867  2.1340 -0.0466  0.3938
   39POPC  H14S 5250   4.013   5.617   8.030  1.1758  0.9838 -0.2704
   39POPC  C215 5251   3.894   5.784   8.042 -0.3179 -0.2531  0.1667
   39POPC  H15R 5252   3.797   5.824   8.004  0.2568  0.3782 -0.6676
   39POPC  H15S 5253   3.971   5.859   8.015 -2.1282  1.5156 -0.3843
   39POPC  C216 5254   3.881   5.780   8.196  0.2477  0.3929 -0.6823
   39POPC  H16R 5255   3.979   5.752   8.241  2.1733  3.3781 -2.6840
   39POPC  H16S 5256   3.797   5.712   8.222  1.3532 -0.5862  0.4356
   39POPC  C217 5257   3.840   5.913   8.261  0.7078  0.0971 -0.4652
   39POPC  H17R 5258   3.778   5.962   8.183  0.9765  0.6667 -0.3227
   39POPC  H17S 5259   3.928   5.981   8.266 -0.1661  1.2764 -0.7174
   39POPC  C218 5260   3.769   5.896   8.394 -0.2481 -0.6503  0.8334
   39POPC  H18R 5261   3.716   5.988   8.428 -0.1469 -0.5113  0.6241
   39POPC  H18S 5262   3.836   5.850   8.470  2.0480 -1.6103 -1.6336
   39POPC  H18T 5263   3.701   5.810   8.383  2.8607 -2.9517 -3.6035
   39POPC   C33 5264   4.153   6.240   6.900  0.9761 -0.0538 -0.4962
   39POPC   H3X 5265   4.138   6.324   6.828 -0.6862  1.3282  1.3726
   39POPC   H3Y 5266   4.250   6.258   6.951  1.3142 -0.8275 -0.8443
   39POPC   C34 5267   4.038   6.262   7.000 -0.1014 -0.6784 -0.0191
   39POPC   H4X 5268   3.944   6.250   6.942 -0.3525  0.2606  0.1693
   39POPC   H4Y 5269   4.052   6.369   7.030  2.2287 -1.4723  2.0937
   39POPC   C35 5270   4.020   6.165   7.119 -0.1499  0.5920 -0.4936
   39POPC   H5X 5271   4.119   6.161   7.171  0.3548  0.9727 -1.4002
   39POPC   H5Y 5272   4.006   6.056   7.102  0.2695  0.5145 -0.3512
   39POPC   C36 5273   3.922   6.213   7.234 -0.2957  0.2411  0.5698
   39POPC   H6X 5274   3.821   6.169   7.220  0.3327 -0.2081 -4.1105
   39POPC   H6Y 5275   3.911   6.320   7.206 -0.9649 -0.0648 -0.3917
   39POPC   C37 5276   3.972   6.191   7.374 -0.3152  0.4732 -0.2326
   39POPC   H7X 5277   4.074   6.234   7.383  0.2225 -1.1265  2.5202
   39POPC   H7Y 5278   3.972   6.083   7.397 -0.7282  0.0343 -2.1499
   39POPC   C38 5279   3.883   6.266   7.479 -0.0557  1.0682  0.2442
   39POPC   H8X 5280   3.775   6.238   7.471  0.4973 -1.3593  0.4913
   39POPC   H8Y 5281   3.896   6.376   7.471  0.9406  0.9080 -0.4794
   39POPC   C39 5282   3.925   6.230   7.618 -0.1223  0.0291 -0.5454
   39POPC   H9X 5283   4.033   6.247   7.637 -0.0977  0.5644 -1.1381
   39POPC   H9Y 5284   3.900   6.122   7.620 -0.2082  0.0546  0.4574
   39POPC  C310 5285   3.837   6.288   7.733 -0.2736 -0.2570 -0.8048
   39POPC  H10X 5286   3.731   6.259   7.712 -1.0509  1.4090  0.5913
   39POPC  H10Y 5287   3.846   6.399   7.728  0.3239 -0.3445 -2.5024
   39POPC  C311 5288   3.879   6.234   7.871 -0.5042  0.1275  0.1581
   39POPC  H11X 5289   3.973   6.286   7.898 -0.9064 -0.1123  2.1758
   39POPC  H11Y 5290   3.893   6.124   7.872  1.4556  0.3523  0.3126
   39POPC  C312 5291   3.779   6.278   7.979  0.0642 -0.0906 -0.1436
   39POPC  H12X 5292   3.750   6.381   7.950  1.1545 -0.1131 -1.4560
   39POPC  H12Y 5293   3.825   6.290   8.079 -2.9562 -1.5512  1.5688
   39POPC  C313 5294   3.662   6.177   7.981 -0.2868 -1.2106 -1.3595
   39POPC  H13X 5295   3.700   6.077   8.009  0.7796 -1.1881 -2.5921
   39POPC  H13Y 5296   3.615   6.173   7.880  0.5462  1.7654 -1.9550
   39POPC  C314 5297   3.541   6.217   8.076 -0.4834  0.6306 -0.5063
   39POPC  H14X 5298   3.448   6.171   8.035 -0.7064 -0.0085  0.6657
   39POPC  H14Y 5299   3.526   6.324   8.051  3.6973  0.9574 -2.4356
   39POPC  C315 5300   3.560   6.171   8.220 -0.6664 -0.5109  0.1612
   39POPC  H15X 5301   3.657   6.216   8.249 -1.0832  1.0016 -0.6579
   39POPC  H15Y 5302   3.584   6.063   8.212 -0.9438 -0.5379 -0.3085
   39POPC  C316 5303   3.450   6.178   8.328  0.1271  0.2998  0.8192
   39POPC  H16X 5304   3.376   6.096   8.315  0.2873  0.3656 -0.6928
   39POPC  H16Y 5305   3.405   6.278   8.307  1.2951  0.6716 -0.0041
   39POPC  H16Z 5306   3.490   6.168   8.431 -0.3663 -0.4680  0.9482
   40POPC     N 5307   1.585   2.402   6.144  0.3973 -0.4330 -0.0940
   40POPC   C12 5308   1.621   2.313   6.265  0.4724  0.4607  0.2225
   40POPC  H12A 5309   1.706   2.254   6.234  0.7558  0.1742  1.4831
   40POPC  H12B 5310   1.540   2.243   6.282  0.7467 -0.1762 -0.9840
   40POPC   C13 5311   1.701   2.493   6.121  0.4031 -0.4497  0.3629
   40POPC  H13A 5312   1.790   2.444   6.085 -0.4786 -0.0133 -2.6987
   40POPC  H13B 5313   1.688   2.575   6.053 -0.2685 -0.3397  0.6160
   40POPC  H13C 5314   1.726   2.538   6.216 -1.7547  0.4419  0.5714
   40POPC   C14 5315   1.572   2.326   6.015  0.0440  0.0895  0.1213
   40POPC  H14A 5316   1.667   2.291   5.978 -0.3496 -1.3543  0.4045
   40POPC  H14B 5317   1.510   2.241   6.042  1.7570 -0.8466  1.2525
   40POPC  H14C 5318   1.518   2.378   5.937 -0.9746 -0.5527  0.3755
   40POPC   C15 5319   1.460   2.482   6.168  0.2394 -0.1517 -1.0716
   40POPC  H15A 5320   1.439   2.560   6.097  0.7717  1.5776  0.5888
   40POPC  H15B 5321   1.463   2.523   6.268  2.3100 -1.8480 -0.3454
   40POPC  H15C 5322   1.374   2.418   6.159  1.1730 -1.1992 -4.1435
   40POPC   C11 5323   1.649   2.383   6.400  0.2456  0.0756  0.5026
   40POPC  H11A 5324   1.651   2.310   6.483 -2.1759 -0.5098  0.1237
   40POPC  H11B 5325   1.561   2.448   6.418  1.2631  1.5450  0.4167
   40POPC     P 5326   1.835   2.519   6.524 -0.3848 -0.1359 -0.2917
   40POPC   O13 5327   1.818   2.665   6.513 -0.0741  0.3970 -0.1030
   40POPC   O14 5328   1.982   2.475   6.540  0.9393  0.0405  0.3512
   40POPC   O12 5329   1.775   2.449   6.398 -0.5990 -0.4143  0.0286
   40POPC   O11 5330   1.750   2.455   6.644 -0.4542 -0.1102 -0.3736
   40POPC    C1 5331   1.647   2.531   6.702  0.1614  0.5117  0.7841
   40POPC    HA 5332   1.561   2.466   6.731  0.7784 -0.6584  0.0680
   40POPC    HB 5333   1.613   2.610   6.632 -1.4985  0.1377  1.1234
   40POPC    C2 5334   1.701   2.610   6.831  0.1074  0.0539  0.3958
   40POPC    HS 5335   1.786   2.665   6.785 -2.0272  2.5664 -0.8203
   40POPC   O21 5336   1.734   2.510   6.930  0.0646  0.0118  0.3246
   40POPC   C21 5337   1.856   2.532   6.984  0.5161 -0.0047  0.2783
   40POPC   O22 5338   1.934   2.621   6.953 -0.0879  0.1624  0.1377
   40POPC   C22 5339   1.887   2.430   7.098 -0.2454  0.0518 -0.7071
   40POPC   H2R 5340   1.976   2.365   7.080  0.3254  0.6167  0.0558
   40POPC   H2S 5341   1.799   2.362   7.101 -2.2742  2.5840  0.3227
   40POPC    C3 5342   1.601   2.721   6.876  0.2918 -0.6085 -0.7907
   40POPC    HX 5343   1.504   2.670   6.894  0.6945 -1.6596 -1.4776
   40POPC    HY 5344   1.572   2.790   6.794 -0.0966 -0.3510 -0.4397
   40POPC   O31 5345   1.639   2.789   7.000 -0.2101 -0.0466  0.6170
   40POPC   C31 5346   1.746   2.863   6.998 -0.5726  0.0802 -0.1204
   40POPC   O32 5347   1.800   2.900   6.897  0.3156 -0.3260  0.1509
   40POPC   C32 5348   1.784   2.897   7.139  0.1643  0.2583 -0.0098
   40POPC   H2X 5349   1.843   2.811   7.178 -1.8368 -0.9441  0.5183
   40POPC   H2Y 5350   1.690   2.916   7.194  0.0616  0.4131 -0.2383
   40POPC   C23 5351   1.901   2.512   7.234  0.1054 -0.7416  0.8033
   40POPC   H3R 5352   1.962   2.605   7.235 -0.3837 -0.4218  1.0581
   40POPC   H3S 5353   1.961   2.453   7.306  1.0277 -0.1769  0.5218
   40POPC   C24 5354   1.767   2.542   7.289 -0.1150 -0.5534 -0.1577
   40POPC   H4R 5355   1.700   2.454   7.292  1.3439 -1.6724  0.3924
   40POPC   H4S 5356   1.723   2.610   7.212 -1.3121 -0.0152  0.9554
   40POPC   C25 5357   1.753   2.610   7.423  0.5426 -0.6753 -0.0591
   40POPC   H5R 5358   1.645   2.633   7.440  1.2261  1.8349  1.5238
   40POPC   H5S 5359   1.800   2.709   7.441  1.4056 -0.8629 -1.1832
   40POPC   C26 5360   1.801   2.527   7.544 -0.0251 -0.3350  0.4888
   40POPC   H6R 5361   1.881   2.584   7.595 -0.3872  0.9418 -0.3194
   40POPC   H6S 5362   1.841   2.430   7.508  0.2948  0.4528 -1.4209
   40POPC   C27 5363   1.687   2.498   7.641  0.8085 -0.2605 -0.3413
   40POPC   H7R 5364   1.623   2.416   7.602  2.6769 -2.7006  1.3642
   40POPC   H7S 5365   1.630   2.591   7.663 -0.4637 -1.1638  0.2906
   40POPC   C28 5366   1.746   2.437   7.770  0.3203 -0.2914 -0.1486
   40POPC   H8R 5367   1.779   2.335   7.742 -1.1520 -0.4752 -1.3443
   40POPC   H8S 5368   1.658   2.401   7.828 -1.1719 -0.0809 -2.1616
   40POPC   C29 5369   1.830   2.529   7.860  0.1399  0.1907  0.0918
   40POPC   H91 5370   1.936   2.511   7.836 -0.3122  0.1640 -2.0667
   40POPC  C210 5371   1.790   2.626   7.939  0.2091  0.1895 -0.2639
   40POPC  H101 5372   1.863   2.669   8.009 -0.9692  1.1754  0.3973
   40POPC  C211 5373   1.642   2.662   7.956 -0.2993 -0.6175 -0.9157
   40POPC  H11R 5374   1.578   2.596   7.895  1.2452 -1.2060 -1.9498
   40POPC  H11S 5375   1.630   2.767   7.922  0.3648 -0.3296 -0.3018
   40POPC  C212 5376   1.588   2.656   8.106  0.9699  0.6839  0.2064
   40POPC  H12R 5377   1.670   2.697   8.169  1.7032 -0.1229 -0.2006
   40POPC  H12S 5378   1.581   2.547   8.128 -0.3195  0.6879 -0.1253
   40POPC  C213 5379   1.456   2.727   8.130 -0.5421  0.3129 -0.5247
   40POPC  H13R 5380   1.376   2.678   8.071 -1.4737 -1.0282  1.7373
   40POPC  H13S 5381   1.462   2.836   8.108 -3.9274  1.5628  3.3397
   40POPC  C214 5382   1.412   2.725   8.280 -0.2024 -0.1209 -0.0963
   40POPC  H14R 5383   1.492   2.770   8.343 -0.1382 -0.9813  0.4535
   40POPC  H14S 5384   1.407   2.618   8.308  2.0525 -0.7593 -1.8316
   40POPC  C215 5385   1.267   2.780   8.296  0.4071  0.0103  0.7773
   40POPC  H15R 5386   1.238   2.776   8.404 -0.5037 -0.5529  0.5214
   40POPC  H15S 5387   1.209   2.710   8.233  0.2774  1.2424 -0.5070
   40POPC  C216 5388   1.235   2.922   8.248  0.0490  0.2482 -0.0120
   40POPC  H16R 5389   1.323   2.990   8.244  0.0686  0.2982  1.0845
   40POPC  H16S 5390   1.152   2.974   8.299  0.0364  1.3207 -1.0627
   40POPC  C217 5391   1.184   2.912   8.100 -0.7985  0.1083  0.0065
   40POPC  H17R 5392   1.094   2.847   8.094  0.1315 -1.1025 -1.7547
   40POPC  H17S 5393   1.265   2.862   8.042 -0.0637  1.5274 -0.2419
   40POPC  C218 5394   1.162   3.050   8.037 -0.2575  0.5271  0.4077
   40POPC  H18R 5395   1.078   3.108   8.081  0.5513  1.7628  0.3885
   40POPC  H18S 5396   1.141   3.037   7.929  1.2457  0.7330  0.0654
   40POPC  H18T 5397   1.258   3.105   8.043 -0.3803  0.8025 -0.0860
   40POPC   C33 5398   1.875   3.020   7.144 -0.6483 -0.0235 -0.4470
   40POPC   H3X 5399   1.816   3.106   7.107  1.6908  2.0430  0.2941
   40POPC   H3Y 5400   1.956   3.006   7.070 -1.0214 -0.4768 -0.7671
   40POPC   C34 5401   1.924   3.055   7.285  0.0022  0.4350 -0.1961
   40POPC   H4X 5402   2.003   3.133   7.286  1.8097 -1.3030  1.2956
   40POPC   H4Y 5403   1.988   2.972   7.321  1.1033  1.4349  0.2149
   40POPC   C35 5404   1.809   3.094   7.383  0.1032 -0.5446  0.3234
   40POPC   H5X 5405   1.857   3.060   7.477 -1.9100  0.4777  1.7936
   40POPC   H5Y 5406   1.715   3.042   7.355  0.2366  0.6352 -2.7996
   40POPC   C36 5407   1.787   3.243   7.380 -0.0943 -0.0144  0.8671
   40POPC   H6X 5408   1.762   3.273   7.276  1.1508  0.8915  0.8155
   40POPC   H6Y 5409   1.883   3.296   7.396 -0.1816  1.3779 -2.4146
   40POPC   C37 5410   1.681   3.290   7.481 -0.5818 -0.0317 -0.0503
   40POPC   H7X 5411   1.583   3.244   7.457 -0.1550 -0.9062 -0.1593
   40POPC   H7Y 5412   1.680   3.399   7.464 -1.5062 -0.1321 -0.7295
   40POPC   C38 5413   1.728   3.267   7.624  0.2841 -0.6115  0.5352
   40POPC   H8X 5414   1.769   3.164   7.630  0.5535 -0.6196 -0.9972
   40POPC   H8Y 5415   1.633   3.264   7.682  0.1726  1.6054  0.5471
   40POPC   C39 5416   1.810   3.384   7.677  0.0741  0.0656  0.3618
   40POPC   H9X 5417   1.778   3.488   7.653 -0.1690 -0.0146  0.3339
   40POPC   H9Y 5418   1.910   3.377   7.629  0.0917  1.7871  0.0898
   40POPC  C310 5419   1.826   3.368   7.837 -0.5222 -0.6758 -0.2976
   40POPC  H10X 5420   1.908   3.299   7.864  1.1644  0.9593 -1.0509
   40POPC  H10Y 5421   1.726   3.337   7.876 -0.7342  0.7466  0.3569
   40POPC  C311 5422   1.863   3.498   7.897  0.6418 -0.5443  0.3516
   40POPC  H11X 5423   1.795   3.576   7.855 -1.3678 -1.4868  1.7143
   40POPC  H11Y 5424   1.965   3.529   7.864  1.1333  0.2078  2.4619
   40POPC  C312 5425   1.861   3.508   8.047  0.2683  0.6595  0.0376
   40POPC  H12X 5426   1.914   3.433   8.108 -0.9156  0.6342  1.0848
   40POPC  H12Y 5427   1.756   3.502   8.085  0.1810 -1.2662 -0.4128
   40POPC  C313 5428   1.930   3.643   8.098  0.2404  0.6039  0.9559
   40POPC  H13X 5429   1.878   3.727   8.047 -1.3351 -0.3793  0.8664
   40POPC  H13Y 5430   2.033   3.653   8.059 -0.2240 -0.0327 -0.5351
   40POPC  C314 5431   1.913   3.648   8.251  0.2156 -0.4790  0.3897
   40POPC  H14X 5432   1.964   3.562   8.300  0.0860  0.1175  1.6042
   40POPC  H14Y 5433   1.806   3.635   8.274  0.5044 -1.1632  1.3934
   40POPC  C315 5434   1.966   3.786   8.299  0.1280  0.1503  0.4397
   40POPC  H15X 5435   1.903   3.869   8.261 -0.7288 -0.0497  1.3753
   40POPC  H15Y 5436   2.064   3.802   8.249 -1.0063 -0.1962 -2.0460
   40POPC  C316 5437   1.967   3.797   8.447  0.0104 -0.3543  0.5660
   40POPC  H16X 5438   1.975   3.694   8.488  1.6586 -0.5886 -0.2594
   40POPC  H16Y 5439   1.875   3.852   8.475  0.9549  1.8280 -0.2874
   40POPC  H16Z 5440   2.054   3.857   8.482 -0.8265  1.0795  0.2633
   41CHL1    C3 5441   1.268   1.021  10.202 -0.2170 -0.2512 -0.3132
   41CHL1    H3 5442   1.182   0.951  10.201 -0.6414  0.2561 -1.8596
   41CHL1    O3 5443   1.302   1.014  10.343  0.7690 -0.0409  0.2039
   41CHL1   H3' 5444   1.321   0.921  10.358  2.3844  0.6957  3.8083
   41CHL1    C4 5445   1.392   0.972  10.113 -0.9483 -0.1248 -0.4619
   41CHL1   H4A 5446   1.485   1.029  10.138  0.5460 -1.1791 -3.1312
   41CHL1   H4B 5447   1.396   0.869  10.154 -0.9438 -0.1018 -0.4038
   41CHL1    C5 5448   1.358   0.974   9.966  0.4081 -0.9305  0.7399
   41CHL1    C6 5449   1.373   0.865   9.887  0.6429  0.6600 -0.2071
   41CHL1    H6 5450   1.404   0.773   9.939 -2.0848 -0.4198 -0.2938
   41CHL1    C7 5451   1.350   0.855   9.735  0.3746 -0.6692 -0.2287
   41CHL1   H7A 5452   1.443   0.814   9.690  0.8900 -1.5555  1.5450
   41CHL1   H7B 5453   1.271   0.780   9.714  0.0845 -1.2116  2.3818
   41CHL1    C8 5454   1.345   1.001   9.678 -0.0127 -1.0770 -0.3300
   41CHL1    H8 5455   1.449   1.041   9.676 -0.7487  1.1446  1.5178
   41CHL1   C14 5456   1.298   0.989   9.539  0.2021 -0.7915  0.2352
   41CHL1   H14 5457   1.197   0.945   9.547 -0.8095  0.9232 -2.0837
   41CHL1   C15 5458   1.370   0.898   9.438 -0.2535  0.0116 -0.6715
   41CHL1  H15A 5459   1.479   0.919   9.436  0.1606 -1.9501 -1.6240
   41CHL1  H15B 5460   1.366   0.788   9.456 -2.5386 -0.1346 -1.7400
   41CHL1   C16 5461   1.313   0.941   9.300 -0.0351  0.4579 -0.1500
   41CHL1  H16A 5462   1.385   0.936   9.216  1.3113  1.1859  0.9031
   41CHL1  H16B 5463   1.238   0.864   9.275  0.4643  0.3052 -1.2400
   41CHL1   C17 5464   1.248   1.083   9.328  0.5798 -0.1971  0.8555
   41CHL1   H17 5465   1.142   1.052   9.342  0.3223 -0.2468 -0.8880
   41CHL1   C13 5466   1.288   1.118   9.471  0.8661 -0.3118  0.6677
   41CHL1   C18 5467   1.422   1.196   9.455  1.0355  0.3484 -0.5045
   41CHL1  H18A 5468   1.492   1.137   9.392  1.1430 -1.5629  1.2832
   41CHL1  H18B 5469   1.414   1.303   9.427  0.5336  0.9959  1.8336
   41CHL1  H18C 5470   1.473   1.206   9.553 -1.4822  0.5068  0.8787
   41CHL1   C12 5471   1.180   1.201   9.547 -1.2537 -0.4534 -0.3995
   41CHL1  H12A 5472   1.181   1.303   9.502  0.4820 -0.7130 -1.0503
   41CHL1  H12B 5473   1.080   1.154   9.542 -1.8653  0.5880  1.1116
   41CHL1   C11 5474   1.206   1.219   9.697 -0.0832  0.0223  0.3413
   41CHL1  H11A 5475   1.293   1.289   9.697  0.3091 -0.4594 -0.2976
   41CHL1  H11B 5476   1.122   1.275   9.744 -0.7540  0.6871 -1.5761
   41CHL1    C9 5477   1.248   1.084   9.760  0.4947  0.0238  0.0050
   41CHL1    H9 5478   1.152   1.029   9.769 -1.6932  3.4377 -0.5536
   41CHL1   C10 5479   1.293   1.104   9.910  0.0772  0.9009  0.2118
   41CHL1   C19 5480   1.408   1.204   9.911  0.5917 -0.8444 -0.4093
   41CHL1  H19A 5481   1.356   1.301   9.898  0.5113 -0.6571  1.1151
   41CHL1  H19B 5482   1.462   1.215  10.008  0.9483  2.2198 -0.8717
   41CHL1  H19C 5483   1.478   1.186   9.827  1.2206 -1.2073  0.1773
   41CHL1    C1 5484   1.179   1.145  10.003 -0.1502 -0.2418  0.0761
   41CHL1   H1A 5485   1.139   1.245   9.976  0.0896 -0.3548 -0.7076
   41CHL1   H1B 5486   1.094   1.074   9.997 -1.3119  1.1153 -0.0673
   41CHL1    C2 5487   1.222   1.157  10.152  0.7211  0.1354 -0.2473
   41CHL1   H2A 5488   1.135   1.191  10.212  0.5005  0.3110 -0.6624
   41CHL1   H2B 5489   1.298   1.238  10.157 -0.1251  0.9485 -0.2194
   41CHL1   C20 5490   1.261   1.174   9.205  0.3356 -0.7732 -0.6944
   41CHL1   H20 5491   1.365   1.205   9.179 -0.3325  1.3931 -1.0019
   41CHL1   C21 5492   1.182   1.307   9.238  0.5036  0.3509 -0.1576
   41CHL1  H21A 5493   1.078   1.287   9.270  0.0614  0.5163 -1.4695
   41CHL1  H21B 5494   1.178   1.367   9.145 -3.1992  0.6319  0.0264
   41CHL1  H21C 5495   1.236   1.367   9.315  1.6721  0.2640 -0.8781
   41CHL1   C22 5496   1.203   1.119   9.081 -0.5803  0.5338  0.0580
   41CHL1  H22A 5497   1.229   1.012   9.076 -0.0992  0.4462  2.8359
   41CHL1  H22B 5498   1.092   1.130   9.078 -0.5178  1.1909 -0.1387
   41CHL1   C23 5499   1.265   1.195   8.951  0.5360 -0.2423  0.0694
   41CHL1  H23A 5500   1.206   1.160   8.863 -0.5858  0.0459  0.6750
   41CHL1  H23B 5501   1.239   1.302   8.964  1.1959 -0.2930  2.1953
   41CHL1   C24 5502   1.405   1.176   8.906 -0.1292 -0.0165  0.5093
   41CHL1  H24A 5503   1.435   1.256   8.835 -0.1975  0.6684  1.2474
   41CHL1  H24B 5504   1.472   1.201   8.991 -2.6358  0.1426  2.5482
   41CHL1   C25 5505   1.436   1.043   8.840 -0.5581 -0.0191 -0.6412
   41CHL1   H25 5506   1.399   0.970   8.915  1.4103  0.9198  1.3658
   41CHL1   C26 5507   1.362   1.018   8.713  0.8111 -0.0404 -0.7360
   41CHL1  H26A 5508   1.404   0.935   8.652 -1.5825  0.2771 -2.9863
   41CHL1  H26B 5509   1.257   0.985   8.731  0.8448  1.1713  2.1989
   41CHL1  H26C 5510   1.366   1.101   8.639  0.4871  0.4372 -0.2252
   41CHL1   C27 5511   1.589   1.021   8.831  0.1732 -0.1812 -0.5131
   41CHL1  H27A 5512   1.640   1.050   8.925  1.0163 -1.1644 -0.6492
   41CHL1  H27B 5513   1.612   0.916   8.804  1.1202 -0.5513  1.5594
   41CHL1  H27C 5514   1.639   1.084   8.754  0.4938 -0.4712 -0.5426
   42CHL1    C3 5515   0.420   1.374   9.910  0.6829  0.1359 -0.2676
   42CHL1    H3 5516   0.449   1.481   9.899  1.4278 -0.1500 -1.2318
   42CHL1    O3 5517   0.369   1.359  10.038  0.1822 -0.1056  0.0093
   42CHL1   H3' 5518   0.281   1.328  10.017  0.2985  0.4206 -1.3822
   42CHL1    C4 5519   0.312   1.351   9.807 -0.2737 -0.4798 -0.4369
   42CHL1   H4A 5520   0.267   1.251   9.827 -3.0316  0.6054 -0.7895
   42CHL1   H4B 5521   0.229   1.424   9.817  0.6734  0.5905 -0.2213
   42CHL1    C5 5522   0.364   1.374   9.665  0.3686 -0.2541 -0.2253
   42CHL1    C6 5523   0.303   1.462   9.584  0.1003 -0.2037  0.4669
   42CHL1    H6 5524   0.203   1.499   9.611 -0.4037 -1.6670  0.7060
   42CHL1    C7 5525   0.353   1.485   9.445  0.5447  0.0319 -0.6090
   42CHL1   H7A 5526   0.261   1.479   9.383 -1.1680 -1.0552  1.8718
   42CHL1   H7B 5527   0.406   1.582   9.445  1.5924 -0.5156 -1.3914
   42CHL1    C8 5528   0.453   1.384   9.394  0.2273  0.6526  0.5727
   42CHL1    H8 5529   0.398   1.292   9.367 -0.8877  1.5660 -0.3662
   42CHL1   C14 5530   0.518   1.431   9.262  0.1159 -0.5495 -0.1234
   42CHL1   H14 5531   0.583   1.518   9.286 -0.3786 -0.5178  1.1615
   42CHL1   C15 5532   0.426   1.483   9.157 -0.3470  0.4870 -0.0700
   42CHL1  H15A 5533   0.340   1.413   9.149  0.1001  0.1089 -2.6580
   42CHL1  H15B 5534   0.395   1.586   9.188  0.8490  0.7304  0.3687
   42CHL1   C16 5535   0.512   1.465   9.031  0.2398 -0.2117  0.7773
   42CHL1  H16A 5536   0.448   1.405   8.961 -0.2528 -0.5734  1.5216
   42CHL1  H16B 5537   0.543   1.553   8.971 -2.1837  0.4143  0.3206
   42CHL1   C17 5538   0.648   1.396   9.062  0.1795  0.5433  0.5704
   42CHL1   H17 5539   0.721   1.474   9.093  1.1063  0.9492 -2.3325
   42CHL1   C13 5540   0.612   1.325   9.197  0.8418  0.2105 -0.7170
   42CHL1   C18 5541   0.533   1.187   9.167  0.6255 -0.1713  1.4054
   42CHL1  H18A 5542   0.481   1.159   9.261 -2.3642  5.1513  1.7345
   42CHL1  H18B 5543   0.455   1.196   9.088  1.5237 -0.4928  0.4546
   42CHL1  H18C 5544   0.587   1.096   9.133 -1.8702 -1.0916 -0.4633
   42CHL1   C12 5545   0.729   1.308   9.302  0.5078  0.0909  0.4440
   42CHL1  H12A 5546   0.797   1.232   9.257 -3.2848 -2.4759 -1.4715
   42CHL1  H12B 5547   0.791   1.400   9.299 -0.0325  0.4327 -0.5985
   42CHL1   C11 5548   0.681   1.271   9.437 -0.2077  0.7127 -0.0759
   42CHL1  H11A 5549   0.649   1.164   9.436 -0.6617  0.8109  1.3433
   42CHL1  H11B 5550   0.763   1.270   9.512 -1.5110  1.8029  1.4299
   42CHL1    C9 5551   0.562   1.356   9.498  0.6528 -0.0941 -0.1100
   42CHL1    H9 5552   0.602   1.459   9.510 -1.8336  0.8677  0.5020
   42CHL1   C10 5553   0.498   1.303   9.628 -0.3048 -0.5066  0.1732
   42CHL1   C19 5554   0.450   1.157   9.611  0.2632  0.6662 -0.7130
   42CHL1  H19A 5555   0.382   1.121   9.691 -1.0711  3.2311 -0.5886
   42CHL1  H19B 5556   0.401   1.139   9.512  2.2305 -0.7518 -1.4988
   42CHL1  H19C 5557   0.538   1.090   9.609  0.5872  1.0800 -2.5823
   42CHL1    C1 5558   0.601   1.315   9.748 -0.1698  0.5982  0.2612
   42CHL1   H1A 5559   0.688   1.254   9.715 -0.9415 -0.7136  0.6176
   42CHL1   H1B 5560   0.639   1.419   9.757  0.3517  0.3080  1.5748
   42CHL1    C2 5561   0.548   1.276   9.884  0.3773 -0.0232 -0.7213
   42CHL1   H2A 5562   0.620   1.309   9.962 -1.3699 -2.5508  2.1701
   42CHL1   H2B 5563   0.515   1.171   9.901 -0.4033  0.1500 -1.0936
   42CHL1   C20 5564   0.705   1.318   8.936  0.0053 -0.0951 -0.1630
   42CHL1   H20 5565   0.635   1.234   8.916  1.0694 -0.3219 -3.5457
   42CHL1   C21 5566   0.840   1.258   8.972 -0.4120  0.3476  0.0838
   42CHL1  H21A 5567   0.910   1.327   9.025 -0.5963 -0.6079  1.6516
   42CHL1  H21B 5568   0.889   1.215   8.882 -1.6203  1.6176 -1.2322
   42CHL1  H21C 5569   0.827   1.182   9.052 -0.0684  1.2767  1.0657
   42CHL1   C22 5570   0.718   1.400   8.800 -0.2158  0.2986 -0.5551
   42CHL1  H22A 5571   0.641   1.480   8.801  0.6408  1.1687  1.1917
   42CHL1  H22B 5572   0.811   1.458   8.819  0.4864 -0.8090 -0.5034
   42CHL1   C23 5573   0.729   1.313   8.674 -0.1771 -0.2952  1.1042
   42CHL1  H23A 5574   0.819   1.249   8.688 -0.2877 -0.4406  1.1449
   42CHL1  H23B 5575   0.638   1.250   8.669  0.5875 -1.3521 -0.7263
   42CHL1   C24 5576   0.742   1.406   8.543 -0.3564 -0.3719 -0.4307
   42CHL1  H24A 5577   0.650   1.466   8.545 -0.8898 -1.1873  0.2205
   42CHL1  H24B 5578   0.832   1.471   8.549 -0.6467 -0.0868  1.0524
   42CHL1   C25 5579   0.737   1.335   8.410  0.6485 -0.0472  0.1524
   42CHL1   H25 5580   0.831   1.279   8.392  1.1745  0.2471  1.7499
   42CHL1   C26 5581   0.627   1.223   8.395 -0.6414  0.2839  0.3030
   42CHL1  H26A 5582   0.602   1.173   8.491 -0.3085 -2.4135 -0.9109
   42CHL1  H26B 5583   0.534   1.272   8.360 -1.8309 -0.1510  2.6487
   42CHL1  H26C 5584   0.648   1.157   8.308 -0.2925 -0.4499  0.9290
   42CHL1   C27 5585   0.722   1.443   8.300 -0.5768 -0.4002 -0.3500
   42CHL1  H27A 5586   0.639   1.513   8.324 -1.5322 -1.5144 -0.3219
   42CHL1  H27B 5587   0.820   1.495   8.301 -0.0444 -1.3927  0.0258
   42CHL1  H27C 5588   0.699   1.401   8.200 -4.9552 -1.2610  0.7996
   43CHL1    C3 5589   0.767   0.902  10.254  0.6373 -0.0239 -0.4169
   43CHL1    H3 5590   0.733   0.797  10.256 -1.5654  0.6315 -1.0324
   43CHL1    O3 5591   0.773   0.954  10.384  0.3758  0.0372 -0.8352
   43CHL1   H3' 5592   0.823   0.886  10.431 -0.7534  0.6614  1.4498
   43CHL1    C4 5593   0.905   0.908  10.195 -0.6469  0.2696  0.0317
   43CHL1   H4A 5594   0.941   1.014  10.198  0.0363  0.0660 -0.7409
   43CHL1   H4B 5595   0.983   0.844  10.239  1.5370  1.3398 -2.0313
   43CHL1    C5 5596   0.903   0.855  10.048 -0.0263 -0.4610  0.5092
   43CHL1    C6 5597   0.983   0.751  10.007  0.7425 -0.0182 -0.5437
   43CHL1    H6 5598   1.046   0.702  10.082 -1.2092  0.4520  1.5439
   43CHL1    C7 5599   0.985   0.706   9.864 -0.4327  0.3833 -0.0668
   43CHL1   H7A 5600   1.089   0.689   9.829 -0.2586  1.5288 -0.1582
   43CHL1   H7B 5601   0.942   0.604   9.875  0.4191  0.3015  3.6038
   43CHL1    C8 5602   0.904   0.787   9.764  0.4486 -0.2101 -0.0537
   43CHL1    H8 5603   0.966   0.878   9.745 -2.7135  2.1960  0.2529
   43CHL1   C14 5604   0.882   0.708   9.640 -0.3474 -0.5609  0.4977
   43CHL1   H14 5605   0.808   0.629   9.668 -2.1046  0.5863 -0.7332
   43CHL1   C15 5606   0.999   0.637   9.569 -0.2257 -0.1143  0.0931
   43CHL1  H15A 5607   1.075   0.717   9.577 -2.8635  2.5280  0.3654
   43CHL1  H15B 5608   1.022   0.551   9.636  0.8878  0.5376  0.5721
   43CHL1   C16 5609   0.959   0.610   9.429 -0.4245  0.1521  0.6026
   43CHL1  H16A 5610   1.025   0.658   9.354 -1.4027  0.5874 -0.0012
   43CHL1  H16B 5611   0.937   0.504   9.402 -0.5951  0.7610 -1.9077
   43CHL1   C17 5612   0.824   0.694   9.405  0.9020 -0.9848 -0.2056
   43CHL1   H17 5613   0.737   0.626   9.418 -0.4224  0.2447 -2.1089
   43CHL1   C13 5614   0.813   0.792   9.531  0.6663  0.3195  0.2669
   43CHL1   C18 5615   0.896   0.916   9.491 -0.3651 -0.6412  0.3967
   43CHL1  H18A 5616   0.980   0.881   9.427 -1.2173 -1.7949 -0.1215
   43CHL1  H18B 5617   0.840   0.986   9.425  0.9602  0.4869  0.4082
   43CHL1  H18C 5618   0.938   0.970   9.578 -0.7392 -0.9471  0.7732
   43CHL1   C12 5619   0.676   0.832   9.578  0.2305 -0.0392 -0.7037
   43CHL1  H12A 5620   0.622   0.897   9.506 -0.2946  0.3207 -0.0017
   43CHL1  H12B 5621   0.613   0.742   9.592 -1.1736  0.9844 -0.1381
   43CHL1   C11 5622   0.686   0.909   9.716 -0.3713 -0.2162  0.3794
   43CHL1  H11A 5623   0.740   1.003   9.693  0.1938 -0.4090  0.8812
   43CHL1  H11B 5624   0.592   0.942   9.766  0.5299  1.1129  1.2689
   43CHL1    C9 5625   0.766   0.833   9.820 -0.6834  0.1647  0.0424
   43CHL1    H9 5626   0.710   0.739   9.842 -0.8623  0.6044  1.5706
   43CHL1   C10 5627   0.789   0.913   9.958  0.3012 -0.0349  0.4378
   43CHL1   C19 5628   0.824   1.058   9.924 -0.2902 -0.1623  0.3958
   43CHL1  H19A 5629   0.911   1.062   9.856  1.1114  1.2712  2.1580
   43CHL1  H19B 5630   0.732   1.114   9.895 -1.2187 -0.8172  1.9357
   43CHL1  H19C 5631   0.862   1.114  10.013 -1.3852  0.0095  0.7703
   43CHL1    C1 5632   0.651   0.916  10.038 -0.6270  1.0482 -0.4344
   43CHL1   H1A 5633   0.576   0.968   9.976 -1.8113 -0.1277 -0.0325
   43CHL1   H1B 5634   0.602   0.816  10.045 -0.2405  0.9056  0.3350
   43CHL1    C2 5635   0.667   0.980  10.177 -0.0403  0.0424  0.3477
   43CHL1   H2A 5636   0.566   0.971  10.222  0.4227  1.0378  1.6408
   43CHL1   H2B 5637   0.692   1.088  10.170  0.4810  0.1922  3.3502
   43CHL1   C20 5638   0.810   0.749   9.263 -1.0844 -0.0281 -0.0309
   43CHL1   H20 5639   0.900   0.813   9.249  0.9746 -2.5138  0.8993
   43CHL1   C21 5640   0.675   0.821   9.243 -0.3995 -0.5024  0.4236
   43CHL1  H21A 5641   0.601   0.744   9.274  0.7843 -1.0210  2.0883
   43CHL1  H21B 5642   0.657   0.852   9.137 -1.5431  0.5458  0.8941
   43CHL1  H21C 5643   0.660   0.916   9.299 -2.5356  0.6542 -1.8972
   43CHL1   C22 5644   0.830   0.641   9.155 -0.1030  0.1052 -0.3408
   43CHL1  H22A 5645   0.924   0.586   9.175 -0.5867 -0.9139 -0.8077
   43CHL1  H22B 5646   0.750   0.564   9.158  0.7449 -0.7694  0.6036
   43CHL1   C23 5647   0.828   0.686   9.011 -0.3065  0.0304  0.0901
   43CHL1  H23A 5648   0.843   0.596   8.948 -0.9256 -0.3934  0.5514
   43CHL1  H23B 5649   0.727   0.724   8.983 -0.4854  0.6710  1.5360
   43CHL1   C24 5650   0.942   0.783   8.962  0.6752 -0.0415 -0.3017
   43CHL1  H24A 5651   0.921   0.875   9.020  1.1284 -0.2820  0.2542
   43CHL1  H24B 5652   1.044   0.743   8.977  0.7305 -0.2975 -1.2515
   43CHL1   C25 5653   0.936   0.836   8.819  0.0014  0.3034 -0.4099
   43CHL1   H25 5654   1.021   0.905   8.805 -2.0803  3.3488  0.8794
   43CHL1   C26 5655   0.969   0.719   8.712  0.1087 -0.6653 -0.6621
   43CHL1  H26A 5656   0.969   0.759   8.608  0.3839 -0.0754 -0.4403
   43CHL1  H26B 5657   1.071   0.684   8.740  0.8393 -0.6369 -3.0598
   43CHL1  H26C 5658   0.905   0.629   8.703 -0.2868 -0.4660  0.0622
   43CHL1   C27 5659   0.806   0.902   8.781 -0.0430 -0.6510 -0.0886
   43CHL1  H27A 5660   0.799   0.996   8.840  0.7940 -1.6612  1.6641
   43CHL1  H27B 5661   0.807   0.919   8.671  1.0067 -1.7438 -0.2637
   43CHL1  H27C 5662   0.717   0.841   8.805 -1.4319  0.2574 -2.4915
   44CHL1    C3 5663   0.227   2.461  10.473  0.0116 -0.2505 -0.5245
   44CHL1    H3 5664   0.183   2.365  10.507  2.8992 -1.3518  0.3274
   44CHL1    O3 5665   0.278   2.527  10.589  0.4331 -0.3093  0.1846
   44CHL1   H3' 5666   0.330   2.598  10.551  2.3592 -1.9045 -0.3205
   44CHL1    C4 5667   0.356   2.431  10.389 -0.0023 -0.1461 -0.0024
   44CHL1   H4A 5668   0.420   2.519  10.365  1.6145 -1.4524 -0.6601
   44CHL1   H4B 5669   0.424   2.363  10.444 -0.1696 -0.3436 -0.0385
   44CHL1    C5 5670   0.325   2.381  10.248  0.2741  0.1168  0.6632
   44CHL1    C6 5671   0.365   2.266  10.196  0.4192  0.3136 -0.8829
   44CHL1    H6 5672   0.430   2.206  10.261  2.4278  1.2890 -1.9089
   44CHL1    C7 5673   0.349   2.215  10.061  0.2973 -0.4147 -0.0586
   44CHL1   H7A 5674   0.454   2.192  10.033  0.3790 -0.5164  0.3218
   44CHL1   H7B 5675   0.292   2.120  10.068  0.1855 -0.2504  1.6369
   44CHL1    C8 5676   0.284   2.317   9.966  0.7385  0.4232 -0.4053
   44CHL1    H8 5677   0.364   2.387   9.934  2.4668 -0.4145  1.8322
   44CHL1   C14 5678   0.214   2.235   9.853  0.0749  0.5966 -0.7514
   44CHL1   H14 5679   0.123   2.193   9.899  1.4758 -0.7719  0.9144
   44CHL1   C15 5680   0.288   2.124   9.775  0.1341  0.2656 -0.3720
   44CHL1  H15A 5681   0.399   2.132   9.767  0.2880  0.2091  1.2536
   44CHL1  H15B 5682   0.261   2.025   9.818 -3.2969  0.8192 -0.9485
   44CHL1   C16 5683   0.218   2.128   9.639 -0.9159  0.5259  0.3313
   44CHL1  H16A 5684   0.301   2.148   9.567 -1.6583  0.9361 -0.4287
   44CHL1  H16B 5685   0.181   2.031   9.598 -2.4276  2.7173 -4.2151
   44CHL1   C17 5686   0.118   2.244   9.636 -0.3288  0.2689  0.7982
   44CHL1   H17 5687   0.017   2.203   9.660 -0.1389 -0.1707  0.8631
   44CHL1   C13 5688   0.164   2.333   9.759 -0.5965 -0.9023  0.2791
   44CHL1   C18 5689   0.285   2.429   9.709  0.0705 -0.0818  0.5675
   44CHL1  H18A 5690   0.305   2.521   9.770  2.5022  0.6550 -1.1925
   44CHL1  H18B 5691   0.383   2.385   9.684 -0.3330 -0.6115 -0.1002
   44CHL1  H18C 5692   0.255   2.477   9.614 -0.4337 -1.3517  0.0764
   44CHL1   C12 5693   0.060   2.422   9.816  0.1238  0.4938  0.2910
   44CHL1  H12A 5694   0.026   2.498   9.743  0.3120  1.4980  1.2191
   44CHL1  H12B 5695  -0.024   2.354   9.842  1.5620 -1.7257 -0.5267
   44CHL1   C11 5696   0.111   2.493   9.941 -0.0197 -0.0232  0.4008
   44CHL1  H11A 5697   0.170   2.585   9.917 -1.8236  1.2169  0.5124
   44CHL1  H11B 5698   0.019   2.528   9.992 -0.5468  1.3701 -1.3586
   44CHL1    C9 5699   0.181   2.406  10.040 -0.4371 -0.0951  0.0222
   44CHL1    H9 5700   0.104   2.332  10.069 -1.1190  0.7466  0.3936
   44CHL1   C10 5701   0.232   2.472  10.171 -0.0575  0.3662  0.0366
   44CHL1   C19 5702   0.315   2.600  10.138  0.1859 -0.1688  0.0324
   44CHL1  H19A 5703   0.409   2.578  10.081 -0.1432  0.0992 -0.6253
   44CHL1  H19B 5704   0.256   2.682  10.091  2.7988  2.0103  0.2908
   44CHL1  H19C 5705   0.348   2.644  10.235 -1.4110 -0.3174  0.6674
   44CHL1    C1 5706   0.105   2.515  10.254 -0.0771 -0.0247  0.1460
   44CHL1   H1A 5707   0.048   2.596  10.204  0.8444 -0.7521 -2.2226
   44CHL1   H1B 5708   0.043   2.423  10.250 -0.9698  0.5982 -2.1135
   44CHL1    C2 5709   0.137   2.553  10.398 -0.4506 -0.4849  0.1436
   44CHL1   H2A 5710   0.045   2.561  10.460 -0.4701 -0.8614  0.1650
   44CHL1   H2B 5711   0.191   2.649  10.388  3.3216 -2.2811  1.3446
   44CHL1   C20 5712   0.108   2.304   9.489 -0.8779  0.0996 -0.4289
   44CHL1   H20 5713   0.060   2.404   9.496 -4.2210 -1.3796 -0.3083
   44CHL1   C21 5714   0.011   2.216   9.412  0.3737 -0.0759  0.4092
   44CHL1  H21A 5715   0.011   2.244   9.304  1.2817  1.0872  0.6794
   44CHL1  H21B 5716  -0.091   2.236   9.453  0.5522 -0.2190  0.9258
   44CHL1  H21C 5717   0.029   2.107   9.417 -2.5976 -0.6182  0.9965
   44CHL1   C22 5718   0.235   2.318   9.399  0.3397  0.0533 -0.2339
   44CHL1  H22A 5719   0.318   2.364   9.458 -0.3845  2.6314 -1.0774
   44CHL1  H22B 5720   0.284   2.224   9.365  3.1143  1.6799 -1.0946
   44CHL1   C23 5721   0.216   2.420   9.279 -0.5606 -0.3392  0.3089
   44CHL1  H23A 5722   0.140   2.381   9.208  1.3041 -2.5369 -0.6383
   44CHL1  H23B 5723   0.178   2.517   9.317  3.3539  1.6105 -0.2066
   44CHL1   C24 5724   0.351   2.431   9.200 -0.0792  0.2225 -0.2485
   44CHL1  H24A 5725   0.421   2.451   9.283 -3.1950  0.1008  2.6369
   44CHL1  H24B 5726   0.369   2.332   9.151  0.0630 -0.2675  0.7762
   44CHL1   C25 5727   0.369   2.540   9.091 -0.7740 -0.0927 -0.6220
   44CHL1   H25 5728   0.367   2.636   9.148 -0.7394 -0.2304 -0.3891
   44CHL1   C26 5729   0.518   2.526   9.037 -0.5253  0.3082 -0.1430
   44CHL1  H26A 5730   0.591   2.524   9.121  2.3976 -0.2706 -2.4870
   44CHL1  H26B 5731   0.529   2.448   8.958  1.4113 -2.0970  2.2780
   44CHL1  H26C 5732   0.543   2.626   8.996  1.9639 -0.2524 -0.1480
   44CHL1   C27 5733   0.260   2.536   8.985 -0.6274  0.3431  1.2073
   44CHL1  H27A 5734   0.158   2.545   9.027 -0.1445 -0.5009  2.6049
   44CHL1  H27B 5735   0.285   2.618   8.913 -0.6058 -0.9532 -0.3153
   44CHL1  H27C 5736   0.265   2.446   8.920 -0.8667  1.3704 -0.2855
   45CHL1    C3 5737   3.851   5.291  10.421  0.2085  0.6802  0.5703
   45CHL1    H3 5738   3.768   5.229  10.461  0.9958 -1.4443 -0.9422
   45CHL1    O3 5739   3.916   5.347  10.536 -0.0981  0.2286  0.3988
   45CHL1   H3' 5740   4.001   5.370  10.498  0.2087  0.6578  1.3378
   45CHL1    C4 5741   3.950   5.204  10.346 -0.6508 -0.1172  0.2624
   45CHL1   H4A 5742   4.042   5.264  10.328 -2.0474  1.5785 -1.7917
   45CHL1   H4B 5743   3.981   5.122  10.414  2.2492 -0.0474 -0.8042
   45CHL1    C5 5744   3.898   5.139  10.217  0.2072  0.4047  0.7211
   45CHL1    C6 5745   3.916   5.014  10.186  0.7302  0.0359  0.4867
   45CHL1    H6 5746   3.976   4.946  10.250  0.2867  0.4933  1.4161
   45CHL1    C7 5747   3.856   4.948  10.063 -0.8071  0.7091 -0.1198
   45CHL1   H7A 5748   3.934   4.893  10.006 -0.4836  2.1202 -1.1056
   45CHL1   H7B 5749   3.786   4.868  10.094 -1.1087  1.5752  1.5408
   45CHL1    C8 5750   3.770   5.030   9.966  0.3571 -0.0637 -0.2554
   45CHL1    H8 5751   3.685   4.959   9.952 -0.4735  0.1432  3.0207
   45CHL1   C14 5752   3.828   5.060   9.822  1.0229 -0.1250 -0.2720
   45CHL1   H14 5753   3.917   5.125   9.836  0.8007 -0.0347  0.8648
   45CHL1   C15 5754   3.889   4.942   9.749 -0.1313 -0.3284  0.1926
   45CHL1  H15A 5755   3.998   4.933   9.767 -0.2057 -2.9420 -0.2240
   45CHL1  H15B 5756   3.845   4.847   9.785 -2.8878  1.0076  0.6151
   45CHL1   C16 5757   3.844   4.963   9.603  0.8348  0.2295  0.2750
   45CHL1  H16A 5758   3.904   5.038   9.547 -0.6224  0.6949 -0.7007
   45CHL1  H16B 5759   3.844   4.871   9.540 -0.2789  0.7836 -0.5562
   45CHL1   C17 5760   3.703   5.039   9.608 -0.1536  0.5948 -0.1665
   45CHL1   H17 5761   3.637   4.956   9.641  1.3845 -0.6526 -0.1056
   45CHL1   C13 5762   3.721   5.131   9.727 -0.3304 -0.9055  0.3274
   45CHL1   C18 5763   3.804   5.256   9.684 -0.0195 -0.4094 -0.1242
   45CHL1  H18A 5764   3.897   5.220   9.635 -0.1399  0.4120 -0.9885
   45CHL1  H18B 5765   3.747   5.314   9.608 -2.1074 -0.4770  1.3107
   45CHL1  H18C 5766   3.834   5.322   9.768  0.4272 -1.7840  0.8120
   45CHL1   C12 5767   3.594   5.173   9.804  0.0480 -0.0592 -0.3481
   45CHL1  H12A 5768   3.534   5.252   9.753  1.1704  1.4943  0.6706
   45CHL1  H12B 5769   3.534   5.083   9.829 -0.8363  0.6072 -0.0168
   45CHL1   C11 5770   3.625   5.244   9.936  0.5428 -0.6816  0.0007
   45CHL1  H11A 5771   3.669   5.344   9.915 -2.3423  0.2597 -2.2650
   45CHL1  H11B 5772   3.526   5.268   9.980  0.1512 -0.6350 -0.8949
   45CHL1    C9 5773   3.718   5.159  10.034  0.5948  0.8835  0.1723
   45CHL1    H9 5774   3.645   5.110  10.103  1.1808  0.4071  0.4675
   45CHL1   C10 5775   3.810   5.238  10.131 -0.1619  1.0586 -0.3936
   45CHL1   C19 5776   3.920   5.304  10.045  0.4705  0.0268  0.0591
   45CHL1  H19A 5777   3.977   5.230   9.984 -1.0396 -0.8350 -0.3619
   45CHL1  H19B 5778   3.870   5.371   9.972 -0.6064  0.3076  1.0170
   45CHL1  H19C 5779   3.996   5.369  10.093  3.5053 -0.8065 -3.1557
   45CHL1    C1 5780   3.731   5.347  10.208 -0.2994  0.8553  1.0248
   45CHL1   H1A 5781   3.717   5.433  10.139 -1.3716  0.3434  0.5976
   45CHL1   H1B 5782   3.634   5.301  10.237  1.0742 -2.4001  0.8867
   45CHL1    C2 5783   3.799   5.407  10.329  0.2660  0.3061 -0.1052
   45CHL1   H2A 5784   3.720   5.465  10.381  0.2211  1.6157 -1.5622
   45CHL1   H2B 5785   3.880   5.482  10.311 -1.7315  3.3537  2.4421
   45CHL1   C20 5786   3.644   5.082   9.471 -0.1678  0.3354 -0.5004
   45CHL1   H20 5787   3.722   5.141   9.419 -0.0507  0.2849 -0.3834
   45CHL1   C21 5788   3.529   5.183   9.493 -0.3899 -0.1815 -0.4201
   45CHL1  H21A 5789   3.562   5.284   9.526  0.9832 -0.4202 -1.0177
   45CHL1  H21B 5790   3.454   5.140   9.563 -0.9652  1.1850 -0.1525
   45CHL1  H21C 5791   3.479   5.188   9.394  2.2483 -1.5750 -1.9161
   45CHL1   C22 5792   3.601   4.962   9.375 -0.1006  0.1789 -0.0084
   45CHL1  H22A 5793   3.676   4.881   9.387 -0.1393 -0.2104 -2.0011
   45CHL1  H22B 5794   3.507   4.924   9.419  0.1186  0.0793  0.3782
   45CHL1   C23 5795   3.584   4.986   9.226  0.5106  0.3732  1.0104
   45CHL1  H23A 5796   3.492   5.049   9.219 -0.6854 -1.2446  1.6557
   45CHL1  H23B 5797   3.676   5.038   9.193  0.1815  0.9561  0.9840
   45CHL1   C24 5798   3.565   4.857   9.140 -0.5444  0.1107 -0.5620
   45CHL1  H24A 5799   3.664   4.808   9.148  0.3176  1.9513  0.7231
   45CHL1  H24B 5800   3.479   4.805   9.187 -1.9986  2.9267  0.0951
   45CHL1   C25 5801   3.528   4.875   8.989  0.3218 -0.6438 -0.0638
   45CHL1   H25 5802   3.616   4.923   8.941 -0.7755 -0.9646 -2.5749
   45CHL1   C26 5803   3.493   4.741   8.921  0.1938 -0.9724 -0.1696
   45CHL1  H26A 5804   3.585   4.682   8.904  1.1688  0.2704  0.5961
   45CHL1  H26B 5805   3.418   4.672   8.964 -1.4973 -0.5339 -2.1950
   45CHL1  H26C 5806   3.450   4.774   8.824  1.3417  0.5458 -0.1977
   45CHL1   C27 5807   3.404   4.967   8.981 -0.1302 -0.5544  0.2030
   45CHL1  H27A 5808   3.414   5.065   9.034 -2.9966  1.3438 -2.4058
   45CHL1  H27B 5809   3.363   4.991   8.881 -3.3160 -2.1550  0.9925
   45CHL1  H27C 5810   3.324   4.917   9.040  0.7868 -1.6539  0.5535
   46CHL1    C3 5811   6.475   3.547  10.200 -0.0290  0.1367  0.2449
   46CHL1    H3 5812   6.380   3.494  10.174 -0.6400  1.1123  0.4323
   46CHL1    O3 5813   6.471   3.563  10.346 -0.5613 -0.4101  0.2374
   46CHL1   H3' 5814   6.503   3.484  10.390 -1.2955 -1.0085 -0.2771
   46CHL1    C4 5815   6.592   3.460  10.151  0.4698 -0.0713 -0.3854
   46CHL1   H4A 5816   6.688   3.501  10.188  0.1098 -0.2722  0.8012
   46CHL1   H4B 5817   6.577   3.364  10.205 -1.4935  0.9291  0.9575
   46CHL1    C5 5818   6.576   3.453   9.999 -0.3713 -0.8206  0.9827
   46CHL1    C6 5819   6.579   3.329   9.940  0.8605 -0.4387  0.3999
   46CHL1    H6 5820   6.591   3.242  10.006  0.5865 -0.4627  0.4182
   46CHL1    C7 5821   6.573   3.312   9.791 -0.0711 -0.0259  0.3225
   46CHL1   H7A 5822   6.644   3.232   9.760 -2.0864 -0.9714 -2.2433
   46CHL1   H7B 5823   6.470   3.283   9.761 -0.5948  1.1615  0.9038
   46CHL1    C8 5824   6.611   3.447   9.711 -0.3280 -0.0228  0.4342
   46CHL1    H8 5825   6.722   3.449   9.713 -0.3068 -0.7334  0.3763
   46CHL1   C14 5826   6.580   3.438   9.563 -0.3439  0.0456  0.0857
   46CHL1   H14 5827   6.469   3.445   9.559 -0.5202 -1.5341  1.1654
   46CHL1   C15 5828   6.626   3.310   9.489 -0.7483  0.3924 -0.2553
   46CHL1  H15A 5829   6.727   3.284   9.525 -0.7621 -1.4118 -1.4149
   46CHL1  H15B 5830   6.553   3.232   9.520 -2.8875  1.5456 -2.0147
   46CHL1   C16 5831   6.625   3.348   9.341  0.3287  0.7227 -0.8079
   46CHL1  H16A 5832   6.729   3.340   9.305 -0.1131 -0.8775 -1.8499
   46CHL1  H16B 5833   6.558   3.280   9.283 -0.0939 -2.0563  2.5899
   46CHL1   C17 5834   6.576   3.501   9.338 -0.1625  0.5338  0.0500
   46CHL1   H17 5835   6.465   3.501   9.341 -0.3865  0.1247 -3.6560
   46CHL1   C13 5836   6.615   3.561   9.475 -0.3671  0.0359 -0.1495
   46CHL1   C18 5837   6.769   3.583   9.475  0.0303  1.2250 -0.2828
   46CHL1  H18A 5838   6.801   3.593   9.581  2.0373  1.0361 -0.8327
   46CHL1  H18B 5839   6.834   3.505   9.430  0.0608  1.3666 -0.4830
   46CHL1  H18C 5840   6.790   3.677   9.419 -0.0801  0.5473 -1.5053
   46CHL1   C12 5841   6.537   3.676   9.532 -0.2225  0.0428 -0.5553
   46CHL1  H12A 5842   6.552   3.770   9.475 -0.5560 -0.3171 -1.2474
   46CHL1  H12B 5843   6.427   3.665   9.520 -0.4847  3.3101 -2.3836
   46CHL1   C11 5844   6.560   3.692   9.684 -0.1147 -0.3833 -0.3016
   46CHL1  H11A 5845   6.664   3.731   9.694 -0.3333 -0.1933  1.6797
   46CHL1  H11B 5846   6.484   3.766   9.717 -0.7707 -1.0985 -0.1958
   46CHL1    C9 5847   6.543   3.565   9.770 -0.1641 -0.4460 -0.4376
   46CHL1    H9 5848   6.434   3.543   9.767 -0.2817  0.0342  0.1036
   46CHL1   C10 5849   6.579   3.591   9.918  0.0175  0.1084 -0.7797
   46CHL1   C19 5850   6.725   3.645   9.931 -0.6253  1.1079  0.3616
   46CHL1  H19A 5851   6.735   3.741   9.876 -1.0688 -1.3162 -4.5475
   46CHL1  H19B 5852   6.772   3.643  10.032  2.0014  1.8815 -0.7616
   46CHL1  H19C 5853   6.778   3.567   9.872 -0.3984 -0.3423  2.3911
   46CHL1    C1 5854   6.482   3.691   9.985  0.0530 -0.3489  0.2198
   46CHL1   H1A 5855   6.513   3.795   9.960 -0.0973  0.4689  3.0320
   46CHL1   H1B 5856   6.383   3.686   9.935  0.2418 -1.2483 -0.0723
   46CHL1    C2 5857   6.483   3.687  10.142 -0.0172  0.4002  0.3425
   46CHL1   H2A 5858   6.389   3.742  10.165  1.0369  2.7075 -0.5193
   46CHL1   H2B 5859   6.575   3.738  10.178 -1.0242  0.3215  3.2632
   46CHL1   C20 5860   6.606   3.573   9.204  0.2705 -0.4247 -0.2573
   46CHL1   H20 5861   6.717   3.568   9.195  0.3113  0.7852 -0.6574
   46CHL1   C21 5862   6.574   3.727   9.199  0.0738  0.4728  0.4058
   46CHL1  H21A 5863   6.617   3.772   9.291  0.1645  1.6093 -0.1890
   46CHL1  H21B 5864   6.467   3.758   9.200  0.7235  2.9618 -0.5811
   46CHL1  H21C 5865   6.623   3.771   9.110 -2.1266  0.4989 -0.8834
   46CHL1   C22 5866   6.541   3.506   9.085 -0.2416 -0.1034  0.7874
   46CHL1  H22A 5867   6.566   3.398   9.098  0.5188  0.1015  1.0564
   46CHL1  H22B 5868   6.430   3.513   9.088 -0.3685 -0.4590 -1.3692
   46CHL1   C23 5869   6.611   3.542   8.958  0.3350  0.2158  0.0561
   46CHL1  H23A 5870   6.586   3.647   8.928  2.8378  1.2223  1.2094
   46CHL1  H23B 5871   6.719   3.547   8.985 -0.2633  2.8556  2.4698
   46CHL1   C24 5872   6.575   3.438   8.844 -0.4070  0.6313 -0.1795
   46CHL1  H24A 5873   6.569   3.335   8.884  1.5556  0.7346  0.5063
   46CHL1  H24B 5874   6.471   3.455   8.811 -0.5474  0.1277 -0.0043
   46CHL1   C25 5875   6.670   3.445   8.729 -0.0286  0.1599  0.1715
   46CHL1   H25 5876   6.776   3.448   8.760 -0.2187  0.5096  0.7850
   46CHL1   C26 5877   6.658   3.322   8.643 -0.4359  0.4285  0.0364
   46CHL1  H26A 5878   6.681   3.236   8.710  0.4650  1.1891  0.7437
   46CHL1  H26B 5879   6.559   3.308   8.596 -0.2846 -1.2204  0.1639
   46CHL1  H26C 5880   6.740   3.324   8.567  0.5274  0.2785  1.0396
   46CHL1   C27 5881   6.632   3.569   8.645  0.4908  0.4555 -0.0628
   46CHL1  H27A 5882   6.529   3.546   8.608 -0.2077  0.7938  1.5860
   46CHL1  H27B 5883   6.646   3.660   8.708 -2.9256  1.0111  0.0956
   46CHL1  H27C 5884   6.708   3.570   8.564  3.1291  1.6004  2.2679
   47CHL1    C3 5885   0.511   1.433  10.352  0.6533 -0.2193  0.4112
   47CHL1    H3 5886   0.402   1.452  10.341  0.7646  0.9529  1.2038
   47CHL1    O3 5887   0.552   1.329  10.264 -0.1236  0.4042  0.3680
   47CHL1   H3' 5888   0.504   1.353  10.185  0.3710 -0.3505 -0.1729
   47CHL1    C4 5889   0.576   1.570  10.310 -0.6359  0.1376 -0.0932
   47CHL1   H4A 5890   0.684   1.557  10.328 -0.2950 -0.6831 -2.5029
   47CHL1   H4B 5891   0.580   1.586  10.201 -1.2688  0.9919 -0.0083
   47CHL1    C5 5892   0.515   1.678  10.390 -0.0956 -1.0410  0.1586
   47CHL1    C6 5893   0.462   1.786  10.339  0.5189 -0.8356 -0.3791
   47CHL1    H6 5894   0.461   1.805  10.230 -0.7064  2.3614  0.0613
   47CHL1    C7 5895   0.393   1.894  10.426  0.9016 -0.5571 -0.0580
   47CHL1   H7A 5896   0.407   1.986  10.364  0.0926 -0.2878  0.1536
   47CHL1   H7B 5897   0.283   1.888  10.423  0.7385  1.3308  0.9462
   47CHL1    C8 5898   0.450   1.891  10.562  0.2344  0.2535 -0.7772
   47CHL1    H8 5899   0.556   1.924  10.560  0.4300 -0.3581 -1.0178
   47CHL1   C14 5900   0.362   1.985  10.652 -0.0172  0.3366  0.4114
   47CHL1   H14 5901   0.255   1.955  10.640  0.1858  0.1937 -1.4091
   47CHL1   C15 5902   0.363   2.135  10.616  0.1157 -0.1038  0.3568
   47CHL1  H15A 5903   0.469   2.159  10.592 -0.1253 -0.1893 -0.8760
   47CHL1  H15B 5904   0.317   2.165  10.519  1.3904  1.1515  0.0987
   47CHL1   C16 5905   0.311   2.203  10.741 -0.1661 -0.2200 -0.5296
   47CHL1  H16A 5906   0.380   2.289  10.754  0.0383 -0.5192  0.4361
   47CHL1  H16B 5907   0.210   2.246  10.723  0.2082  1.6350  1.4593
   47CHL1   C17 5908   0.313   2.103  10.856  0.1404  0.1212  0.4451
   47CHL1   H17 5909   0.210   2.062  10.864  0.9994 -1.9275  1.9243
   47CHL1   C13 5910   0.399   1.983  10.805 -0.3556 -0.6603  0.0545
   47CHL1   C18 5911   0.546   2.019  10.831 -0.4317  0.7216 -0.1194
   47CHL1  H18A 5912   0.572   1.998  10.937  2.7109 -1.4400 -1.1649
   47CHL1  H18B 5913   0.618   1.960  10.770 -0.4606  0.7223 -0.1541
   47CHL1  H18C 5914   0.574   2.123  10.804  0.9212  0.2124 -0.7892
   47CHL1   C12 5915   0.360   1.848  10.853  0.3091 -0.1658  0.5165
   47CHL1  H12A 5916   0.382   1.839  10.962  3.4826  0.9833  0.0399
   47CHL1  H12B 5917   0.251   1.823  10.846  0.3646 -0.5456  0.9020
   47CHL1   C11 5918   0.450   1.744  10.782 -0.1669 -0.3258 -0.6331
   47CHL1  H11A 5919   0.556   1.763  10.809 -0.3782  0.5950 -0.3991
   47CHL1  H11B 5920   0.421   1.644  10.818 -0.4857 -0.6824 -1.8197
   47CHL1    C9 5921   0.432   1.747  10.622  0.4752 -0.1671  0.5422
   47CHL1    H9 5922   0.328   1.709  10.612  0.3729  0.1573  0.3955
   47CHL1   C10 5923   0.523   1.652  10.540 -0.0515 -0.0935 -0.1126
   47CHL1   C19 5924   0.670   1.669  10.580  0.0162  0.4174 -0.3382
   47CHL1  H19A 5925   0.733   1.598  10.522  0.0207  1.2410 -1.3782
   47CHL1  H19B 5926   0.713   1.770  10.562 -2.2644  1.3121 -1.0867
   47CHL1  H19C 5927   0.681   1.646  10.688 -0.2294  1.2699 -0.1287
   47CHL1    C1 5928   0.478   1.511  10.578  0.0661  0.5752  0.4270
   47CHL1   H1A 5929   0.496   1.493  10.686  0.0808  0.9836  0.4968
   47CHL1   H1B 5930   0.368   1.512  10.564 -0.0239 -1.4984  0.7054
   47CHL1    C2 5931   0.549   1.407  10.492  0.0735  1.0077  0.3780
   47CHL1   H2A 5932   0.501   1.312  10.525  0.7447  1.0393  1.5213
   47CHL1   H2B 5933   0.660   1.403  10.504  0.3063  0.4485 -1.6160
   47CHL1   C20 5934   0.352   2.177  10.989  0.4587  0.1454 -0.1516
   47CHL1   H20 5935   0.459   2.208  10.987  0.9228 -0.6608  3.8429
   47CHL1   C21 5936   0.330   2.073  11.107 -0.0563  0.2810 -0.3020
   47CHL1  H21A 5937   0.319   2.127  11.203  0.6980  1.0038 -0.6106
   47CHL1  H21B 5938   0.413   1.999  11.116 -1.3709 -1.1700  0.2378
   47CHL1  H21C 5939   0.228   2.031  11.096 -0.5831  1.2759  0.6691
   47CHL1   C22 5940   0.253   2.296  11.010  0.3188 -0.1409 -0.0367
   47CHL1  H22A 5941   0.246   2.370  10.927 -2.0616 -1.1796 -0.8417
   47CHL1  H22B 5942   0.144   2.275  11.014 -0.2384  2.2591 -0.7226
   47CHL1   C23 5943   0.276   2.374  11.135  0.1577 -0.2808 -0.3089
   47CHL1  H23A 5944   0.266   2.323  11.233  0.8596 -1.1468 -0.6699
   47CHL1  H23B 5945   0.381   2.409  11.133 -0.2284  0.9905 -2.8696
   47CHL1   C24 5946   0.182   2.497  11.139 -0.0847  0.0563 -0.3023
   47CHL1  H24A 5947   0.192   2.547  11.040 -2.2939 -2.1665 -1.7922
   47CHL1  H24B 5948   0.075   2.467  11.140 -0.3626  0.9256 -1.6142
   47CHL1   C25 5949   0.180   2.605  11.249  0.2856  0.1947 -0.0563
   47CHL1   H25 5950   0.089   2.667  11.236  0.4583  0.9050  1.7878
   47CHL1   C26 5951   0.193   2.545  11.393 -0.9621 -0.2033  0.0129
   47CHL1  H26A 5952   0.292   2.495  11.405 -1.6819 -1.8944 -0.8164
   47CHL1  H26B 5953   0.113   2.468  11.403 -0.6311 -0.5823 -0.1985
   47CHL1  H26C 5954   0.181   2.628  11.465  3.6992 -0.3931  1.3415
   47CHL1   C27 5955   0.290   2.709  11.219  0.1625  0.2065  0.0435
   47CHL1  H27A 5956   0.282   2.804  11.277  0.3241  1.1377 -1.4084
   47CHL1  H27B 5957   0.386   2.657  11.240  0.5181  0.7005 -0.3447
   47CHL1  H27C 5958   0.283   2.744  11.114 -1.5642  0.5786  0.2578
   48CHL1    C3 5959   1.082   1.629  10.321  0.0894  0.2823 -0.3831
   48CHL1    H3 5960   0.983   1.675  10.340  0.4330  1.5711 -1.5081
   48CHL1    O3 5961   1.141   1.591  10.444  0.3238 -0.0774 -0.2062
   48CHL1   H3' 5962   1.219   1.537  10.430 -0.8730 -2.4685  1.5176
   48CHL1    C4 5963   1.073   1.506  10.227 -0.3101 -0.1718 -0.0598
   48CHL1   H4A 5964   1.163   1.441  10.226  0.0272  0.2931 -0.5753
   48CHL1   H4B 5965   0.989   1.443  10.263 -0.0918 -0.7310 -0.4998
   48CHL1    C5 5966   1.050   1.532  10.081 -0.6712 -0.3791  0.1565
   48CHL1    C6 5967   0.957   1.458  10.016  0.6341 -0.7788  0.6152
   48CHL1    H6 5968   0.898   1.380  10.066  0.0553 -0.5145  0.3417
   48CHL1    C7 5969   0.936   1.472   9.871 -0.1889  0.3622  0.6484
   48CHL1   H7A 5970   0.916   1.378   9.814 -0.0314 -1.5525  3.5493
   48CHL1   H7B 5971   0.836   1.521   9.871  0.6725  2.1971 -0.6761
   48CHL1    C8 5972   1.038   1.566   9.789  0.5750 -0.1460 -0.6364
   48CHL1    H8 5973   1.131   1.510   9.767  0.2932 -2.0710  2.5235
   48CHL1   C14 5974   0.984   1.615   9.658 -0.0082 -0.2193 -0.9337
   48CHL1   H14 5975   0.897   1.677   9.688 -1.3425 -2.9925  1.3938
   48CHL1   C15 5976   0.927   1.516   9.561 -0.2529 -0.3819 -0.6584
   48CHL1  H15A 5977   0.993   1.428   9.574 -1.4007 -1.1116  0.4555
   48CHL1  H15B 5978   0.821   1.491   9.585 -0.7186  1.4730 -0.6088
   48CHL1   C16 5979   0.925   1.587   9.422  0.7382 -1.0432 -0.7538
   48CHL1  H16A 5980   0.977   1.516   9.355  1.6882 -1.5157  0.4537
   48CHL1  H16B 5981   0.821   1.615   9.395  0.0526  0.4863  2.8968
   48CHL1   C17 5982   1.004   1.720   9.441  0.1096 -0.7543 -0.9265
   48CHL1   H17 5983   0.926   1.794   9.469  1.3279  0.5209 -0.7750
   48CHL1   C13 5984   1.076   1.707   9.580 -0.4848 -0.1991  0.9162
   48CHL1   C18 5985   1.210   1.631   9.550 -0.3855  0.5271  0.1525
   48CHL1  H18A 5986   1.197   1.538   9.491  0.3696  2.0035 -2.4983
   48CHL1  H18B 5987   1.280   1.700   9.498  0.9789 -1.8592 -1.3567
   48CHL1  H18C 5988   1.262   1.608   9.646 -0.1109  2.2954  0.4659
   48CHL1   C12 5989   1.116   1.837   9.660  0.1071  0.3991 -0.1407
   48CHL1  H12A 5990   1.190   1.899   9.605  0.6155 -1.1196 -1.2607
   48CHL1  H12B 5991   1.021   1.887   9.687  0.2784 -0.2650  1.8139
   48CHL1   C11 5992   1.166   1.796   9.803 -0.4587 -0.8028 -0.2493
   48CHL1  H11A 5993   1.271   1.762   9.788 -0.4226 -0.8955  0.1858
   48CHL1  H11B 5994   1.166   1.883   9.873 -1.0416 -2.8291  2.4386
   48CHL1    C9 5995   1.076   1.688   9.877 -0.4631  0.0961 -0.1058
   48CHL1    H9 5996   0.977   1.734   9.896 -0.1084  0.1321  1.8879
   48CHL1   C10 5997   1.133   1.647  10.021  0.3819 -0.1936  0.5802
   48CHL1   C19 5998   1.285   1.607  10.008  0.1497 -0.0858 -0.5306
   48CHL1  H19A 5999   1.342   1.697   9.977  1.1186 -0.0657  1.1644
   48CHL1  H19B 6000   1.312   1.570  10.109 -2.0752 -1.7630 -0.4590
   48CHL1  H19C 6001   1.280   1.526   9.933 -1.6040  0.3375 -0.9386
   48CHL1    C1 6002   1.132   1.770  10.106  0.7716 -0.5243  0.0902
   48CHL1   H1A 6003   1.200   1.846  10.061 -0.1225 -0.1967 -0.7535
   48CHL1   H1B 6004   1.031   1.816  10.102  0.5891 -0.9587 -0.5827
   48CHL1    C2 6005   1.160   1.750  10.256  0.0634 -0.1512 -0.4990
   48CHL1   H2A 6006   1.129   1.844  10.308 -3.0919 -1.7378  0.7916
   48CHL1   H2B 6007   1.269   1.732  10.270 -0.1190 -0.9800 -0.0315
   48CHL1   C20 6008   1.063   1.772   9.314 -0.4011 -0.5209  0.0872
   48CHL1   H20 6009   1.129   1.691   9.278 -1.3426 -0.3406 -2.1735
   48CHL1   C21 6010   1.141   1.907   9.336 -0.0800  0.1859 -0.4054
   48CHL1  H21A 6011   1.177   1.952   9.241 -0.4222  0.6867 -0.2963
   48CHL1  H21B 6012   1.221   1.890   9.411 -2.2523  0.2140  2.0512
   48CHL1  H21C 6013   1.071   1.979   9.383 -1.1793 -1.7044  1.0153
   48CHL1   C22 6014   0.948   1.803   9.216  0.4135  0.3849 -1.2198
   48CHL1  H22A 6015   0.866   1.729   9.209  1.6923 -1.1745 -0.3331
   48CHL1  H22B 6016   0.895   1.896   9.247 -0.9295 -0.2002 -1.6873
   48CHL1   C23 6017   0.984   1.822   9.069  0.2972 -0.4383  0.2889
   48CHL1  H23A 6018   0.897   1.859   9.011  1.0661  0.5040 -0.3041
   48CHL1  H23B 6019   1.062   1.901   9.062  1.8734 -1.8958  0.5795
   48CHL1   C24 6020   1.034   1.693   9.005  0.3933 -0.3335 -0.3859
   48CHL1  H24A 6021   1.126   1.659   9.056  0.4618  0.2298 -0.1284
   48CHL1  H24B 6022   0.949   1.622   9.014  1.0389 -1.0309  0.3070
   48CHL1   C25 6023   1.074   1.706   8.852  0.2605 -0.3991  0.5411
   48CHL1   H25 6024   0.980   1.740   8.804 -2.1271 -3.5652  2.5333
   48CHL1   C26 6025   1.187   1.799   8.821  0.2137 -0.3180 -0.3655
   48CHL1  H26A 6026   1.213   1.788   8.714 -2.2174  1.9609 -1.2874
   48CHL1  H26B 6027   1.153   1.905   8.824 -2.1375 -1.0018 -0.4405
   48CHL1  H26C 6028   1.271   1.788   8.893  0.5160  0.2435 -0.6326
   48CHL1   C27 6029   1.118   1.566   8.810  0.5288 -0.1278  0.0827
   48CHL1  H27A 6030   1.034   1.498   8.836 -0.7943  1.4752  0.2298
   48CHL1  H27B 6031   1.134   1.560   8.701  2.5092 -2.9512  0.4281
   48CHL1  H27C 6032   1.208   1.531   8.865 -0.4011 -1.3398  0.8719
   49CHL1    C3 6033   5.926   2.825  10.323  0.5804  0.2912  0.1968
   49CHL1    H3 6034   6.014   2.892  10.325 -0.0075  1.0582  1.5229
   49CHL1    O3 6035   5.885   2.808  10.458  0.3891  0.4351  0.2157
   49CHL1   H3' 6036   5.956   2.769  10.509  0.7300 -0.0160 -0.5887
   49CHL1    C4 6037   5.801   2.873  10.245  0.0772  0.1824 -0.1150
   49CHL1   H4A 6038   5.713   2.809  10.271  0.3317  0.0306  0.3863
   49CHL1   H4B 6039   5.775   2.975  10.280  1.9760  0.1441  1.5444
   49CHL1    C5 6040   5.823   2.877  10.093 -0.4054 -0.1340  0.7991
   49CHL1    C6 6041   5.809   2.996  10.023 -0.5177 -0.6155  0.0725
   49CHL1    H6 6042   5.768   3.086  10.070 -1.3834 -0.9289 -0.0746
   49CHL1    C7 6043   5.838   3.005   9.880  0.1530  0.2255 -0.3497
   49CHL1   H7A 6044   5.761   3.062   9.825  0.0188 -0.7569 -1.2050
   49CHL1   H7B 6045   5.942   3.043   9.884  0.8689 -1.5461 -0.8905
   49CHL1    C8 6046   5.843   2.869   9.809  0.5716  0.4751  0.1460
   49CHL1    H8 6047   5.739   2.833   9.795  0.6226  0.6593 -0.7042
   49CHL1   C14 6048   5.911   2.885   9.674 -0.2634  0.2907  0.6187
   49CHL1   H14 6049   6.015   2.920   9.692 -0.5379  2.1106 -0.9492
   49CHL1   C15 6050   5.853   3.001   9.587  0.8756 -0.0616  0.0136
   49CHL1  H15A 6051   5.743   3.002   9.603  0.3082 -0.9610 -3.2393
   49CHL1  H15B 6052   5.910   3.092   9.618  2.6203 -1.1900  0.2260
   49CHL1   C16 6053   5.883   2.968   9.443 -0.4029  0.3058 -0.0880
   49CHL1  H16A 6054   5.793   2.972   9.377 -0.8400 -0.1208  0.4671
   49CHL1  H16B 6055   5.940   3.059   9.414  1.2577 -0.7995 -0.3957
   49CHL1   C17 6056   5.982   2.847   9.452 -0.2460 -0.1095  0.2468
   49CHL1   H17 6057   6.083   2.886   9.477 -0.2135  1.2358 -1.7142
   49CHL1   C13 6058   5.931   2.770   9.582  0.7926  1.0823  0.1516
   49CHL1   C18 6059   5.798   2.697   9.554  1.2807  0.1728 -0.4740
   49CHL1  H18A 6060   5.718   2.759   9.509 -0.9248 -1.1479  1.4138
   49CHL1  H18B 6061   5.807   2.609   9.487 -1.2847 -1.3876  1.0552
   49CHL1  H18C 6062   5.748   2.660   9.647  0.1997 -0.7531 -1.3924
   49CHL1   C12 6063   6.027   2.675   9.661 -0.2334 -0.7828 -0.0375
   49CHL1  H12A 6064   6.035   2.577   9.611  0.3835 -0.3967 -0.7167
   49CHL1  H12B 6065   6.123   2.731   9.669 -0.5278 -0.2171 -0.3688
   49CHL1   C11 6066   5.967   2.650   9.807 -0.2707  0.8962 -0.5500
   49CHL1  H11A 6067   5.872   2.598   9.781 -1.0038  1.8514  0.1579
   49CHL1  H11B 6068   6.036   2.588   9.868  1.9206  3.4112 -0.3099
   49CHL1    C9 6069   5.934   2.777   9.888 -0.5712  0.0704 -0.0231
   49CHL1    H9 6070   6.029   2.831   9.907 -1.4460  1.0113  2.0923
   49CHL1   C10 6071   5.878   2.746  10.031 -0.4018  0.2820 -0.6731
   49CHL1   C19 6072   5.764   2.640  10.021  0.1558  0.1080  0.0647
   49CHL1  H19A 6073   5.675   2.676   9.965  0.3103 -2.3422 -1.9137
   49CHL1  H19B 6074   5.790   2.540   9.979 -0.9342  0.4470 -1.5018
   49CHL1  H19C 6075   5.739   2.627  10.128  0.6224  0.2741  0.1988
   49CHL1    C1 6076   5.997   2.693  10.121 -0.2272  0.0342 -0.6587
   49CHL1   H1A 6077   6.019   2.590  10.084 -0.9990 -0.6297  0.6406
   49CHL1   H1B 6078   6.081   2.764  10.103 -1.9821  1.8006 -2.3003
   49CHL1    C2 6079   5.966   2.687  10.272 -0.2563 -0.3610  0.9293
   49CHL1   H2A 6080   6.061   2.661  10.323  0.8239  1.1109 -0.2546
   49CHL1   H2B 6081   5.891   2.607  10.292 -0.1417 -1.3744 -2.1131
   49CHL1   C20 6082   5.988   2.774   9.320 -0.1093 -0.1340 -0.4910
   49CHL1   H20 6083   5.890   2.732   9.289 -1.3039  2.1109 -0.0374
   49CHL1   C21 6084   6.075   2.652   9.336 -0.5834  0.5387  0.2192
   49CHL1  H21A 6085   6.073   2.589   9.244  0.8803 -0.8922  1.1100
   49CHL1  H21B 6086   6.030   2.588   9.415 -1.2397 -0.1709 -0.7067
   49CHL1  H21C 6087   6.176   2.674   9.376 -0.3058  0.2846 -0.3340
   49CHL1   C22 6088   6.043   2.861   9.212 -0.2539 -1.0369 -0.0343
   49CHL1  H22A 6089   5.997   2.960   9.188 -1.4552 -1.2478  1.2644
   49CHL1  H22B 6090   6.149   2.874   9.243 -0.3242  2.3491 -0.7899
   49CHL1   C23 6091   6.038   2.786   9.084 -0.6088  0.0800  0.7229
   49CHL1  H23A 6092   6.131   2.725   9.081 -1.3042 -0.9698 -1.0761
   49CHL1  H23B 6093   5.954   2.715   9.089  0.5079 -1.4605 -1.1609
   49CHL1   C24 6094   6.019   2.875   8.964 -0.1122  0.2131 -0.8486
   49CHL1  H24A 6095   5.928   2.939   8.975  0.2251  0.7548 -1.1730
   49CHL1  H24B 6096   6.106   2.942   8.948  1.3038 -1.4605 -0.4358
   49CHL1   C25 6097   6.002   2.782   8.844 -0.0641 -0.2685 -0.0309
   49CHL1   H25 6098   5.938   2.696   8.873 -0.0502 -0.0927  0.5515
   49CHL1   C26 6099   5.936   2.857   8.726  0.6816 -0.3570  0.2226
   49CHL1  H26A 6100   5.826   2.839   8.723  0.6601 -0.7908  2.0680
   49CHL1  H26B 6101   5.949   2.968   8.726  0.8077 -0.3678 -0.4526
   49CHL1  H26C 6102   5.986   2.826   8.632  0.4265 -0.8384  0.2415
   49CHL1   C27 6103   6.139   2.728   8.800  0.2730 -0.7224  0.2913
   49CHL1  H27A 6104   6.114   2.648   8.728 -1.4964 -1.2412  1.4102
   49CHL1  H27B 6105   6.206   2.806   8.760 -1.7782  2.4583  2.5473
   49CHL1  H27C 6106   6.195   2.683   8.885 -1.9190 -3.9618  0.1901
   50CHL1    C3 6107   3.358   6.294  10.337 -0.1361 -0.1299 -0.1047
   50CHL1    H3 6108   3.299   6.207  10.373 -0.5763 -0.6985 -2.0881
   50CHL1    O3 6109   3.404   6.345  10.458 -0.2658 -0.0443 -0.4865
   50CHL1   H3' 6110   3.416   6.440  10.451  0.1510 -0.1857 -2.3602
   50CHL1    C4 6111   3.474   6.257  10.250  0.0962 -0.1412  0.6414
   50CHL1   H4A 6112   3.536   6.346  10.227  0.2081  0.0635  1.6806
   50CHL1   H4B 6113   3.532   6.177  10.301 -0.0242 -0.7725 -0.2028
   50CHL1    C5 6114   3.422   6.204  10.118 -0.3907  0.7310  0.4584
   50CHL1    C6 6115   3.479   6.095  10.070  0.0071 -0.0962 -0.1363
   50CHL1    H6 6116   3.565   6.048  10.119  0.1523 -2.3595 -2.3506
   50CHL1    C7 6117   3.441   6.043   9.938  0.3901 -0.2796 -0.4275
   50CHL1   H7A 6118   3.533   6.023   9.881  1.3157  2.8743 -0.2119
   50CHL1   H7B 6119   3.386   5.946   9.934 -2.0170  1.0226 -0.6487
   50CHL1    C8 6120   3.354   6.142   9.853  0.1104 -0.4628 -0.0810
   50CHL1    H8 6121   3.419   6.226   9.821  0.1723 -0.3573  0.3243
   50CHL1   C14 6122   3.307   6.084   9.719  0.5979 -0.3655 -0.4308
   50CHL1   H14 6123   3.237   6.004   9.747 -0.9302  1.4676  1.2917
   50CHL1   C15 6124   3.420   6.033   9.637 -0.1946  0.4643  0.1386
   50CHL1  H15A 6125   3.506   6.103   9.631 -0.4256  0.7456  0.1010
   50CHL1  H15B 6126   3.470   5.940   9.673  0.3286  0.5461 -0.3697
   50CHL1   C16 6127   3.341   6.011   9.504 -0.7017 -0.4889 -0.4973
   50CHL1  H16A 6128   3.400   6.047   9.417  2.3003  0.7555  1.8656
   50CHL1  H16B 6129   3.322   5.903   9.490  3.3515 -1.3261 -0.7929
   50CHL1   C17 6130   3.211   6.081   9.501  0.3832 -0.7004  0.0933
   50CHL1   H17 6131   3.134   6.012   9.541  1.4846 -1.8145  0.3322
   50CHL1   C13 6132   3.219   6.170   9.628  0.7867 -0.1534 -0.0984
   50CHL1   C18 6133   3.295   6.309   9.595  0.0892  0.6150 -1.0722
   50CHL1  H18A 6134   3.223   6.391   9.571  0.4660  0.8830 -1.2996
   50CHL1  H18B 6135   3.342   6.358   9.683 -0.6014  1.0409 -0.9316
   50CHL1  H18C 6136   3.370   6.306   9.513  0.6786  0.9092 -0.5500
   50CHL1   C12 6137   3.096   6.204   9.717 -0.0110  0.0361  0.7292
   50CHL1  H12A 6138   3.030   6.274   9.661  0.8443  0.1898 -0.1065
   50CHL1  H12B 6139   3.028   6.118   9.737 -1.6031  1.2979  0.9756
   50CHL1   C11 6140   3.133   6.274   9.854  0.2619 -0.9543  0.3801
   50CHL1  H11A 6141   3.165   6.377   9.826 -1.0902 -0.4081  0.7515
   50CHL1  H11B 6142   3.039   6.292   9.909 -0.9160  1.0547 -2.0460
   50CHL1    C9 6143   3.244   6.201   9.939  0.4447 -0.5018  0.6685
   50CHL1    H9 6144   3.204   6.110   9.988 -1.0140  0.2262  0.8832
   50CHL1   C10 6145   3.308   6.285  10.059  0.1419 -0.0100  0.6532
   50CHL1   C19 6146   3.362   6.414  10.001  0.5755 -0.3477  0.5014
   50CHL1  H19A 6147   3.282   6.480   9.961  2.7755  1.9178 -0.4172
   50CHL1  H19B 6148   3.408   6.478  10.079 -1.8909  0.2029  1.5856
   50CHL1  H19C 6149   3.446   6.392   9.932  1.5616 -1.0325  1.8685
   50CHL1    C1 6150   3.197   6.312  10.159 -0.5682 -0.7305 -0.3323
   50CHL1   H1A 6151   3.125   6.381  10.109 -1.6725  0.8478  3.1727
   50CHL1   H1B 6152   3.148   6.218  10.191 -0.1598  0.4122  4.3131
   50CHL1    C2 6153   3.247   6.382  10.279  0.0536  0.4713 -0.0911
   50CHL1   H2A 6154   3.160   6.389  10.348 -0.0118  0.5170 -0.1786
   50CHL1   H2B 6155   3.274   6.488  10.259 -1.2941  0.8857  0.1482
   50CHL1   C20 6156   3.171   6.146   9.365  0.0587 -0.1220 -0.2296
   50CHL1   H20 6157   3.258   6.211   9.340 -1.3462  2.2572  0.6911
   50CHL1   C21 6158   3.037   6.228   9.371 -0.0500 -0.8592  0.0983
   50CHL1  H21A 6159   3.047   6.309   9.447 -0.6038  0.1066 -0.8309
   50CHL1  H21B 6160   2.942   6.173   9.388 -1.1412  1.0811  0.5597
   50CHL1  H21C 6161   3.034   6.287   9.277  0.4481 -0.0989  0.5534
   50CHL1   C22 6162   3.174   6.046   9.248  0.6004 -0.9857  0.3517
   50CHL1  H22A 6163   3.269   5.989   9.245 -0.0828 -2.1282 -0.5049
   50CHL1  H22B 6164   3.099   5.967   9.270  1.8394 -2.0863  0.7958
   50CHL1   C23 6165   3.141   6.099   9.100 -0.0241 -0.0924 -0.2801
   50CHL1  H23A 6166   3.036   6.133   9.086 -0.7920 -1.6686  1.3183
   50CHL1  H23B 6167   3.202   6.187   9.069  0.8001  0.0499  1.6113
   50CHL1   C24 6168   3.168   5.991   8.991  0.5790  0.5919  0.5598
   50CHL1  H24A 6169   3.098   5.907   9.011  1.0060 -0.6713 -2.5870
   50CHL1  H24B 6170   3.138   6.019   8.887  2.5231 -0.2219 -0.2686
   50CHL1   C25 6171   3.311   5.937   8.967 -0.4571 -0.4381  0.1229
   50CHL1   H25 6172   3.337   5.883   9.061 -0.4301  0.3814  0.5926
   50CHL1   C26 6173   3.313   5.845   8.842  0.7789 -0.0201  0.7879
   50CHL1  H26A 6174   3.404   5.783   8.829 -0.9905 -2.5393 -0.4128
   50CHL1  H26B 6175   3.218   5.787   8.843 -0.0608  1.1033 -2.3055
   50CHL1  H26C 6176   3.311   5.903   8.747 -0.5620 -2.0478 -0.4870
   50CHL1   C27 6177   3.419   6.055   8.949  0.1508 -0.0898 -0.5007
   50CHL1  H27A 6178   3.416   6.131   9.030 -0.1087  0.9774 -1.4702
   50CHL1  H27B 6179   3.517   6.004   8.957  0.1595  0.2231  2.0317
   50CHL1  H27C 6180   3.412   6.114   8.855  1.9234  1.3684  0.2138
   51CHL1    C3 6181   4.146   1.274  10.381 -1.1461 -0.4881 -0.0608
   51CHL1    H3 6182   4.233   1.338  10.357 -2.2418  2.1621  2.3682
   51CHL1    O3 6183   4.094   1.313  10.507 -0.0695 -0.4524 -0.0639
   51CHL1   H3' 6184   4.156   1.286  10.575  0.6964 -0.5368 -0.7769
   51CHL1    C4 6185   4.039   1.287  10.276  0.2703  0.0177 -0.0880
   51CHL1   H4A 6186   3.940   1.247  10.306  0.6535 -1.4462 -0.7311
   51CHL1   H4B 6187   4.015   1.395  10.263  1.8826  0.3058 -0.9622
   51CHL1    C5 6188   4.064   1.225  10.136  0.3016  0.5707 -0.3488
   51CHL1    C6 6189   4.054   1.296  10.021  0.3850 -0.0277  0.3064
   51CHL1    H6 6190   4.035   1.404  10.024  1.7723  0.3018 -1.2781
   51CHL1    C7 6191   4.086   1.247   9.882 -0.5167  0.5640  0.2927
   51CHL1   H7A 6192   4.001   1.258   9.812  0.6176  0.0802 -1.2071
   51CHL1   H7B 6193   4.171   1.305   9.840 -1.2334 -1.6990 -4.9690
   51CHL1    C8 6194   4.106   1.091   9.871 -0.0974  0.2995 -0.3032
   51CHL1    H8 6195   4.002   1.049   9.868  0.2693 -0.9623  2.1419
   51CHL1   C14 6196   4.189   1.059   9.748 -0.3856  0.4827 -0.0214
   51CHL1   H14 6197   4.291   1.101   9.760  1.0405 -2.5376 -0.5981
   51CHL1   C15 6198   4.138   1.111   9.621 -0.2361 -0.8213 -0.3348
   51CHL1  H15A 6199   4.027   1.112   9.627 -0.4085  1.6545 -2.3915
   51CHL1  H15B 6200   4.164   1.216   9.597 -0.9833 -0.3079  1.0032
   51CHL1   C16 6201   4.190   1.020   9.512  0.4847  0.3520 -0.9436
   51CHL1  H16A 6202   4.108   0.971   9.455  1.3457  0.1632 -2.0632
   51CHL1  H16B 6203   4.258   1.077   9.445  0.6717 -0.3330 -1.3521
   51CHL1   C17 6204   4.272   0.906   9.584 -0.1105 -0.5820  0.8960
   51CHL1   H17 6205   4.377   0.941   9.598  0.4722 -1.8694 -0.0154
   51CHL1   C13 6206   4.210   0.908   9.724 -0.0164 -0.0089  0.0790
   51CHL1   C18 6207   4.068   0.842   9.717  0.2638  0.6184  0.0553
   51CHL1  H18A 6208   4.008   0.847   9.810 -0.2010  0.2265 -0.2219
   51CHL1  H18B 6209   3.994   0.880   9.644 -1.2042  0.4034  1.3912
   51CHL1  H18C 6210   4.087   0.734   9.703 -0.3854  0.6294 -0.9882
   51CHL1   C12 6211   4.289   0.850   9.841 -0.2378  0.2803  0.4341
   51CHL1  H12A 6212   4.290   0.739   9.836  0.8865  0.2230  1.4125
   51CHL1  H12B 6213   4.393   0.888   9.829 -0.3704  0.1233 -1.5969
   51CHL1   C11 6214   4.232   0.893   9.979  0.2166 -0.7830  0.1382
   51CHL1  H11A 6215   4.143   0.830  10.000  0.6367 -0.8507  1.8460
   51CHL1  H11B 6216   4.308   0.862  10.052  1.5511 -2.2948 -1.8032
   51CHL1    C9 6217   4.187   1.046   9.995 -0.4410  0.1348 -0.0871
   51CHL1    H9 6218   4.282   1.102   9.987 -0.3459 -0.1417 -1.1020
   51CHL1   C10 6219   4.126   1.083  10.132 -1.0664 -0.8649 -0.1014
   51CHL1   C19 6220   4.004   0.996  10.158 -0.2188 -0.6444 -0.8407
   51CHL1  H19A 6221   4.033   0.889  10.151 -1.5209 -1.0891  0.1869
   51CHL1  H19B 6222   3.964   1.027  10.257  1.5292 -0.2766 -0.2175
   51CHL1  H19C 6223   3.915   1.019  10.096 -1.2645  0.1428  0.8762
   51CHL1    C1 6224   4.230   1.059  10.252  0.5250  0.5658  1.9442
   51CHL1   H1A 6225   4.234   0.949  10.262 -2.2388  0.1275 -0.4441
   51CHL1   H1B 6226   4.333   1.094  10.227 -0.0229  0.3843 -0.8045
   51CHL1    C2 6227   4.186   1.125  10.387 -0.4260  0.2904  0.6526
   51CHL1   H2A 6228   4.272   1.111  10.456  0.9688  0.5044 -0.9862
   51CHL1   H2B 6229   4.108   1.066  10.440 -1.2182 -2.4853 -3.1779
   51CHL1   C20 6230   4.284   0.778   9.491  0.3829 -0.0750  0.2901
   51CHL1   H20 6231   4.184   0.732   9.478  0.3924  0.5680 -3.0226
   51CHL1   C21 6232   4.389   0.694   9.559 -0.1581 -0.2550  0.0698
   51CHL1  H21A 6233   4.363   0.675   9.665  0.0296 -2.2278 -0.1902
   51CHL1  H21B 6234   4.486   0.747   9.555 -0.6013  0.5654 -0.0554
   51CHL1  H21C 6235   4.402   0.592   9.516  0.3809 -0.5421  0.8885
   51CHL1   C22 6236   4.325   0.823   9.349  0.2314 -0.0792  0.6304
   51CHL1  H22A 6237   4.240   0.875   9.301  1.0897  1.5874  0.8591
   51CHL1  H22B 6238   4.416   0.886   9.355 -1.0929  1.7892  2.2033
   51CHL1   C23 6239   4.366   0.702   9.257  0.4668 -0.7900  0.6322
   51CHL1  H23A 6240   4.466   0.676   9.296  0.3866  0.1717  1.5313
   51CHL1  H23B 6241   4.302   0.612   9.268 -1.1283  0.4331  1.8900
   51CHL1   C24 6242   4.364   0.742   9.105 -0.0267 -0.6746 -0.3809
   51CHL1  H24A 6243   4.261   0.766   9.071  1.1827  0.6130 -3.5516
   51CHL1  H24B 6244   4.426   0.833   9.090  1.2331 -0.4636  4.4695
   51CHL1   C25 6245   4.417   0.635   8.999 -0.3575  0.1156  0.0020
   51CHL1   H25 6246   4.362   0.539   9.007  0.0753 -0.4711 -2.8739
   51CHL1   C26 6247   4.378   0.683   8.860  0.4340 -0.3611  0.2506
   51CHL1  H26A 6248   4.267   0.682   8.847  0.2196 -2.4886  1.5980
   51CHL1  H26B 6249   4.410   0.787   8.841 -0.3869 -0.2837 -0.7882
   51CHL1  H26C 6250   4.418   0.617   8.781  0.4099 -0.6667  0.4898
   51CHL1   C27 6251   4.567   0.623   9.015 -0.2508  0.0060  0.0868
   51CHL1  H27A 6252   4.609   0.540   8.954  1.3154  0.6997  0.1800
   51CHL1  H27B 6253   4.629   0.714   9.002  0.3352 -0.6991 -2.5195
   51CHL1  H27C 6254   4.587   0.592   9.120 -1.8520  1.5934  0.9049
   52CHL1    C3 6255   6.522   0.610  10.180 -0.7901  0.0717  0.3277
   52CHL1    H3 6256   6.613   0.549  10.161 -0.7341 -0.7012  2.6492
   52CHL1    O3 6257   6.510   0.617  10.320 -0.1854  0.5681  0.1361
   52CHL1   H3' 6258   6.514   0.527  10.353  1.5398  0.1728 -1.0140
   52CHL1    C4 6259   6.544   0.756  10.117  0.6630  0.8196  0.4783
   52CHL1   H4A 6260   6.476   0.825  10.170  0.5936  1.4418 -0.3905
   52CHL1   H4B 6261   6.649   0.786  10.139  1.8969 -1.5128 -1.6224
   52CHL1    C5 6262   6.526   0.751   9.966  0.3840  0.3293  0.2335
   52CHL1    C6 6263   6.613   0.819   9.897 -0.0473 -0.0515  0.3175
   52CHL1    H6 6264   6.697   0.878   9.939  0.1789 -0.1313 -0.0245
   52CHL1    C7 6265   6.616   0.828   9.754 -0.0443  0.2486  0.1277
   52CHL1   H7A 6266   6.632   0.934   9.728 -0.7163  0.1491 -0.7397
   52CHL1   H7B 6267   6.707   0.781   9.710 -0.7348  0.7379 -1.9427
   52CHL1    C8 6268   6.488   0.769   9.683  0.3243 -0.0734 -0.5974
   52CHL1    H8 6269   6.406   0.843   9.692  0.2130 -0.1298 -1.1283
   52CHL1   C14 6270   6.504   0.746   9.532  0.3478  0.2789 -1.0524
   52CHL1   H14 6271   6.576   0.661   9.528 -0.4888 -0.6749  1.8445
   52CHL1   C15 6272   6.575   0.851   9.452 -0.5774  0.3459  0.2948
   52CHL1  H15A 6273   6.537   0.953   9.477  0.9357  0.9925  0.0251
   52CHL1  H15B 6274   6.684   0.846   9.473 -1.2219 -0.4661  4.3834
   52CHL1   C16 6275   6.534   0.815   9.308  0.4774  0.3936 -0.4788
   52CHL1  H16A 6276   6.474   0.901   9.272  2.2840  1.2147 -1.7133
   52CHL1  H16B 6277   6.627   0.800   9.249  2.1817 -1.0232  2.3556
   52CHL1   C17 6278   6.439   0.689   9.314  0.0405 -0.4770 -0.0158
   52CHL1   H17 6279   6.514   0.609   9.324  0.3261 -0.1978  0.1016
   52CHL1   C13 6280   6.378   0.696   9.462  0.8867 -0.2413  0.2636
   52CHL1   C18 6281   6.267   0.794   9.461  0.8709 -0.3697  0.3908
   52CHL1  H18A 6282   6.174   0.769   9.406 -0.2142  1.7624  1.1277
   52CHL1  H18B 6283   6.239   0.813   9.567 -1.0435  1.3626 -0.3751
   52CHL1  H18C 6284   6.287   0.896   9.423 -2.1656  0.9539  1.9756
   52CHL1   C12 6285   6.337   0.556   9.523  0.0806  0.4075 -0.4390
   52CHL1  H12A 6286   6.251   0.504   9.478  1.0558 -1.7601  0.0898
   52CHL1  H12B 6287   6.420   0.486   9.500 -1.5064 -2.0353  0.9406
   52CHL1   C11 6288   6.319   0.572   9.678  0.0530  0.2394 -0.5990
   52CHL1  H11A 6289   6.229   0.634   9.698 -1.5969 -2.3329  0.3828
   52CHL1  H11B 6290   6.293   0.470   9.711  1.2767  0.0263 -0.2787
   52CHL1    C9 6291   6.441   0.641   9.755 -0.6451 -0.0172  0.4733
   52CHL1    H9 6292   6.525   0.568   9.750  0.2681  1.0860 -1.5252
   52CHL1   C10 6293   6.420   0.663   9.904  0.2164 -0.5312 -0.2235
   52CHL1   C19 6294   6.284   0.734   9.928 -0.1470 -0.3386 -0.1980
   52CHL1  H19A 6295   6.254   0.812   9.854 -1.2626 -0.9338 -0.4092
   52CHL1  H19B 6296   6.207   0.653   9.927 -0.9447  0.3967 -0.1167
   52CHL1  H19C 6297   6.275   0.783  10.027  0.1906 -3.2272  1.3588
   52CHL1    C1 6298   6.412   0.529   9.981  0.0157  0.7678  0.3063
   52CHL1   H1A 6299   6.315   0.491   9.940  0.5663  0.8882 -1.1818
   52CHL1   H1B 6300   6.497   0.464   9.951  0.9010  2.0264  0.0128
   52CHL1    C2 6301   6.400   0.543  10.130  0.4695 -0.1237  1.2743
   52CHL1   H2A 6302   6.395   0.440  10.172 -0.7650  0.3759  2.4133
   52CHL1   H2B 6303   6.304   0.588  10.162 -1.3904 -4.5954  2.7488
   52CHL1   C20 6304   6.352   0.656   9.194  0.2208  0.1149 -0.4646
   52CHL1   H20 6305   6.271   0.588   9.228 -1.4849  1.6096 -1.4012
   52CHL1   C21 6306   6.442   0.569   9.100  0.5199 -0.5019  0.1999
   52CHL1  H21A 6307   6.478   0.481   9.157 -1.0316 -0.6672  1.0012
   52CHL1  H21B 6308   6.529   0.630   9.069  0.1049  1.0091  1.8072
   52CHL1  H21C 6309   6.384   0.527   9.015  0.7573 -0.9137  0.2446
   52CHL1   C22 6310   6.295   0.783   9.125  0.5069  0.2116 -0.1096
   52CHL1  H22A 6311   6.237   0.834   9.205 -0.4937 -0.5728 -0.3231
   52CHL1  H22B 6312   6.371   0.856   9.089 -0.6689 -0.1022 -3.6635
   52CHL1   C23 6313   6.198   0.742   9.014 -0.2967 -0.2037  0.6527
   52CHL1  H23A 6314   6.238   0.673   8.937 -0.3203  0.4276  0.0599
   52CHL1  H23B 6315   6.121   0.673   9.056  0.7014 -1.3027  0.7074
   52CHL1   C24 6316   6.131   0.874   8.960  0.0535 -1.1594 -0.1096
   52CHL1  H24A 6317   6.081   0.919   9.049 -0.4027  0.0099 -0.9241
   52CHL1  H24B 6318   6.200   0.953   8.923  0.7582 -0.9633  1.5277
   52CHL1   C25 6319   6.027   0.851   8.849  0.0733 -0.2494 -0.2938
   52CHL1   H25 6320   6.060   0.765   8.787  0.8395  0.0898 -0.3713
   52CHL1   C26 6321   5.898   0.807   8.911 -0.1627 -0.1683  0.0271
   52CHL1  H26A 6322   5.821   0.794   8.832 -0.7944 -0.1499  0.6321
   52CHL1  H26B 6323   5.910   0.713   8.968 -1.9420 -0.3534  0.1353
   52CHL1  H26C 6324   5.848   0.887   8.970 -0.6018  1.3047 -2.2073
   52CHL1   C27 6325   6.011   0.986   8.779  0.3816 -0.4073  0.2354
   52CHL1  H27A 6326   5.921   0.984   8.713 -0.0010  0.4176  0.7208
   52CHL1  H27B 6327   5.998   1.075   8.845 -2.0155  0.9814 -1.9209
   52CHL1  H27C 6328   6.096   1.018   8.714 -0.0302 -0.6043 -0.4130
   53CHL1    C3 6329   1.854   0.777   9.981  0.1997 -0.0829 -0.7523
   53CHL1    H3 6330   1.929   0.858   9.987 -1.4664  1.3969  2.4455
   53CHL1    O3 6331   1.806   0.760  10.115 -0.4660 -0.0426 -0.2584
   53CHL1   H3' 6332   1.720   0.722  10.094 -0.4997 -0.4541  0.5983
   53CHL1    C4 6333   1.733   0.803   9.894  0.1875  0.3066  0.3119
   53CHL1   H4A 6334   1.668   0.714   9.906 -0.3081  0.3850 -1.4816
   53CHL1   H4B 6335   1.691   0.900   9.928  1.0405  1.4683 -1.7313
   53CHL1    C5 6336   1.768   0.829   9.747 -0.0027  0.4529 -0.2918
   53CHL1    C6 6337   1.751   0.944   9.691  0.3566  0.3991 -0.1176
   53CHL1    H6 6338   1.718   1.032   9.749 -0.3306  1.1991 -1.6626
   53CHL1    C7 6339   1.763   0.960   9.542 -0.2423  0.1780 -0.1272
   53CHL1   H7A 6340   1.680   1.019   9.496  1.3983  3.8170  1.2553
   53CHL1   H7B 6341   1.849   1.028   9.527 -2.2344  2.4350 -2.5045
   53CHL1    C8 6342   1.790   0.829   9.468 -0.4582  0.3056  0.1430
   53CHL1    H8 6343   1.691   0.777   9.466 -0.6553  0.6622 -2.1372
   53CHL1   C14 6344   1.827   0.850   9.323  0.2461  0.1423 -0.2802
   53CHL1   H14 6345   1.916   0.915   9.337  0.1919  0.6630 -2.0976
   53CHL1   C15 6346   1.734   0.922   9.234 -0.1356 -0.9737  0.1274
   53CHL1  H15A 6347   1.630   0.885   9.240  0.7836 -3.6349  1.2421
   53CHL1  H15B 6348   1.731   1.033   9.241  1.1106 -1.0011  1.7585
   53CHL1   C16 6349   1.789   0.888   9.091  0.1011  0.0399 -0.6386
   53CHL1  H16A 6350   1.709   0.843   9.028  1.7978 -0.8966 -2.2396
   53CHL1  H16B 6351   1.831   0.983   9.052 -0.7986  0.9529  0.5650
   53CHL1   C17 6352   1.905   0.785   9.109 -0.6723  1.0009 -0.0775
   53CHL1   H17 6353   1.995   0.847   9.129 -0.2222  0.4082 -0.2021
   53CHL1   C13 6354   1.873   0.719   9.246  0.2883 -0.6726 -0.5390
   53CHL1   C18 6355   1.755   0.625   9.215 -0.1867 -0.5193 -0.1279
   53CHL1  H18A 6356   1.787   0.534   9.160  2.2958  1.2729 -1.8974
   53CHL1  H18B 6357   1.713   0.596   9.314  1.2960  0.8385  0.9515
   53CHL1  H18C 6358   1.674   0.679   9.161  1.4980  0.6076 -1.6271
   53CHL1   C12 6359   1.991   0.661   9.322  0.1045  0.5029  0.0396
   53CHL1  H12A 6360   2.030   0.571   9.270 -2.4013 -1.2096  0.9576
   53CHL1  H12B 6361   2.062   0.745   9.335  1.3511 -0.3023 -1.2734
   53CHL1   C11 6362   1.946   0.628   9.460 -0.3478  0.7277  0.2101
   53CHL1  H11A 6363   1.876   0.543   9.444  0.2622  0.3045 -0.2144
   53CHL1  H11B 6364   2.036   0.588   9.511  1.0198  1.7045 -1.3420
   53CHL1    C9 6365   1.887   0.741   9.543 -0.7004 -0.0927 -0.3399
   53CHL1    H9 6366   1.977   0.802   9.568 -0.2910 -1.6900  2.5172
   53CHL1   C10 6367   1.834   0.703   9.679  0.9333 -0.0832 -0.8406
   53CHL1   C19 6368   1.728   0.592   9.666  0.1884 -0.2196 -0.5971
   53CHL1  H19A 6369   1.635   0.627   9.617 -0.6490 -1.0444  0.3450
   53CHL1  H19B 6370   1.751   0.504   9.602 -0.8858  0.6259 -2.2128
   53CHL1  H19C 6371   1.708   0.542   9.764  0.5200  1.2597  0.2537
   53CHL1    C1 6372   1.946   0.654   9.774 -0.1691  0.1439 -0.8324
   53CHL1   H1A 6373   1.971   0.548   9.751 -2.2436 -0.6502  0.2768
   53CHL1   H1B 6374   2.039   0.705   9.741 -0.4516  0.0062 -1.8889
   53CHL1    C2 6375   1.917   0.650   9.930 -0.2305  0.2298 -0.3844
   53CHL1   H2A 6376   2.013   0.634   9.983 -0.1202 -1.8012 -1.1309
   53CHL1   H2B 6377   1.849   0.564   9.949  0.7234  0.0353  2.6128
   53CHL1   C20 6378   1.934   0.706   8.978  0.4112  0.2197 -0.0559
   53CHL1   H20 6379   1.839   0.655   8.953 -0.3641  2.2522 -1.5619
   53CHL1   C21 6380   2.048   0.601   8.990  0.0332  0.0301 -0.3335
   53CHL1  H21A 6381   2.129   0.658   9.040 -0.3026  1.1989 -1.0821
   53CHL1  H21B 6382   2.076   0.557   8.892  0.7365 -0.1174 -0.0693
   53CHL1  H21C 6383   2.037   0.514   9.059  0.3141 -1.3332 -1.9474
   53CHL1   C22 6384   1.962   0.793   8.857 -0.1290 -0.2067  0.3141
   53CHL1  H22A 6385   1.894   0.879   8.878 -0.3689 -0.6268  1.3503
   53CHL1  H22B 6386   2.065   0.831   8.872 -0.2548 -0.3049  1.5530
   53CHL1   C23 6387   1.931   0.747   8.716 -0.1744 -0.7034 -0.8180
   53CHL1  H23A 6388   2.010   0.674   8.687  0.5107 -0.6954  0.8966
   53CHL1  H23B 6389   1.834   0.693   8.726 -1.3878  1.3241 -1.0318
   53CHL1   C24 6390   1.911   0.866   8.626  0.1551  0.1998 -0.1984
   53CHL1  H24A 6391   1.821   0.922   8.659  1.6659  1.5440  1.8827
   53CHL1  H24B 6392   2.001   0.931   8.626  0.2168  0.1125  0.2606
   53CHL1   C25 6393   1.876   0.824   8.475 -0.4266  0.2925 -0.6629
   53CHL1   H25 6394   1.974   0.784   8.443 -0.9598 -0.1585 -1.7781
   53CHL1   C26 6395   1.772   0.718   8.467  1.0352  0.3099  0.1915
   53CHL1  H26A 6396   1.792   0.626   8.527 -0.8550 -0.9660 -1.0233
   53CHL1  H26B 6397   1.676   0.755   8.510  0.2077 -1.3927 -0.0898
   53CHL1  H26C 6398   1.742   0.695   8.363 -2.0615  2.0082  0.5790
   53CHL1   C27 6399   1.843   0.949   8.384 -0.5135  0.1301  0.7752
   53CHL1  H27A 6400   1.929   1.017   8.396 -0.3402 -0.0132  0.3548
   53CHL1  H27B 6401   1.840   0.914   8.278  1.7887  1.5114  0.2033
   53CHL1  H27C 6402   1.754   1.005   8.422 -0.9878 -1.4069  2.0466
   54CHL1    C3 6403   1.600   1.734  10.188  0.2038  0.5359  0.1736
   54CHL1    H3 6404   1.495   1.767  10.170  0.0666 -0.4575 -0.9831
   54CHL1    O3 6405   1.604   1.649  10.304  0.2797 -0.5561  0.4437
   54CHL1   H3' 6406   1.540   1.672  10.371 -0.4728 -0.7464 -0.2003
   54CHL1    C4 6407   1.638   1.643  10.069  0.2850  0.0149 -0.5219
   54CHL1   H4A 6408   1.725   1.576  10.088  0.7846  0.9449  0.5903
   54CHL1   H4B 6409   1.553   1.572  10.069  0.5643 -0.3512  0.9944
   54CHL1    C5 6410   1.654   1.724   9.943  0.4861 -0.1921  0.0833
   54CHL1    C6 6411   1.583   1.704   9.839 -0.1270 -0.8130  0.2350
   54CHL1    H6 6412   1.524   1.611   9.843  1.1433 -1.5953  1.9798
   54CHL1    C7 6413   1.596   1.782   9.710  0.3754  0.3430 -0.3853
   54CHL1   H7A 6414   1.589   1.704   9.632 -0.0425 -0.9266  0.8722
   54CHL1   H7B 6415   1.510   1.845   9.678 -0.6329 -0.6415  0.3381
   54CHL1    C8 6416   1.732   1.860   9.700 -0.3565 -0.8011  0.4072
   54CHL1    H8 6417   1.817   1.789   9.690  0.2903  0.1794 -1.5638
   54CHL1   C14 6418   1.734   1.960   9.584 -0.5766 -0.2895 -0.5982
   54CHL1   H14 6419   1.645   2.026   9.596 -2.8374 -3.0600 -0.9018
   54CHL1   C15 6420   1.720   1.908   9.439 -0.5759  0.8681 -0.9030
   54CHL1  H15A 6421   1.775   1.811   9.437 -0.0559  1.0338  1.7364
   54CHL1  H15B 6422   1.616   1.886   9.405 -1.3618  1.7400  0.8288
   54CHL1   C16 6423   1.792   2.012   9.352  0.1916 -0.3834  0.7743
   54CHL1  H16A 6424   1.884   1.971   9.306 -0.0235  0.6529 -0.6379
   54CHL1  H16B 6425   1.725   2.065   9.281  0.2148  1.4765  2.0546
   54CHL1   C17 6426   1.828   2.129   9.445 -1.2604 -0.4017  0.0610
   54CHL1   H17 6427   1.738   2.191   9.466 -1.5462 -1.1149  1.0320
   54CHL1   C13 6428   1.862   2.050   9.578  0.3755  0.3082  0.7369
   54CHL1   C18 6429   1.998   1.970   9.562  0.6238  0.7113 -1.3464
   54CHL1  H18A 6430   2.089   2.031   9.578  1.9046 -1.3739 -0.3295
   54CHL1  H18B 6431   1.999   1.883   9.631  1.4055  1.2975 -0.6029
   54CHL1  H18C 6432   2.006   1.920   9.463 -1.3132 -2.0752 -0.2330
   54CHL1   C12 6433   1.875   2.132   9.708 -0.4479 -0.4514  0.5362
   54CHL1  H12A 6434   1.967   2.194   9.702 -1.1237  0.4516 -2.2426
   54CHL1  H12B 6435   1.790   2.201   9.726  0.4159  0.3767  1.4963
   54CHL1   C11 6436   1.877   2.041   9.830  0.4586 -0.0093  0.1259
   54CHL1  H11A 6437   1.979   1.997   9.827 -0.2737 -1.7594 -1.1496
   54CHL1  H11B 6438   1.870   2.109   9.917  1.7882  0.3957 -0.0573
   54CHL1    C9 6439   1.760   1.936   9.834  0.2237  0.2114  0.2207
   54CHL1    H9 6440   1.668   1.999   9.840 -1.0688 -1.5538 -0.1549
   54CHL1   C10 6441   1.764   1.833   9.954  0.7838 -0.4323  0.9299
   54CHL1   C19 6442   1.905   1.769   9.966  0.0098 -0.3551  0.0959
   54CHL1  H19A 6443   1.969   1.843  10.018 -1.4570 -0.2762  1.9040
   54CHL1  H19B 6444   1.920   1.667  10.008  1.6708 -0.2529 -0.1576
   54CHL1  H19C 6445   1.944   1.770   9.862 -0.5362  2.2772 -0.1511
   54CHL1    C1 6446   1.741   1.922  10.079  0.0887  0.2326 -0.1510
   54CHL1   H1A 6447   1.838   1.976  10.092  0.0085  0.5650 -0.8598
   54CHL1   H1B 6448   1.657   1.994  10.066 -0.1902  0.2042  1.2738
   54CHL1    C2 6449   1.707   1.841  10.207 -0.4944  0.1887 -0.0192
   54CHL1   H2A 6450   1.686   1.916  10.286  0.1452  2.3286 -1.7520
   54CHL1   H2B 6451   1.801   1.795  10.244  0.1700  0.2485 -1.5219
   54CHL1   C20 6452   1.932   2.221   9.379 -0.1382  0.0398  0.4777
   54CHL1   H20 6453   2.021   2.157   9.356  0.2935  0.5989  0.5618
   54CHL1   C21 6454   1.981   2.327   9.479 -0.8351 -0.3775  0.0798
   54CHL1  H21A 6455   1.893   2.368   9.533  0.6577  1.1958  1.4423
   54CHL1  H21B 6456   2.039   2.402   9.421 -0.5668 -0.3543  0.3800
   54CHL1  H21C 6457   2.056   2.286   9.550  0.7084  2.9173  0.5411
   54CHL1   C22 6458   1.874   2.277   9.246 -0.1053  0.2654  0.9802
   54CHL1  H22A 6459   1.881   2.199   9.168  2.9887 -0.2810  1.6778
   54CHL1  H22B 6460   1.768   2.310   9.248  0.2628  1.7282 -0.6159
   54CHL1   C23 6461   1.935   2.406   9.190 -0.1895  0.1141  0.4723
   54CHL1  H23A 6462   1.910   2.499   9.245  0.3940  1.1964 -1.0114
   54CHL1  H23B 6463   2.042   2.389   9.213  0.2444  0.2999 -1.2731
   54CHL1   C24 6464   1.920   2.426   9.032 -0.3142 -0.0432 -0.4637
   54CHL1  H24A 6465   1.986   2.514   9.014 -0.4064 -0.1710 -1.4465
   54CHL1  H24B 6466   1.972   2.340   8.986  0.3560 -0.5931  1.2340
   54CHL1   C25 6467   1.774   2.442   8.980  0.2172 -0.4899 -0.2078
   54CHL1   H25 6468   1.702   2.367   9.018 -0.2018 -0.0621 -0.1507
   54CHL1   C26 6469   1.726   2.575   9.029 -0.4476 -0.6910  0.3666
   54CHL1  H26A 6470   1.630   2.600   8.980 -0.0377  1.3810  0.5315
   54CHL1  H26B 6471   1.708   2.579   9.138  0.3576 -0.4274  0.5014
   54CHL1  H26C 6472   1.794   2.660   9.006 -1.1786 -0.7679 -2.5477
   54CHL1   C27 6473   1.783   2.440   8.833  0.6956 -0.1466  0.1600
   54CHL1  H27A 6474   1.804   2.336   8.800 -0.9599 -0.3274 -0.4269
   54CHL1  H27B 6475   1.680   2.459   8.795  0.0790 -1.4905  1.0901
   54CHL1  H27C 6476   1.856   2.516   8.798  0.2563  0.8241  1.2755
   55CHL1    C3 6477   2.867   5.866  10.206  0.3482 -0.3124 -0.3322
   55CHL1    H3 6478   2.800   5.947  10.173 -4.0153 -3.2525  0.5202
   55CHL1    O3 6479   2.887   5.887  10.345 -0.0904 -0.4773  0.6715
   55CHL1   H3' 6480   2.864   5.807  10.392  2.4655 -0.5158  2.0191
   55CHL1    C4 6481   2.795   5.733  10.185 -0.6267 -0.7280  0.1460
   55CHL1   H4A 6482   2.870   5.664  10.227 -0.4885 -0.4697  0.3237
   55CHL1   H4B 6483   2.698   5.741  10.239 -0.9129 -0.6470 -0.3668
   55CHL1    C5 6484   2.776   5.721  10.032  0.4134 -0.5696  0.8237
   55CHL1    C6 6485   2.655   5.710   9.985  0.5943  0.0229  0.2040
   55CHL1    H6 6486   2.564   5.715  10.045  0.1799 -2.4972 -0.1004
   55CHL1    C7 6487   2.622   5.700   9.836 -0.6385 -0.6018 -0.5819
   55CHL1   H7A 6488   2.543   5.622   9.827 -1.3090 -0.0858  0.5590
   55CHL1   H7B 6489   2.583   5.796   9.797 -0.2467 -0.5997 -0.9771
   55CHL1    C8 6490   2.742   5.649   9.760  0.0761  0.8415 -0.2454
   55CHL1    H8 6491   2.759   5.542   9.784 -0.0128  0.7596 -0.5398
   55CHL1   C14 6492   2.713   5.655   9.602 -0.0540 -0.0324 -0.4464
   55CHL1   H14 6493   2.675   5.757   9.580 -2.7826 -0.7583  0.3743
   55CHL1   C15 6494   2.607   5.560   9.548  0.1846 -0.4247 -0.2778
   55CHL1  H15A 6495   2.626   5.458   9.588  0.5501  0.1066  0.9345
   55CHL1  H15B 6496   2.506   5.602   9.565  1.2602  2.5422 -0.6904
   55CHL1   C16 6497   2.635   5.555   9.397  0.3774  0.3433  0.3500
   55CHL1  H16A 6498   2.646   5.449   9.369 -0.6965  0.7184 -1.6278
   55CHL1  H16B 6499   2.558   5.602   9.332  2.1686  0.9166 -1.4710
   55CHL1   C17 6500   2.769   5.637   9.374  0.5568 -0.1867  0.4729
   55CHL1   H17 6501   2.752   5.746   9.365  2.4224  0.0514 -0.7768
   55CHL1   C13 6502   2.838   5.627   9.517 -0.0640 -0.9405 -0.4201
   55CHL1   C18 6503   2.892   5.487   9.543 -0.1298 -0.5303 -0.4397
   55CHL1  H18A 6504   2.926   5.475   9.648  1.4423  1.1185 -0.7017
   55CHL1  H18B 6505   2.820   5.408   9.515 -1.3746  0.1690  0.6735
   55CHL1  H18C 6506   2.976   5.475   9.471  0.3175  0.9178 -0.1927
   55CHL1   C12 6507   2.940   5.733   9.560  0.3224  0.0445 -0.0393
   55CHL1  H12A 6508   3.029   5.722   9.495  0.9810  3.0768  0.1958
   55CHL1  H12B 6509   2.899   5.833   9.535  1.6083  0.2261 -1.5509
   55CHL1   C11 6510   2.979   5.714   9.705 -0.5907  0.6061  0.1789
   55CHL1  H11A 6511   3.045   5.625   9.712  1.8612  2.0422 -2.5466
   55CHL1  H11B 6512   3.052   5.793   9.730  1.1517  0.0836 -2.7843
   55CHL1    C9 6513   2.863   5.732   9.796 -0.7536  0.6251  1.0337
   55CHL1    H9 6514   2.828   5.835   9.777 -2.0867 -0.1016 -0.7578
   55CHL1   C10 6515   2.902   5.720   9.945  0.2749  0.3605  0.8299
   55CHL1   C19 6516   2.989   5.591   9.956 -0.3855  0.1483  0.4726
   55CHL1  H19A 6517   3.090   5.616   9.918 -0.4866  0.5394  0.4592
   55CHL1  H19B 6518   2.997   5.558  10.062 -0.8484 -0.5841  0.2932
   55CHL1  H19C 6519   2.960   5.502   9.895  0.3155  0.2814 -0.0644
   55CHL1    C1 6520   2.990   5.846   9.983 -0.4084 -0.3783 -0.4415
   55CHL1   H1A 6521   3.091   5.834   9.939 -0.1031  2.1813 -0.5869
   55CHL1   H1B 6522   2.937   5.934   9.939 -1.4345 -0.8334 -0.1580
   55CHL1    C2 6523   3.003   5.873  10.139 -0.4745  0.2541  0.0015
   55CHL1   H2A 6524   3.038   5.975  10.167 -0.8473  0.2128  0.6323
   55CHL1   H2B 6525   3.072   5.799  10.185 -1.7746 -0.0417  1.5563
   55CHL1   C20 6526   2.853   5.601   9.250  0.1764 -0.3028  0.9246
   55CHL1   H20 6527   2.913   5.513   9.283  1.0637  0.8471  2.5090
   55CHL1   C21 6528   2.956   5.709   9.214 -0.8037 -0.9905  0.1271
   55CHL1  H21A 6529   3.035   5.677   9.143  0.4678  0.3978  0.8260
   55CHL1  H21B 6530   2.999   5.764   9.301  1.1402 -1.2057 -0.6557
   55CHL1  H21C 6531   2.897   5.791   9.169 -0.0368  0.4135  1.5473
   55CHL1   C22 6532   2.762   5.557   9.133  0.1288  0.1119  0.7616
   55CHL1  H22A 6533   2.677   5.494   9.166 -1.7461 -0.6869 -4.5615
   55CHL1  H22B 6534   2.721   5.655   9.101  1.9468  0.2484 -1.4217
   55CHL1   C23 6535   2.838   5.483   9.020  0.5783 -0.2363 -1.1237
   55CHL1  H23A 6536   2.913   5.549   8.972  0.6586  1.0976  0.7277
   55CHL1  H23B 6537   2.886   5.392   9.062 -1.7559 -0.8869  0.3343
   55CHL1   C24 6538   2.744   5.414   8.913 -0.4244  0.4643 -0.1882
   55CHL1  H24A 6539   2.673   5.343   8.960 -2.3706  1.7070 -1.1268
   55CHL1  H24B 6540   2.685   5.502   8.879 -2.5326 -0.5227  0.7498
   55CHL1   C25 6541   2.817   5.341   8.793 -0.0684  0.0939  0.9646
   55CHL1   H25 6542   2.742   5.308   8.717  0.3640 -0.6909  0.8739
   55CHL1   C26 6543   2.918   5.436   8.727 -0.2166  0.1889  0.1569
   55CHL1  H26A 6544   3.003   5.467   8.791  0.7853  0.6907 -1.3554
   55CHL1  H26B 6545   2.947   5.383   8.633 -0.8659  2.8073 -1.6269
   55CHL1  H26C 6546   2.866   5.527   8.691 -0.6190 -0.7353 -1.7462
   55CHL1   C27 6547   2.877   5.207   8.838 -0.2090 -0.0170  0.4979
   55CHL1  H27A 6548   2.929   5.165   8.749 -2.2120  0.0368 -0.7438
   55CHL1  H27B 6549   2.952   5.218   8.920 -0.6474  0.9703  0.7783
   55CHL1  H27C 6550   2.788   5.146   8.864  0.8742 -2.0390 -0.2800
   56CHL1    C3 6551   5.961   2.239  10.282 -0.2773 -0.3231  0.2681
   56CHL1    H3 6552   5.886   2.319  10.262 -0.8150 -0.9495 -0.2962
   56CHL1    O3 6553   5.990   2.242  10.419  0.6227  0.0615  0.2278
   56CHL1   H3' 6554   6.044   2.163  10.430 -0.6366 -0.9260 -0.4601
   56CHL1    C4 6555   5.899   2.102  10.249  0.0692 -0.4190 -0.5088
   56CHL1   H4A 6556   5.979   2.029  10.274 -1.2284 -1.1642  1.7094
   56CHL1   H4B 6557   5.822   2.080  10.326  2.4092  0.7803  2.3938
   56CHL1    C5 6558   5.867   2.093  10.103  0.8188  1.0214 -0.0538
   56CHL1    C6 6559   5.747   2.067  10.056  0.5773  0.1555 -0.0413
   56CHL1    H6 6560   5.663   2.053  10.125  0.1544  2.5685  0.0369
   56CHL1    C7 6561   5.711   2.062   9.907  0.5016  0.4146 -0.0792
   56CHL1   H7A 6562   5.644   1.973   9.897 -0.3614  1.1349 -0.9596
   56CHL1   H7B 6563   5.635   2.142   9.894 -1.8780 -1.9366 -1.8285
   56CHL1    C8 6564   5.821   2.070   9.806  0.2871 -0.3588 -0.5801
   56CHL1    H8 6565   5.853   1.963   9.809 -2.3541 -1.2019  2.0627
   56CHL1   C14 6566   5.771   2.114   9.676 -0.8195 -0.1809 -0.3296
   56CHL1   H14 6567   5.723   2.214   9.677  0.9831  0.7258 -0.9960
   56CHL1   C15 6568   5.669   2.026   9.599 -0.0403  0.8703  0.0509
   56CHL1  H15A 6569   5.687   1.917   9.611  1.4194  1.0631 -0.2771
   56CHL1  H15B 6570   5.569   2.048   9.644  0.1838  2.1431 -0.0199
   56CHL1   C16 6571   5.684   2.074   9.456  0.4151 -0.2489 -0.1047
   56CHL1  H16A 6572   5.692   1.992   9.382  0.0627  0.2649 -0.7235
   56CHL1  H16B 6573   5.593   2.130   9.424 -0.5480 -1.2152  0.8359
   56CHL1   C17 6574   5.809   2.159   9.443  0.7112  0.0419  0.0595
   56CHL1   H17 6575   5.780   2.265   9.457 -2.5292 -0.8225  0.8339
   56CHL1   C13 6576   5.887   2.123   9.569  0.5771 -0.1372  0.4083
   56CHL1   C18 6577   5.949   1.981   9.535  0.3260  0.0389 -0.1930
   56CHL1  H18A 6578   6.050   2.000   9.495  0.1533  0.2817 -0.5170
   56CHL1  H18B 6579   5.965   1.922   9.627  0.8755  0.7450  0.1716
   56CHL1  H18C 6580   5.885   1.924   9.464 -1.8750 -0.2577  1.8724
   56CHL1   C12 6581   5.980   2.231   9.621  0.0420  0.3219  0.3062
   56CHL1  H12A 6582   6.066   2.234   9.552  1.7687  0.2873  2.3467
   56CHL1  H12B 6583   5.927   2.329   9.629  0.2575  0.4693 -0.0819
   56CHL1   C11 6584   6.041   2.182   9.754  0.0105 -0.0194 -0.9242
   56CHL1  H11A 6585   6.083   2.080   9.743  1.5969  0.5740 -0.6344
   56CHL1  H11B 6586   6.119   2.251   9.792 -1.3635  0.6962  0.7196
   56CHL1    C9 6587   5.933   2.161   9.863  0.7714 -0.1583 -0.1302
   56CHL1    H9 6588   5.893   2.264   9.872  2.8408  0.5684  1.4393
   56CHL1   C10 6589   5.984   2.131  10.002  0.1792 -0.1168 -0.3658
   56CHL1   C19 6590   6.088   2.017   9.998  0.3937  0.2234 -0.8477
   56CHL1  H19A 6591   6.178   2.040   9.937 -0.2028  0.3614 -1.6941
   56CHL1  H19B 6592   6.114   1.980  10.100  0.9006  1.5230 -0.4777
   56CHL1  H19C 6593   6.039   1.928   9.954  1.2675 -1.5362  1.5285
   56CHL1    C1 6594   6.064   2.259  10.049 -0.4043 -0.0295  0.1730
   56CHL1   H1A 6595   6.161   2.251   9.996 -0.9783 -1.8763 -0.6921
   56CHL1   H1B 6596   6.013   2.351  10.012 -1.0047 -0.2939  0.3359
   56CHL1    C2 6597   6.093   2.259  10.197  0.4798 -0.6589  0.0368
   56CHL1   H2A 6598   6.121   2.362  10.228  2.2942 -0.7747 -1.0303
   56CHL1   H2B 6599   6.177   2.190  10.222  0.2902 -1.8243 -2.2363
   56CHL1   C20 6600   5.865   2.152   9.309  0.0781  0.1514 -0.1367
   56CHL1   H20 6601   5.901   2.049   9.287  0.9711  0.9338 -2.7081
   56CHL1   C21 6602   5.990   2.250   9.289 -0.0351 -0.8473 -0.7308
   56CHL1  H21A 6603   6.013   2.269   9.182 -1.0797  1.0087 -0.6570
   56CHL1  H21B 6604   6.076   2.211   9.347 -0.5158  0.8582  1.2407
   56CHL1  H21C 6605   5.958   2.350   9.324  0.2300 -1.5075  1.5351
   56CHL1   C22 6606   5.768   2.178   9.201  0.1217  0.0808 -0.2443
   56CHL1  H22A 6607   5.833   2.171   9.111  0.3348 -0.8917 -0.0228
   56CHL1  H22B 6608   5.688   2.102   9.194  0.5505 -0.4467  0.5012
   56CHL1   C23 6609   5.698   2.318   9.198  0.4590 -0.6315 -0.3259
   56CHL1  H23A 6610   5.594   2.316   9.235  0.3638 -0.0420 -0.5508
   56CHL1  H23B 6611   5.754   2.395   9.256  1.4602 -0.9260 -0.8669
   56CHL1   C24 6612   5.694   2.374   9.056 -0.0001  0.4800 -0.4272
   56CHL1  H24A 6613   5.703   2.483   9.071 -2.1848  0.5884  0.4868
   56CHL1  H24B 6614   5.781   2.331   9.001 -0.2837 -1.1038  0.3033
   56CHL1   C25 6615   5.567   2.345   8.975  0.1000  0.6574 -0.1608
   56CHL1   H25 6616   5.481   2.376   9.039 -1.4461  0.6790 -2.1410
   56CHL1   C26 6617   5.556   2.442   8.848 -0.4976 -0.4359 -0.7612
   56CHL1  H26A 6618   5.477   2.419   8.774  0.1521  0.5875 -1.8019
   56CHL1  H26B 6619   5.549   2.548   8.878  1.9696  0.0065 -1.5414
   56CHL1  H26C 6620   5.654   2.434   8.796 -1.1052  0.1129 -2.0322
   56CHL1   C27 6621   5.550   2.200   8.938  0.1983  0.4625 -0.7217
   56CHL1  H27A 6622   5.454   2.179   8.887 -0.2465  1.1060 -0.1677
   56CHL1  H27B 6623   5.638   2.151   8.889 -0.2793 -2.1383  0.8141
   56CHL1  H27C 6624   5.543   2.142   9.033  0.8621 -1.6421 -1.8893
   57CHL1    C3 6625   2.188   6.164  10.491  0.2447  0.1195  0.2007
   57CHL1    H3 6626   2.258   6.079  10.508 -1.2851 -1.1014  0.6275
   57CHL1    O3 6627   2.178   6.232  10.614  0.5387  0.1481 -0.3631
   57CHL1   H3' 6628   2.112   6.299  10.597  2.0850  1.9446  0.2372
   57CHL1    C4 6629   2.245   6.261  10.385  0.4171  0.7266 -0.3354
   57CHL1   H4A 6630   2.172   6.345  10.391 -1.5800 -0.9912  0.9081
   57CHL1   H4B 6631   2.341   6.297  10.427  1.7645  0.8956 -3.2850
   57CHL1    C5 6632   2.250   6.199  10.247  0.0316  0.5592  0.1344
   57CHL1    C6 6633   2.368   6.175  10.186 -0.4139 -0.8244 -0.3581
   57CHL1    H6 6634   2.464   6.199  10.235 -1.0702 -0.9547  1.0228
   57CHL1    C7 6635   2.376   6.119  10.048 -0.6809 -0.5135 -0.8884
   57CHL1   H7A 6636   2.436   6.180   9.977  0.3768 -0.9783 -0.4019
   57CHL1   H7B 6637   2.432   6.023  10.056  0.3391  0.1752  0.6242
   57CHL1    C8 6638   2.242   6.104   9.975 -0.2319 -0.0791  0.1292
   57CHL1    H8 6639   2.213   6.203   9.934  1.2030  0.2285 -0.2130
   57CHL1   C14 6640   2.249   6.004   9.865  0.4785  0.1993  0.1361
   57CHL1   H14 6641   2.259   5.904   9.914 -0.3762  0.2315  0.3810
   57CHL1   C15 6642   2.367   6.021   9.770  0.2157  0.4565 -0.3282
   57CHL1  H15A 6643   2.389   6.129   9.752  2.8780  1.1105  4.8506
   57CHL1  H15B 6644   2.464   5.984   9.808  0.0886  0.9622  0.5174
   57CHL1   C16 6645   2.325   5.936   9.651 -0.1753  0.7842 -0.2531
   57CHL1  H16A 6646   2.343   5.980   9.550  3.3820  1.9985  0.7630
   57CHL1  H16B 6647   2.391   5.847   9.642 -0.6813  0.3505  0.2574
   57CHL1   C17 6648   2.179   5.888   9.674  0.4133 -0.6396 -0.1007
   57CHL1   H17 6649   2.183   5.794   9.733 -1.8314 -1.5795 -1.3386
   57CHL1   C13 6650   2.123   5.991   9.777  0.2081 -0.3215  0.3458
   57CHL1   C18 6651   2.094   6.124   9.707 -0.5351 -1.0122  0.3754
   57CHL1  H18A 6652   2.186   6.165   9.660 -1.9748  0.1852 -1.5059
   57CHL1  H18B 6653   2.016   6.127   9.628  0.6409  0.4379 -0.7823
   57CHL1  H18C 6654   2.058   6.193   9.785 -0.9994 -0.8617  0.0305
   57CHL1   C12 6655   2.011   5.949   9.876  0.4320  0.2077  1.0259
   57CHL1  H12A 6656   1.909   5.934   9.833  0.5435 -0.6911  1.0637
   57CHL1  H12B 6657   2.033   5.847   9.914 -1.4383  0.1745  2.1291
   57CHL1   C11 6658   1.989   6.044   9.991  0.5406  0.2072  0.6808
   57CHL1  H11A 6659   1.959   6.141   9.946  2.8433  0.7753  0.2519
   57CHL1  H11B 6660   1.910   6.006  10.058 -1.9499 -0.9509 -2.6276
   57CHL1    C9 6661   2.125   6.059  10.067  0.0116 -0.1435 -1.4989
   57CHL1    H9 6662   2.157   5.956  10.094 -0.2009  0.3610  0.8734
   57CHL1   C10 6663   2.114   6.143  10.195  0.2520  0.1364  0.0574
   57CHL1   C19 6664   2.030   6.270  10.174 -0.2453  0.0440  0.6789
   57CHL1  H19A 6665   2.091   6.340  10.114  0.0620 -0.7108  0.0906
   57CHL1  H19B 6666   1.929   6.259  10.129  0.1063 -1.4761  0.1935
   57CHL1  H19C 6667   2.020   6.328  10.268  0.7823  3.0911 -0.9779
   57CHL1    C1 6668   2.043   6.059  10.302  0.3933  0.9027 -0.2188
   57CHL1   H1A 6669   1.938   6.047  10.268  0.1719  0.8999  0.4627
   57CHL1   H1B 6670   2.087   5.956  10.303  0.9732  1.1472 -0.0384
   57CHL1    C2 6671   2.047   6.110  10.450  0.0463 -1.0385 -0.2267
   57CHL1   H2A 6672   2.013   6.021  10.506  0.6744 -0.9873  0.2452
   57CHL1   H2B 6673   1.967   6.187  10.457 -0.1313 -1.2738  0.3949
   57CHL1   C20 6674   2.107   5.848   9.548 -0.5096  0.5055  0.5958
   57CHL1   H20 6675   2.108   5.936   9.479 -0.1358  0.0658  0.0292
   57CHL1   C21 6676   1.955   5.825   9.574 -0.0189 -0.0042  0.7793
   57CHL1  H21A 6677   1.907   5.805   9.476 -0.5614 -0.4231  1.1308
   57CHL1  H21B 6678   1.914   5.923   9.607 -0.0480  0.9777 -1.9374
   57CHL1  H21C 6679   1.925   5.741   9.641 -1.2439 -1.3901 -1.3977
   57CHL1   C22 6680   2.178   5.722   9.480  0.2127  0.3990 -0.4595
   57CHL1  H22A 6681   2.288   5.713   9.489  0.0476 -1.0253  0.4289
   57CHL1  H22B 6682   2.137   5.635   9.535  0.9177 -0.3938 -1.1600
   57CHL1   C23 6683   2.157   5.710   9.330  0.1745 -0.0441  0.0743
   57CHL1  H23A 6684   2.060   5.668   9.294  0.7131  1.4307 -3.5775
   57CHL1  H23B 6685   2.151   5.811   9.285  1.5252 -0.5379 -1.3246
   57CHL1   C24 6686   2.279   5.647   9.261 -0.1943  0.4151  0.0165
   57CHL1  H24A 6687   2.364   5.717   9.276 -0.2597 -0.1580  4.1312
   57CHL1  H24B 6688   2.310   5.553   9.310 -0.2426 -0.0012 -0.7413
   57CHL1   C25 6689   2.264   5.608   9.113 -0.2236  0.5344 -0.6926
   57CHL1   H25 6690   2.238   5.703   9.062 -0.4986  0.1208 -1.3462
   57CHL1   C26 6691   2.393   5.561   9.040  0.1870 -0.0177  0.1803
   57CHL1  H26A 6692   2.421   5.461   9.080 -1.0750 -0.9654 -1.2328
   57CHL1  H26B 6693   2.373   5.540   8.933  0.3899 -0.3611  0.2084
   57CHL1  H26C 6694   2.472   5.638   9.050 -0.7954  1.0340 -0.0009
   57CHL1   C27 6695   2.154   5.505   9.098  0.3158 -0.1855  0.0205
   57CHL1  H27A 6696   2.168   5.440   9.187  2.5583  1.3473  0.9046
   57CHL1  H27B 6697   2.056   5.555   9.107  0.2897 -0.1982 -0.1758
   57CHL1  H27C 6698   2.161   5.459   8.997  0.8668 -1.2044  0.5082
   58CHL1    C3 6699   6.104   4.004  10.389 -0.2852  0.2604  0.1169
   58CHL1    H3 6700   6.209   4.026  10.419 -0.3822  1.2296 -0.2123
   58CHL1    O3 6701   6.028   3.970  10.505  0.7516  0.1263 -0.0272
   58CHL1   H3' 6702   6.051   4.030  10.576 -1.0001  2.7851 -1.5195
   58CHL1    C4 6703   6.036   4.124  10.315 -0.1047 -0.4706  0.2550
   58CHL1   H4A 6704   5.930   4.095  10.300  0.2015 -1.9095  0.7628
   58CHL1   H4B 6705   6.040   4.214  10.381  1.3614 -0.1560 -0.2235
   58CHL1    C5 6706   6.085   4.156  10.176  0.8442 -0.6876  0.4991
   58CHL1    C6 6707   6.144   4.273  10.153  0.1262  0.1954  0.1736
   58CHL1    H6 6708   6.151   4.341  10.239 -3.4531  1.2683 -0.2288
   58CHL1    C7 6709   6.194   4.312  10.008  0.6733 -0.4958 -0.7270
   58CHL1   H7A 6710   6.156   4.413   9.984  1.3486  0.0347  0.3849
   58CHL1   H7B 6711   6.304   4.306   9.994  1.2123  0.5258  2.2828
   58CHL1    C8 6712   6.128   4.217   9.898 -0.4299  0.6231 -0.3847
   58CHL1    H8 6713   6.018   4.231   9.894 -0.6458 -0.9574 -0.6494
   58CHL1   C14 6714   6.188   4.256   9.764  0.1269 -0.5076  0.3603
   58CHL1   H14 6715   6.297   4.255   9.786  0.3526 -0.4819 -0.7169
   58CHL1   C15 6716   6.160   4.391   9.700  0.2001  0.7082 -0.0802
   58CHL1  H15A 6717   6.053   4.418   9.710 -0.3214 -0.9711 -0.8709
   58CHL1  H15B 6718   6.222   4.466   9.754  2.1698  1.0578 -2.6093
   58CHL1   C16 6719   6.198   4.376   9.551  0.0046  0.8290 -0.5316
   58CHL1  H16A 6720   6.103   4.412   9.504  0.3625  3.1803  0.3884
   58CHL1  H16B 6721   6.278   4.446   9.520  0.0141  0.0117 -2.4803
   58CHL1   C17 6722   6.228   4.225   9.542 -0.1389  0.1263 -0.1640
   58CHL1   H17 6723   6.328   4.199   9.582  0.0448  1.0730  0.0290
   58CHL1   C13 6724   6.150   4.158   9.658 -0.2072  0.1581  0.0867
   58CHL1   C18 6725   5.999   4.157   9.617 -0.1235 -0.2166 -0.2883
   58CHL1  H18A 6726   5.964   4.063   9.569  2.2812 -1.5020  0.3362
   58CHL1  H18B 6727   5.946   4.165   9.715 -0.1410  0.1233 -0.3215
   58CHL1  H18C 6728   5.964   4.247   9.561  0.5296  0.5922  0.5613
   58CHL1   C12 6729   6.196   4.016   9.700 -0.6792 -0.0222  0.0181
   58CHL1  H12A 6730   6.160   3.952   9.617  2.5749 -1.1803 -0.6654
   58CHL1  H12B 6731   6.307   4.010   9.707 -0.4834  1.4743 -1.2619
   58CHL1   C11 6732   6.124   3.976   9.826 -0.4827 -0.2945  0.4201
   58CHL1  H11A 6733   6.015   3.967   9.807 -0.4362  0.6735 -0.3809
   58CHL1  H11B 6734   6.165   3.882   9.869  0.5427  0.5806  1.4382
   58CHL1    C9 6735   6.150   4.070   9.943  0.1215 -0.8434  0.2794
   58CHL1    H9 6736   6.259   4.072   9.964  0.2769  1.9023 -0.3721
   58CHL1   C10 6737   6.084   4.035  10.086 -0.2986  0.7477 -0.0517
   58CHL1   C19 6738   5.945   3.998  10.050  0.7725  0.6960 -0.2094
   58CHL1  H19A 6739   5.882   3.979  10.138 -0.4886  0.0680 -1.2161
   58CHL1  H19B 6740   5.895   4.077   9.989  0.2820 -1.1566 -2.3172
   58CHL1  H19C 6741   5.943   3.901   9.996  3.6405 -0.7449  1.9814
   58CHL1    C1 6742   6.154   3.914  10.149  0.2481 -0.3349 -0.3664
   58CHL1   H1A 6743   6.139   3.824  10.086 -2.8390  1.3381 -2.2545
   58CHL1   H1B 6744   6.263   3.934  10.159  0.4756 -0.5755 -2.0711
   58CHL1    C2 6745   6.108   3.884  10.293 -0.1809 -1.0561 -0.2849
   58CHL1   H2A 6746   6.156   3.794  10.338 -0.2221 -1.0496 -0.2283
   58CHL1   H2B 6747   5.999   3.866  10.283 -0.6905  0.9672  0.9316
   58CHL1   C20 6748   6.214   4.162   9.399  0.5369  0.6628 -0.6204
   58CHL1   H20 6749   6.162   4.067   9.426  2.0650  0.3972  1.6588
   58CHL1   C21 6750   6.350   4.122   9.351 -0.6557 -0.0249 -0.6690
   58CHL1  H21A 6751   6.414   4.211   9.333  0.8318 -0.9474 -0.1021
   58CHL1  H21B 6752   6.336   4.059   9.261  1.3846 -0.9484 -0.4065
   58CHL1  H21C 6753   6.407   4.061   9.425  1.0026  1.1132 -0.9483
   58CHL1   C22 6754   6.126   4.242   9.300  0.1179 -0.5761  0.7180
   58CHL1  H22A 6755   6.030   4.284   9.338  0.2386  1.6632 -1.2371
   58CHL1  H22B 6756   6.182   4.335   9.277 -1.7422  1.4346  3.5943
   58CHL1   C23 6757   6.080   4.162   9.172 -0.0806  0.2707 -0.4579
   58CHL1  H23A 6758   6.046   4.241   9.101 -0.8360  1.7345  1.4216
   58CHL1  H23B 6759   6.166   4.118   9.117  0.6195 -0.1502  0.9212
   58CHL1   C24 6760   5.971   4.056   9.194 -0.5894 -0.3755 -0.0373
   58CHL1  H24A 6761   6.016   3.981   9.262  2.9484 -0.1349 -1.8562
   58CHL1  H24B 6762   5.877   4.096   9.238  0.2023 -0.9628  2.3670
   58CHL1   C25 6763   5.922   3.976   9.071 -0.3929 -0.8221 -0.1671
   58CHL1   H25 6764   5.901   4.051   8.992  2.0514 -1.6670 -1.7213
   58CHL1   C26 6765   6.034   3.889   9.014 -0.1054  0.2163 -0.4747
   58CHL1  H26A 6766   6.114   3.948   8.964 -0.2889  1.2369  0.3869
   58CHL1  H26B 6767   6.077   3.817   9.087 -1.7366  1.2513  1.6297
   58CHL1  H26C 6768   5.983   3.833   8.933 -1.5482  1.6717 -0.6169
   58CHL1   C27 6769   5.796   3.902   9.111  1.0358  0.7674 -0.3296
   58CHL1  H27A 6770   5.723   3.948   9.180  2.0185 -1.7932  2.6802
   58CHL1  H27B 6771   5.744   3.864   9.021  0.2998 -2.4377  1.3000
   58CHL1  H27C 6772   5.825   3.811   9.168  0.6999  1.6301  1.2622
   59CHL1    C3 6773   5.503   3.349  10.585 -0.2569 -0.1866  0.8855
   59CHL1    H3 6774   5.592   3.410  10.557  0.0573 -0.5224  1.1362
   59CHL1    O3 6775   5.495   3.319  10.720  0.0066  0.3984  0.2375
   59CHL1   H3' 6776   5.564   3.256  10.740 -0.2714  0.1159  0.3048
   59CHL1    C4 6777   5.375   3.416  10.527 -0.1569  0.9986  0.2132
   59CHL1   H4A 6778   5.301   3.339  10.555  0.0622  0.3018 -1.0288
   59CHL1   H4B 6779   5.356   3.515  10.574 -1.2133  0.1890  1.5673
   59CHL1    C5 6780   5.385   3.432  10.374 -0.8827  0.4634  0.6392
   59CHL1    C6 6781   5.366   3.553  10.304  0.0544  0.4953 -0.7412
   59CHL1    H6 6782   5.342   3.643  10.363  0.3385 -0.6448  1.2236
   59CHL1    C7 6783   5.359   3.559  10.152  0.3741 -0.9918 -0.4586
   59CHL1   H7A 6784   5.269   3.617  10.122  1.6184  0.4780 -1.4700
   59CHL1   H7B 6785   5.447   3.617  10.118  0.1372 -0.2250  0.1995
   59CHL1    C8 6786   5.347   3.424  10.078 -0.2321  0.2587  0.2392
   59CHL1    H8 6787   5.249   3.381  10.105  0.3459  0.8340  3.6090
   59CHL1   C14 6788   5.385   3.429   9.930 -0.3313  0.2687 -0.3032
   59CHL1   H14 6789   5.488   3.471   9.933 -0.1285 -0.2674  0.2833
   59CHL1   C15 6790   5.302   3.516   9.835  0.2862  0.2570 -0.4775
   59CHL1  H15A 6791   5.195   3.486   9.844  0.3882 -0.2039 -0.7394
   59CHL1  H15B 6792   5.325   3.624   9.844  0.1264  0.2674 -0.1668
   59CHL1   C16 6793   5.348   3.474   9.695 -0.3903  0.0338 -0.5937
   59CHL1  H16A 6794   5.256   3.442   9.642 -1.1748 -0.0964  0.7868
   59CHL1  H16B 6795   5.398   3.556   9.639  0.8773 -0.5213 -0.3061
   59CHL1   C17 6796   5.436   3.348   9.714  0.0312  0.1293  0.1909
   59CHL1   H17 6797   5.538   3.392   9.724  0.2740 -0.3900  0.0471
   59CHL1   C13 6798   5.403   3.298   9.851 -0.5808 -0.3561 -0.2166
   59CHL1   C18 6799   5.266   3.227   9.855 -0.1758  0.3595  0.9961
   59CHL1  H18A 6800   5.230   3.223   9.959  0.5120 -2.1966  1.2002
   59CHL1  H18B 6801   5.187   3.286   9.802 -1.6068 -0.4306  2.1708
   59CHL1  H18C 6802   5.274   3.125   9.811 -0.4758  1.7362 -2.6457
   59CHL1   C12 6803   5.520   3.222   9.919  0.5503  0.5991  0.2010
   59CHL1  H12A 6804   5.530   3.118   9.882 -2.1630 -0.0933  1.1774
   59CHL1  H12B 6805   5.615   3.280   9.918  1.0867 -0.1557 -2.9893
   59CHL1   C11 6806   5.478   3.201  10.062 -0.6630  0.3338  0.9935
   59CHL1  H11A 6807   5.391   3.133  10.056  0.8455 -1.5708 -1.0986
   59CHL1  H11B 6808   5.557   3.137  10.108 -1.0050 -1.4356 -0.7453
   59CHL1    C9 6809   5.457   3.327  10.147  0.4120  0.1925 -0.1901
   59CHL1    H9 6810   5.556   3.376  10.150  0.3251  0.3505  0.0865
   59CHL1   C10 6811   5.424   3.307  10.291  0.0455  0.0419 -0.3969
   59CHL1   C19 6812   5.310   3.204  10.306 -0.4218  0.2390 -0.1533
   59CHL1  H19A 6813   5.222   3.258  10.263  1.8688  3.8328 -0.7439
   59CHL1  H19B 6814   5.332   3.107  10.257 -0.0070 -0.8100  2.0030
   59CHL1  H19C 6815   5.288   3.181  10.412  3.5652  1.1969  1.0330
   59CHL1    C1 6816   5.549   3.240  10.360 -0.0695 -0.0414 -1.0854
   59CHL1   H1A 6817   5.563   3.139  10.318 -2.2661 -0.0453 -1.9303
   59CHL1   H1B 6818   5.633   3.310  10.339  0.5841  0.3330  2.1504
   59CHL1    C2 6819   5.542   3.220  10.511 -0.1502  0.2575 -0.3432
   59CHL1   H2A 6820   5.643   3.185  10.542  0.3320 -0.7554 -2.8437
   59CHL1   H2B 6821   5.470   3.139  10.535  0.3195  0.8394  3.8994
   59CHL1   C20 6822   5.457   3.243   9.611 -0.1045 -0.1552  0.2311
   59CHL1   H20 6823   5.467   3.144   9.661 -3.8447 -2.0979 -2.3200
   59CHL1   C21 6824   5.589   3.277   9.532 -0.0722  0.2958  0.0535
   59CHL1  H21A 6825   5.674   3.280   9.604  0.2188  0.0224 -0.2719
   59CHL1  H21B 6826   5.581   3.380   9.492  1.1994  0.6360  0.6374
   59CHL1  H21C 6827   5.614   3.208   9.448  0.1854  1.6372 -1.0172
   59CHL1   C22 6828   5.333   3.209   9.517 -0.2579  0.1377 -0.1883
   59CHL1  H22A 6829   5.254   3.157   9.575 -0.2821 -0.9493 -1.1509
   59CHL1  H22B 6830   5.306   3.294   9.452 -1.2752 -1.1031 -1.4576
   59CHL1   C23 6831   5.369   3.095   9.422  0.3353  0.4143  0.1146
   59CHL1  H23A 6832   5.455   3.110   9.353  0.2172  0.2925 -0.0628
   59CHL1  H23B 6833   5.409   3.016   9.489  1.3652 -0.3126 -1.3062
   59CHL1   C24 6834   5.252   3.025   9.343 -0.7717  0.7905  0.3872
   59CHL1  H24A 6835   5.293   2.939   9.284 -2.7483 -0.3984  0.6401
   59CHL1  H24B 6836   5.181   2.994   9.423  0.1849  1.2064  1.4219
   59CHL1   C25 6837   5.188   3.112   9.236  0.5895 -0.3332  0.4536
   59CHL1   H25 6838   5.148   3.205   9.281 -0.5352 -0.6520  0.1259
   59CHL1   C26 6839   5.287   3.150   9.131 -0.0581  0.4332 -0.4975
   59CHL1  H26A 6840   5.248   3.219   9.052  0.6218  0.3342 -0.9302
   59CHL1  H26B 6841   5.369   3.202   9.184  0.8732 -0.9186 -0.5584
   59CHL1  H26C 6842   5.327   3.067   9.068 -0.0614  1.6942 -2.2311
   59CHL1   C27 6843   5.072   3.034   9.180 -0.4542 -0.4151  0.3541
   59CHL1  H27A 6844   5.009   3.024   9.271  0.2420  1.2640  1.0623
   59CHL1  H27B 6845   5.016   3.103   9.113 -0.4088  1.0583  1.7664
   59CHL1  H27C 6846   5.106   2.938   9.135 -0.0074  0.5399 -1.4446
   60CHL1    C3 6847   4.505   3.444  10.382  0.1259 -0.0203  0.0982
   60CHL1    H3 6848   4.605   3.483  10.355 -0.0828 -1.7598 -4.0539
   60CHL1    O3 6849   4.493   3.410  10.514  0.1216  0.1361 -0.0563
   60CHL1   H3' 6850   4.423   3.345  10.527 -1.1496  1.6718  1.1223
   60CHL1    C4 6851   4.409   3.563  10.356 -0.0517  0.1916  0.2626
   60CHL1   H4A 6852   4.307   3.528  10.384  1.0765 -1.9668  2.0363
   60CHL1   H4B 6853   4.437   3.656  10.410 -1.1994 -0.1396  1.4862
   60CHL1    C5 6854   4.408   3.590  10.209 -0.2997  0.4416  0.9185
   60CHL1    C6 6855   4.432   3.716  10.168 -0.6629 -0.1183  0.6751
   60CHL1    H6 6856   4.434   3.793  10.246 -0.2852 -1.8037  2.3944
   60CHL1    C7 6857   4.453   3.763  10.026  0.6392  0.4872 -0.5185
   60CHL1   H7A 6858   4.402   3.860  10.012 -0.2720  0.2838  1.2316
   60CHL1   H7B 6859   4.562   3.770  10.006  0.5532  1.7539 -0.5679
   60CHL1    C8 6860   4.380   3.655   9.935  0.4289 -0.7074  0.0192
   60CHL1    H8 6861   4.269   3.663   9.944  0.5358  2.1940 -0.2648
   60CHL1   C14 6862   4.400   3.693   9.789  0.3074  0.5978 -0.9711
   60CHL1   H14 6863   4.511   3.697   9.780  0.3111  0.7889 -0.8468
   60CHL1   C15 6864   4.370   3.834   9.744  0.9988 -0.1087  0.0312
   60CHL1  H15A 6865   4.267   3.858   9.779  0.3534 -2.2835 -0.2555
   60CHL1  H15B 6866   4.435   3.917   9.780 -0.1365  0.8275 -0.0095
   60CHL1   C16 6867   4.375   3.834   9.593 -0.3292  1.2414 -0.1558
   60CHL1  H16A 6868   4.274   3.868   9.561 -0.1399  2.1702  0.2070
   60CHL1  H16B 6869   4.445   3.907   9.547  0.1823  2.9805  3.1088
   60CHL1   C17 6870   4.397   3.677   9.556 -0.2665 -0.2843 -0.2221
   60CHL1   H17 6871   4.507   3.659   9.546  0.3250  2.4521  0.4388
   60CHL1   C13 6872   4.350   3.601   9.684  0.0223  0.3821 -0.0788
   60CHL1   C18 6873   4.191   3.595   9.676 -0.0464  0.0547  0.3295
   60CHL1  H18A 6874   4.161   3.701   9.662 -1.0938 -0.3271 -0.4927
   60CHL1  H18B 6875   4.152   3.537   9.589  0.7709  2.1843 -1.5570
   60CHL1  H18C 6876   4.146   3.562   9.772 -1.4093 -0.0409 -0.3147
   60CHL1   C12 6877   4.416   3.454   9.711 -0.2093  0.3398 -0.6584
   60CHL1  H12A 6878   4.379   3.380   9.637 -1.7092  0.0559  0.3259
   60CHL1  H12B 6879   4.526   3.468   9.710  0.0666 -0.2258  3.7009
   60CHL1   C11 6880   4.371   3.414   9.856 -0.4175 -1.1050 -0.4439
   60CHL1  H11A 6881   4.261   3.405   9.860 -0.5588  0.2753 -0.9483
   60CHL1  H11B 6882   4.406   3.309   9.870  2.1836 -0.3880 -0.9439
   60CHL1    C9 6883   4.421   3.510   9.969 -0.3439 -0.1086  0.4862
   60CHL1    H9 6884   4.530   3.521   9.954 -0.1810 -0.1033  1.5667
   60CHL1   C10 6885   4.382   3.467  10.112  0.5015 -0.6660  0.1178
   60CHL1   C19 6886   4.228   3.429  10.112 -0.2498  0.0555 -0.2639
   60CHL1  H19A 6887   4.165   3.488  10.042  2.2120  1.5565 -1.3829
   60CHL1  H19B 6888   4.221   3.323  10.079  1.1061 -1.0354  2.5949
   60CHL1  H19C 6889   4.180   3.419  10.211 -2.9320 -0.4585 -1.5349
   60CHL1    C1 6890   4.470   3.337  10.158 -0.7025 -0.3556 -0.3964
   60CHL1   H1A 6891   4.428   3.243  10.118  0.0229 -1.0401  0.4123
   60CHL1   H1B 6892   4.573   3.353  10.119 -0.3016  2.0030  1.3500
   60CHL1    C2 6893   4.472   3.317  10.305 -0.1696 -0.5140  0.0457
   60CHL1   H2A 6894   4.547   3.242  10.336 -0.0401 -0.4456 -0.1003
   60CHL1   H2B 6895   4.373   3.273  10.329  0.2304 -1.0967  0.6614
   60CHL1   C20 6896   4.331   3.647   9.425  0.1488 -0.0082  0.1722
   60CHL1   H20 6897   4.222   3.633   9.442 -0.0532  0.7694 -0.4138
   60CHL1   C21 6898   4.387   3.523   9.366 -0.3427  0.7393 -0.2260
   60CHL1  H21A 6899   4.487   3.532   9.319 -0.3109  2.2606  0.0788
   60CHL1  H21B 6900   4.316   3.491   9.286  0.1088  0.1674 -0.4065
   60CHL1  H21C 6901   4.386   3.438   9.438  1.7994 -1.0255 -2.1099
   60CHL1   C22 6902   4.328   3.764   9.320 -0.1900 -0.8492  0.3856
   60CHL1  H22A 6903   4.263   3.844   9.362 -0.7897 -0.7722 -0.6599
   60CHL1  H22B 6904   4.428   3.800   9.288 -0.1606 -2.0508 -0.9669
   60CHL1   C23 6905   4.250   3.721   9.198  0.0014  0.1626 -0.2646
   60CHL1  H23A 6906   4.311   3.647   9.141  0.8470 -0.0462  0.8760
   60CHL1  H23B 6907   4.169   3.653   9.232 -0.2020  0.6504  0.2337
   60CHL1   C24 6908   4.187   3.833   9.112 -0.5752 -0.2801  0.0414
   60CHL1  H24A 6909   4.093   3.859   9.167  0.6849 -1.1923  2.8379
   60CHL1  H24B 6910   4.253   3.922   9.101  0.9073 -1.4851 -1.0844
   60CHL1   C25 6911   4.144   3.784   8.969  0.0712 -0.1500 -0.5968
   60CHL1   H25 6912   4.089   3.688   8.982  2.9500 -2.0135 -1.2971
   60CHL1   C26 6913   4.067   3.890   8.893  0.4114 -0.7302  0.4703
   60CHL1  H26A 6914   3.991   3.944   8.953  0.5512  2.6303 -2.0191
   60CHL1  H26B 6915   4.135   3.970   8.854  0.9920 -1.4488 -0.0289
   60CHL1  H26C 6916   4.025   3.849   8.799  1.2059 -0.7598  0.1146
   60CHL1   C27 6917   4.268   3.746   8.899 -0.1837 -0.1908  0.5178
   60CHL1  H27A 6918   4.246   3.715   8.795  0.7659  0.0780  0.2261
   60CHL1  H27B 6919   4.323   3.842   8.897 -1.2171  0.4283  1.0704
   60CHL1  H27C 6920   4.323   3.662   8.947 -0.6597 -0.1931  1.0677
   61CHL1    C3 6921   1.185   3.738  10.345  0.2212 -1.3136 -0.3120
   61CHL1    H3 6922   1.239   3.832  10.322 -1.1635 -0.3746  0.1453
   61CHL1    O3 6923   1.145   3.753  10.484  0.7032  0.7298 -0.0227
   61CHL1   H3' 6924   1.085   3.678  10.488 -0.1245  1.1979 -2.1418
   61CHL1    C4 6925   1.064   3.721  10.256 -0.1766 -0.2059  0.6903
   61CHL1   H4A 6926   1.004   3.635  10.292  0.6354 -1.2977 -0.4788
   61CHL1   H4B 6927   0.993   3.806  10.252 -0.1857 -0.2573 -2.0112
   61CHL1    C5 6928   1.108   3.705  10.110 -0.4702  0.1760 -0.4914
   61CHL1    C6 6929   1.070   3.781  10.009  0.4927 -0.0803  0.4445
   61CHL1    H6 6930   0.993   3.857  10.029  0.1995  0.1387 -1.3664
   61CHL1    C7 6931   1.115   3.779   9.863 -0.5770  0.4714  0.7327
   61CHL1   H7A 6932   1.030   3.812   9.800  0.4045  0.3288 -0.7138
   61CHL1   H7B 6933   1.196   3.854   9.845 -0.2245  0.8813  3.4629
   61CHL1    C8 6934   1.169   3.638   9.828  0.1075 -0.3627 -0.5520
   61CHL1    H8 6935   1.083   3.569   9.827  0.4210 -0.7679 -0.1048
   61CHL1   C14 6936   1.245   3.634   9.695  0.3718 -0.3319  0.0604
   61CHL1   H14 6937   1.333   3.701   9.702  1.2460 -1.5005  0.6001
   61CHL1   C15 6938   1.170   3.689   9.569  0.3660  1.1685 -0.5079
   61CHL1  H15A 6939   1.063   3.658   9.578  0.2486  2.0730  1.9612
   61CHL1  H15B 6940   1.165   3.800   9.572  0.0057  1.1279  0.9284
   61CHL1   C16 6941   1.247   3.633   9.450  0.0082  0.0948 -0.7434
   61CHL1  H16A 6942   1.166   3.582   9.394 -0.9752 -0.9875  1.5323
   61CHL1  H16B 6943   1.289   3.719   9.394  0.0331  0.0972 -0.7213
   61CHL1   C17 6944   1.352   3.541   9.512 -0.6643 -0.4001  0.0496
   61CHL1   H17 6945   1.443   3.602   9.526 -0.3913 -0.9646  0.7729
   61CHL1   C13 6946   1.308   3.502   9.657  0.7744 -0.3790 -0.4972
   61CHL1   C18 6947   1.197   3.392   9.653 -0.6056 -0.4435  0.1434
   61CHL1  H18A 6948   1.235   3.299   9.606  0.3734  1.0496 -2.1599
   61CHL1  H18B 6949   1.154   3.383   9.755  0.2387 -0.8639  0.4730
   61CHL1  H18C 6950   1.105   3.420   9.597 -0.5406  0.6390  0.5518
   61CHL1   C12 6951   1.412   3.473   9.765 -0.1139  0.6379  0.4876
   61CHL1  H12A 6952   1.466   3.377   9.751 -1.0950 -0.4954  3.5682
   61CHL1  H12B 6953   1.486   3.555   9.771  1.5547 -0.6194 -1.4840
   61CHL1   C11 6954   1.348   3.462   9.904 -0.0652  0.5041  0.2157
   61CHL1  H11A 6955   1.280   3.375   9.912  1.2801 -0.7481 -1.2879
   61CHL1  H11B 6956   1.424   3.439   9.982 -1.3585  0.4227  1.4931
   61CHL1    C9 6957   1.260   3.587   9.941 -0.0199 -0.3652 -0.5465
   61CHL1    H9 6958   1.345   3.657   9.956  1.6230 -2.4472  0.3812
   61CHL1   C10 6959   1.208   3.585  10.083  0.0439 -0.1254 -0.3499
   61CHL1   C19 6960   1.128   3.453  10.105  0.3463  0.3149 -0.1154
   61CHL1  H19A 6961   1.194   3.365  10.117  2.4991  1.4878 -2.3825
   61CHL1  H19B 6962   1.058   3.461  10.191  2.9369  3.3405  1.9441
   61CHL1  H19C 6963   1.064   3.443  10.014  0.8560 -0.7580 -0.3681
   61CHL1    C1 6964   1.324   3.601  10.188 -0.6058  0.1038 -0.7420
   61CHL1   H1A 6965   1.393   3.515  10.198  0.4140  1.0925  1.5635
   61CHL1   H1B 6966   1.383   3.691  10.161  0.3371 -0.2235  0.1663
   61CHL1    C2 6967   1.281   3.627  10.335  0.1340  0.0601 -0.4184
   61CHL1   H2A 6968   1.374   3.652  10.391  0.3406 -0.3008 -0.5932
   61CHL1   H2B 6969   1.230   3.532  10.362 -1.0293  0.8941  0.4284
   61CHL1   C20 6970   1.389   3.432   9.412  0.3600 -0.0309  0.4055
   61CHL1   H20 6971   1.300   3.371   9.387  0.2176 -0.6552  2.2538
   61CHL1   C21 6972   1.489   3.330   9.475  0.1627  0.0461 -0.0186
   61CHL1  H21A 6973   1.435   3.272   9.553  1.2651 -1.3551 -0.2583
   61CHL1  H21B 6974   1.581   3.380   9.512  0.7714 -1.2255  0.2084
   61CHL1  H21C 6975   1.524   3.249   9.408  1.5585 -0.1352  0.8979
   61CHL1   C22 6976   1.440   3.489   9.284  0.8920  0.7076  0.6992
   61CHL1  H22A 6977   1.385   3.577   9.244  1.9405  1.1218  0.1130
   61CHL1  H22B 6978   1.543   3.523   9.308  2.7186 -3.1176 -0.7940
   61CHL1   C23 6979   1.460   3.387   9.166  0.7789 -0.3868 -0.4096
   61CHL1  H23A 6980   1.534   3.441   9.104  2.2884 -0.3875  1.2972
   61CHL1  H23B 6981   1.499   3.293   9.212 -1.9142  0.1294  3.4743
   61CHL1   C24 6982   1.335   3.365   9.077  1.6309 -0.3987  0.6661
   61CHL1  H24A 6983   1.258   3.321   9.144  0.9112 -0.0983  0.0484
   61CHL1  H24B 6984   1.284   3.448   9.024  0.2933 -1.5977  0.0267
   61CHL1   C25 6985   1.364   3.261   8.969 -0.5055  0.4690 -0.1872
   61CHL1   H25 6986   1.399   3.166   9.016 -1.4653  1.4080  2.6466
   61CHL1   C26 6987   1.233   3.214   8.901  0.1838 -0.0684  0.4321
   61CHL1  H26A 6988   1.188   3.312   8.873  0.8694  1.4941  4.2354
   61CHL1  H26B 6989   1.251   3.156   8.808  0.6359  1.2086 -0.3069
   61CHL1  H26C 6990   1.170   3.153   8.969  0.1912 -0.4681  0.0827
   61CHL1   C27 6991   1.460   3.312   8.861 -0.3583  0.3576  0.4953
   61CHL1  H27A 6992   1.409   3.396   8.809  0.9365  0.5601 -0.5254
   61CHL1  H27B 6993   1.560   3.341   8.900  0.7645 -0.1469 -1.8144
   61CHL1  H27C 6994   1.476   3.240   8.777  1.2096  0.8506  0.3323
   62CHL1    C3 6995   4.568   6.428  10.149  0.3167  0.6357  0.0150
   62CHL1    H3 6996   4.516   6.526  10.147  0.3110  0.6381  0.1964
   62CHL1    O3 6997   4.622   6.411  10.278 -0.3646 -0.4062  0.0284
   62CHL1   H3' 6998   4.717   6.424  10.277 -0.0385 -2.1250 -2.7584
   62CHL1    C4 6999   4.451   6.328  10.130  0.1011  0.2497 -0.5167
   62CHL1   H4A 7000   4.480   6.229  10.170 -2.1082 -0.6606 -1.0451
   62CHL1   H4B 7001   4.371   6.362  10.199 -1.3692  0.5146 -2.2805
   62CHL1    C5 7002   4.395   6.298   9.994 -0.5963  0.2672 -0.2229
   62CHL1    C6 7003   4.266   6.312   9.975  0.1460  0.2943  0.1814
   62CHL1    H6 7004   4.205   6.350  10.058  1.0857 -0.3001  1.1604
   62CHL1    C7 7005   4.202   6.259   9.849 -0.0127 -0.6337 -0.3086
   62CHL1   H7A 7006   4.127   6.182   9.873  0.8667 -1.3000  0.3542
   62CHL1   H7B 7007   4.153   6.336   9.785  1.2469 -0.5982 -1.2775
   62CHL1    C8 7008   4.307   6.189   9.756  0.1116  0.3730  0.4185
   62CHL1    H8 7009   4.310   6.083   9.789  0.9887  0.8131  1.8309
   62CHL1   C14 7010   4.246   6.201   9.616 -0.0559 -0.3349 -0.6739
   62CHL1   H14 7011   4.239   6.310   9.596  1.6783  0.0032  0.3585
   62CHL1   C15 7012   4.109   6.146   9.592  0.9990  0.3730 -0.6794
   62CHL1  H15A 7013   4.082   6.052   9.645 -0.5042  1.1324 -0.0095
   62CHL1  H15B 7014   4.029   6.220   9.616  1.9480  1.2711 -0.2210
   62CHL1   C16 7015   4.102   6.101   9.446 -0.6413 -0.1954 -0.2735
   62CHL1  H16A 7016   4.087   5.991   9.438  1.4709 -0.4941 -0.7299
   62CHL1  H16B 7017   4.021   6.163   9.402 -1.9354 -2.0356 -0.5913
   62CHL1   C17 7018   4.239   6.139   9.382 -0.6897  0.5362  0.0480
   62CHL1   H17 7019   4.233   6.245   9.348 -2.3835  0.4684  0.0934
   62CHL1   C13 7020   4.332   6.145   9.505 -1.1166  0.6776 -0.4270
   62CHL1   C18 7021   4.372   5.996   9.547 -0.7229  0.4666  0.3380
   62CHL1  H18A 7022   4.412   5.988   9.650  0.9739 -0.3864 -0.3439
   62CHL1  H18B 7023   4.281   5.932   9.543 -1.0412  0.8799  0.9731
   62CHL1  H18C 7024   4.443   5.946   9.477 -3.0787  1.2004 -2.8055
   62CHL1   C12 7025   4.460   6.234   9.495 -0.0045  0.0463 -0.0755
   62CHL1  H12A 7026   4.518   6.201   9.405  0.0457 -1.3299  0.4400
   62CHL1  H12B 7027   4.435   6.340   9.476 -0.5273 -0.1551 -0.5198
   62CHL1   C11 7028   4.526   6.235   9.633  0.3151 -0.2313  0.2181
   62CHL1  H11A 7029   4.580   6.140   9.653 -0.9638 -0.7039  1.5964
   62CHL1  H11B 7030   4.600   6.318   9.627  1.4542 -1.1912  0.6615
   62CHL1    C9 7031   4.435   6.270   9.752 -0.2591  0.0844  0.6505
   62CHL1    H9 7032   4.402   6.375   9.737 -2.0607 -0.6268 -0.6441
   62CHL1   C10 7033   4.503   6.274   9.890  0.0156  0.6051 -0.1686
   62CHL1   C19 7034   4.579   6.140   9.922  0.7821  0.1907 -0.3496
   62CHL1  H19A 7035   4.609   6.134  10.029  0.9118 -3.9276 -0.4900
   62CHL1  H19B 7036   4.518   6.049   9.908 -0.2125  0.8701 -0.5273
   62CHL1  H19C 7037   4.672   6.132   9.861  1.3503 -0.5912  0.5976
   62CHL1    C1 7038   4.604   6.389   9.898  0.3558 -0.4630  0.7026
   62CHL1   H1A 7039   4.688   6.386   9.826 -0.9533  1.8891 -1.0482
   62CHL1   H1B 7040   4.561   6.485   9.864  0.3751 -0.3495  0.9929
   62CHL1    C2 7041   4.665   6.413  10.036 -0.7273 -0.1293 -0.6712
   62CHL1   H2A 7042   4.724   6.507  10.031  0.2993 -0.7472 -0.4393
   62CHL1   H2B 7043   4.739   6.332  10.047 -0.5254 -0.1051 -1.7309
   62CHL1   C20 7044   4.280   6.047   9.256  0.5313  0.3386  0.3011
   62CHL1   H20 7045   4.309   5.946   9.291  0.5367  0.6750  1.2869
   62CHL1   C21 7046   4.396   6.115   9.180  0.1795  0.7479 -0.5213
   62CHL1  H21A 7047   4.493   6.073   9.216 -0.4686 -1.1452 -0.8433
   62CHL1  H21B 7048   4.395   6.226   9.189 -0.8771  0.5892  2.5363
   62CHL1  H21C 7049   4.400   6.079   9.075 -2.0594  0.0271 -0.4186
   62CHL1   C22 7050   4.156   6.023   9.162 -0.3947  0.2073 -0.5773
   62CHL1  H22A 7051   4.074   5.977   9.223  0.4696 -2.3558 -1.2296
   62CHL1  H22B 7052   4.111   6.123   9.144  0.7693  1.3932  2.4399
   62CHL1   C23 7053   4.172   5.956   9.023  0.9147  0.1933  0.5817
   62CHL1  H23A 7054   4.232   6.016   8.951 -0.0283  0.9122  0.3812
   62CHL1  H23B 7055   4.223   5.858   9.038  1.1060  0.3377  0.8755
   62CHL1   C24 7056   4.028   5.928   8.956 -0.8002  0.2621 -0.4196
   62CHL1  H24A 7057   3.957   5.913   9.040 -1.6293  1.4287 -0.8824
   62CHL1  H24B 7058   3.998   6.027   8.915 -1.7849 -0.1143 -0.6402
   62CHL1   C25 7059   4.039   5.826   8.844 -0.2750 -0.8035 -0.0221
   62CHL1   H25 7060   4.121   5.852   8.775 -0.1813 -0.1684  0.3190
   62CHL1   C26 7061   4.063   5.683   8.895 -0.0294  0.3098 -0.1735
   62CHL1  H26A 7062   4.093   5.601   8.826  0.6546  1.9356 -1.8638
   62CHL1  H26B 7063   4.137   5.688   8.977 -0.5964  1.6185  0.2937
   62CHL1  H26C 7064   3.968   5.648   8.941  0.8439 -0.5070  1.0840
   62CHL1   C27 7065   3.914   5.828   8.750  0.7419  0.5605  0.6494
   62CHL1  H27A 7066   3.911   5.925   8.697  1.5499  0.2558  0.0235
   62CHL1  H27B 7067   3.928   5.755   8.667 -2.5264  1.7214 -1.0977
   62CHL1  H27C 7068   3.820   5.804   8.804 -1.3416  1.9230 -2.1552
   63CHL1    C3 7069   2.916   1.325  10.596 -0.0467  0.2457  0.4144
   63CHL1    H3 7070   2.824   1.282  10.551 -1.0023  2.0895  0.4979
   63CHL1    O3 7071   2.881   1.323  10.729 -0.4997  0.5834 -0.1250
   63CHL1   H3' 7072   2.835   1.406  10.747 -1.4766 -0.4019  2.3939
   63CHL1    C4 7073   3.049   1.244  10.562 -0.3628  0.0690  0.7330
   63CHL1   H4A 7074   3.125   1.301  10.620 -0.9067  0.0412  1.4837
   63CHL1   H4B 7075   3.039   1.145  10.611  2.0773 -1.2937 -1.2855
   63CHL1    C5 7076   3.079   1.238  10.409  0.2020 -0.4885 -0.1208
   63CHL1    C6 7077   3.077   1.121  10.345 -0.1277  0.4893  0.2290
   63CHL1    H6 7078   3.074   1.022  10.393  0.4768 -0.3139 -1.2892
   63CHL1    C7 7079   3.091   1.106  10.194 -0.4087 -0.8746 -0.5169
   63CHL1   H7A 7080   3.158   1.022  10.166 -0.5090 -0.6276 -1.5432
   63CHL1   H7B 7081   2.987   1.093  10.157 -1.2813  1.3274  0.9325
   63CHL1    C8 7082   3.146   1.239  10.133 -0.2543  0.6936  0.0241
   63CHL1    H8 7083   3.251   1.266  10.157 -0.8662  4.0058 -0.5573
   63CHL1   C14 7084   3.129   1.230   9.979 -0.1649  0.3102  0.5323
   63CHL1   H14 7085   3.021   1.221   9.956  0.0913 -0.9167 -0.3117
   63CHL1   C15 7086   3.198   1.113   9.900  0.4533 -0.2065 -0.6415
   63CHL1  H15A 7087   3.290   1.093   9.959 -0.8209 -1.8794  0.8640
   63CHL1  H15B 7088   3.133   1.024   9.909 -0.2605  0.3708  0.1195
   63CHL1   C16 7089   3.215   1.168   9.757 -0.4587 -0.3628 -0.0210
   63CHL1  H16A 7090   3.321   1.178   9.723 -0.3540  1.7461  0.7810
   63CHL1  H16B 7091   3.170   1.100   9.681 -0.3873  1.1730 -1.5242
   63CHL1   C17 7092   3.153   1.305   9.753  0.4227 -0.0490  0.0135
   63CHL1   H17 7093   3.042   1.297   9.743  0.0486  0.9924  2.5892
   63CHL1   C13 7094   3.167   1.358   9.898  0.1723  0.9914  0.8536
   63CHL1   C18 7095   3.312   1.403   9.914 -0.1474 -0.9107  0.2496
   63CHL1  H18A 7096   3.328   1.437  10.018 -0.0759  3.6116 -1.0036
   63CHL1  H18B 7097   3.383   1.323   9.885  1.3350 -0.1409  1.5961
   63CHL1  H18C 7098   3.337   1.500   9.864  1.2421  0.5192  3.4683
   63CHL1   C12 7099   3.069   1.464   9.946 -0.0049  0.2538  0.5315
   63CHL1  H12A 7100   3.095   1.562   9.901  0.4956  0.0153  0.2968
   63CHL1  H12B 7101   2.963   1.444   9.917  0.3362 -1.0240  0.1324
   63CHL1   C11 7102   3.067   1.487  10.091  0.3211  0.3287 -0.0204
   63CHL1  H11A 7103   3.158   1.537  10.131  1.1431 -1.3548  0.3068
   63CHL1  H11B 7104   2.986   1.557  10.123  1.5802  1.2749  1.2353
   63CHL1    C9 7105   3.052   1.355  10.187  0.1009  0.4279 -0.4524
   63CHL1    H9 7106   2.950   1.318  10.164  0.5770 -1.7966  0.7051
   63CHL1   C10 7107   3.073   1.371  10.339  0.2893  0.2026 -0.9427
   63CHL1   C19 7108   3.204   1.440  10.366 -0.4522  0.0215 -0.4760
   63CHL1  H19A 7109   3.238   1.437  10.472  0.3448 -0.4701 -0.7361
   63CHL1  H19B 7110   3.288   1.391  10.312 -1.0226 -0.7529 -0.6897
   63CHL1  H19C 7111   3.214   1.547  10.338 -0.5594  0.1236 -0.1222
   63CHL1    C1 7112   2.962   1.469  10.385  0.2591  0.0116 -0.5673
   63CHL1   H1A 7113   2.991   1.572  10.354  0.5179  0.1463  0.1058
   63CHL1   H1B 7114   2.871   1.440  10.328  0.5656 -0.4700 -0.8168
   63CHL1    C2 7115   2.923   1.468  10.538 -0.6107 -0.3677 -0.0813
   63CHL1   H2A 7116   2.825   1.517  10.557 -1.1947 -1.9564  1.1915
   63CHL1   H2B 7117   3.001   1.519  10.599  2.8033 -2.5646 -2.2517
   63CHL1   C20 7118   3.199   1.393   9.634 -0.1963  0.0684  0.3759
   63CHL1   H20 7119   3.306   1.421   9.644  0.0561 -0.1212 -1.5013
   63CHL1   C21 7120   3.119   1.527   9.634 -0.1839 -0.0431 -0.2009
   63CHL1  H21A 7121   3.121   1.574   9.533  0.0452  2.2428  0.8069
   63CHL1  H21B 7122   3.153   1.606   9.705 -1.7885 -0.2862  0.8915
   63CHL1  H21C 7123   3.012   1.503   9.649 -0.1357 -0.1716 -0.0680
   63CHL1   C22 7124   3.175   1.307   9.506 -0.2288  0.4227  0.1609
   63CHL1  H22A 7125   3.244   1.221   9.498  3.3006  3.0895 -0.8158
   63CHL1  H22B 7126   3.067   1.279   9.508 -0.1724  0.1744 -0.3116
   63CHL1   C23 7127   3.184   1.369   9.370  0.5425 -0.2826 -0.1232
   63CHL1  H23A 7128   3.115   1.452   9.347  0.7484 -0.3775 -1.1609
   63CHL1  H23B 7129   3.280   1.423   9.356  0.3257  1.2788  3.3579
   63CHL1   C24 7130   3.166   1.267   9.252 -0.1709 -0.2675 -0.0880
   63CHL1  H24A 7131   3.252   1.198   9.242  1.1007  1.5024 -2.3322
   63CHL1  H24B 7132   3.071   1.214   9.274  0.7306 -1.6209  0.6661
   63CHL1   C25 7133   3.153   1.337   9.118  0.4167  0.3186  0.2267
   63CHL1   H25 7134   3.063   1.402   9.115  0.6794  0.6485 -1.5600
   63CHL1   C26 7135   3.267   1.435   9.099  0.1562  0.3250 -0.0182
   63CHL1  H26A 7136   3.253   1.530   9.155  1.2023 -0.9433  2.5683
   63CHL1  H26B 7137   3.360   1.383   9.132 -1.3097 -1.1190  2.0698
   63CHL1  H26C 7138   3.283   1.477   8.997 -2.0095  1.5596  0.0948
   63CHL1   C27 7139   3.140   1.243   9.003  0.1373  0.2992 -0.5102
   63CHL1  H27A 7140   3.053   1.176   9.022 -0.6108  1.1770 -0.7344
   63CHL1  H27B 7141   3.119   1.302   8.911 -1.9303 -0.0129 -0.2861
   63CHL1  H27C 7142   3.232   1.181   8.996  0.0313  0.1341 -0.4595
   64CHL1    C3 7143   2.337   0.321  10.102 -0.1872  0.2940 -0.0791
   64CHL1    H3 7144   2.337   0.210  10.097 -2.0020  0.3216 -2.2274
   64CHL1    O3 7145   2.324   0.366  10.233  0.0362 -0.1336 -0.6696
   64CHL1   H3' 7146   2.368   0.451  10.236 -0.0925 -0.0970  0.7378
   64CHL1    C4 7147   2.469   0.365  10.043 -0.4214 -0.3481 -0.1675
   64CHL1   H4A 7148   2.466   0.476  10.047  0.2984 -0.3568  1.7484
   64CHL1   H4B 7149   2.561   0.343  10.101 -0.0731 -0.0204 -0.5820
   64CHL1    C5 7150   2.477   0.316   9.900 -0.4106  0.1516  0.0882
   64CHL1    C6 7151   2.576   0.233   9.855  0.5746  0.9353 -0.1367
   64CHL1    H6 7152   2.661   0.202   9.918  0.5805  1.0774 -0.0742
   64CHL1    C7 7153   2.581   0.178   9.715  0.1335  0.0083 -0.4948
   64CHL1   H7A 7154   2.687   0.170   9.684  0.1437  2.6916 -1.3526
   64CHL1   H7B 7155   2.533   0.077   9.717 -0.1799  0.1594  1.2662
   64CHL1    C8 7156   2.498   0.258   9.612 -0.2837 -0.0266 -0.5510
   64CHL1    H8 7157   2.549   0.355   9.595 -0.2120 -0.2539 -1.6529
   64CHL1   C14 7158   2.488   0.179   9.486  0.0795  0.5149  0.2923
   64CHL1   H14 7159   2.436   0.082   9.501 -1.1536  1.0059 -0.5948
   64CHL1   C15 7160   2.618   0.148   9.418  0.0014  0.0609  0.6589
   64CHL1  H15A 7161   2.696   0.226   9.429 -1.1068  0.9371  2.8855
   64CHL1  H15B 7162   2.664   0.055   9.459 -0.6493 -1.1477 -1.1996
   64CHL1   C16 7163   2.583   0.128   9.264  0.3082 -0.3553 -0.8868
   64CHL1  H16A 7164   2.650   0.207   9.225  0.2777 -0.1463 -0.5245
   64CHL1  H16B 7165   2.608   0.028   9.223  2.0387 -0.2775 -0.1203
   64CHL1   C17 7166   2.429   0.165   9.257 -0.3149  0.2592 -0.5274
   64CHL1   H17 7167   2.370   0.072   9.270  0.5382 -0.0354  1.5662
   64CHL1   C13 7168   2.400   0.249   9.380 -1.1486 -0.7326  0.6735
   64CHL1   C18 7169   2.442   0.395   9.352  0.3453 -0.4052 -1.0809
   64CHL1  H18A 7170   2.545   0.422   9.320  1.0449  1.7281  2.4751
   64CHL1  H18B 7171   2.373   0.447   9.281  1.9984  2.4313 -0.7573
   64CHL1  H18C 7172   2.431   0.450   9.448  1.0171 -0.2425 -1.0923
   64CHL1   C12 7173   2.258   0.250   9.424 -0.3072  0.2149  0.5097
   64CHL1  H12A 7174   2.192   0.295   9.347  1.3295 -0.6126 -1.4636
   64CHL1  H12B 7175   2.219   0.146   9.423 -1.8316  0.7699  0.4292
   64CHL1   C11 7176   2.247   0.321   9.562 -0.0073 -0.3293  1.3208
   64CHL1  H11A 7177   2.244   0.430   9.540 -1.3425 -0.9072 -2.0312
   64CHL1  H11B 7178   2.143   0.300   9.595 -0.1072 -2.2649 -0.0504
   64CHL1    C9 7179   2.355   0.281   9.670  1.0262  0.0235  0.3915
   64CHL1    H9 7180   2.320   0.177   9.689  0.6052 -0.0553 -0.7013
   64CHL1   C10 7181   2.360   0.359   9.801  0.2132 -0.0760 -0.0837
   64CHL1   C19 7182   2.372   0.511   9.764  0.1279  0.1615 -0.4205
   64CHL1  H19A 7183   2.282   0.543   9.708 -1.1345 -2.1486  0.1863
   64CHL1  H19B 7184   2.396   0.587   9.842  1.2592 -0.9382  0.3417
   64CHL1  H19C 7185   2.455   0.528   9.692 -1.7822  1.7186 -2.4121
   64CHL1    C1 7186   2.223   0.336   9.876  0.3239 -0.5521  0.5836
   64CHL1   H1A 7187   2.142   0.380   9.814  2.5326 -0.0161 -2.1227
   64CHL1   H1B 7188   2.213   0.225   9.880 -1.4352 -0.4290  0.5140
   64CHL1    C2 7189   2.224   0.382  10.020  0.4017  0.1872  0.0734
   64CHL1   H2A 7190   2.130   0.351  10.071  0.8543  0.2178  0.9339
   64CHL1   H2B 7191   2.220   0.493  10.023  0.5076  0.1800  0.5187
   64CHL1   C20 7192   2.402   0.209   9.111 -0.5363 -0.3599  0.9224
   64CHL1   H20 7193   2.462   0.300   9.090  2.7739 -2.6080 -0.1546
   64CHL1   C21 7194   2.254   0.247   9.091  0.3838  0.0530  0.1608
   64CHL1  H21A 7195   2.243   0.354   9.119  1.8911  0.5258 -0.9126
   64CHL1  H21B 7196   2.184   0.180   9.147  0.1666 -0.9016 -1.2073
   64CHL1  H21C 7197   2.241   0.225   8.983  2.7986  1.4531 -0.4728
   64CHL1   C22 7198   2.441   0.095   9.005  0.1164  1.3979  0.1228
   64CHL1  H22A 7199   2.404   0.134   8.907 -2.3560 -0.9858 -0.0312
   64CHL1  H22B 7200   2.548   0.064   8.998 -0.2501  0.2984 -1.1603
   64CHL1   C23 7201   2.367  -0.045   9.011  0.3964 -0.2871  0.1906
   64CHL1  H23A 7202   2.395  -0.091   9.108 -2.2336  0.2908  1.3003
   64CHL1  H23B 7203   2.259  -0.025   8.995  0.9185  2.4680 -0.3816
   64CHL1   C24 7204   2.409  -0.142   8.898  0.1451 -0.5510  0.0563
   64CHL1  H24A 7205   2.426  -0.084   8.804 -0.5874  1.3151  1.0227
   64CHL1  H24B 7206   2.502  -0.193   8.929  2.1548  1.3266 -2.4321
   64CHL1   C25 7207   2.306  -0.243   8.859 -0.9640 -0.2450  0.6833
   64CHL1   H25 7208   2.203  -0.202   8.848 -1.9942 -2.4215  1.3930
   64CHL1   C26 7209   2.353  -0.315   8.736  0.1382  0.3656 -0.1155
   64CHL1  H26A 7210   2.279  -0.391   8.705  0.2752  0.5339 -0.8631
   64CHL1  H26B 7211   2.365  -0.241   8.654  3.8188 -1.6943 -1.7057
   64CHL1  H26C 7212   2.457  -0.353   8.753 -0.2742 -0.1391  1.4691
   64CHL1   C27 7213   2.293  -0.355   8.973  1.2167  0.3338 -0.1590
   64CHL1  H27A 7214   2.304  -0.294   9.065  0.6718  0.2709 -0.0438
   64CHL1  H27B 7215   2.195  -0.408   8.974  1.4783 -0.1833  1.6377
   64CHL1  H27C 7216   2.369  -0.436   8.969 -0.9952 -2.0128  1.6635
   65CHL1    C3 7217   5.550   4.361  10.305  0.2792 -0.0198 -0.2706
   65CHL1    H3 7218   5.448   4.327  10.279  1.4934 -2.6634 -2.0898
   65CHL1    O3 7219   5.561   4.376  10.442  0.0358 -0.0511  0.1530
   65CHL1   H3' 7220   5.549   4.285  10.470 -1.1837 -1.4654 -4.2245
   65CHL1    C4 7221   5.659   4.261  10.261  0.5665 -0.4096  0.8760
   65CHL1   H4A 7222   5.762   4.302  10.272  1.0778 -1.8749  1.8869
   65CHL1   H4B 7223   5.660   4.163  10.313 -0.9292 -1.0781 -0.2936
   65CHL1    C5 7224   5.649   4.219  10.119  0.8112 -0.3447 -0.5884
   65CHL1    C6 7225   5.627   4.090  10.082 -1.0426 -0.4180 -0.2333
   65CHL1    H6 7226   5.643   4.014  10.159 -2.7866 -0.0376  0.5713
   65CHL1    C7 7227   5.621   4.044   9.939  1.0636  0.4403  0.3881
   65CHL1   H7A 7228   5.701   3.971   9.914 -1.0524 -1.3195 -1.6993
   65CHL1   H7B 7229   5.526   3.991   9.915  1.9275 -0.1972 -1.9026
   65CHL1    C8 7230   5.630   4.162   9.839 -0.9514  0.0250  0.1111
   65CHL1    H8 7231   5.737   4.181   9.815 -0.9751  1.4074  1.0146
   65CHL1   C14 7232   5.553   4.128   9.709  1.2662 -0.1531 -0.3711
   65CHL1   H14 7233   5.446   4.134   9.738  2.1894  0.0540  3.5532
   65CHL1   C15 7234   5.574   3.996   9.636 -0.1819  0.5516  0.1057
   65CHL1  H15A 7235   5.682   3.971   9.646 -0.2554 -0.8848 -2.0249
   65CHL1  H15B 7236   5.514   3.915   9.682 -0.3566  1.1692  0.9971
   65CHL1   C16 7237   5.531   4.012   9.484 -0.0135  0.1733  0.0618
   65CHL1  H16A 7238   5.618   4.000   9.416  1.5469  0.0500  1.9862
   65CHL1  H16B 7239   5.449   3.940   9.464  1.1913 -1.8855  2.0682
   65CHL1   C17 7240   5.486   4.167   9.485 -0.1743 -0.0994 -0.4226
   65CHL1   H17 7241   5.386   4.164   9.533  0.6898  2.1480  1.6786
   65CHL1   C13 7242   5.561   4.234   9.599  0.3958  0.5445 -0.9988
   65CHL1   C18 7243   5.709   4.262   9.546 -0.4864 -0.2795  0.1369
   65CHL1  H18A 7244   5.773   4.276   9.635  0.8375 -2.5724 -0.3890
   65CHL1  H18B 7245   5.753   4.168   9.508  2.3783 -1.0096  4.5500
   65CHL1  H18C 7246   5.710   4.355   9.485 -0.5774  0.1723  0.8165
   65CHL1   C12 7247   5.494   4.363   9.659 -0.7842 -0.5244 -0.6108
   65CHL1  H12A 7248   5.498   4.430   9.570 -1.0154 -1.3573 -1.2590
   65CHL1  H12B 7249   5.391   4.332   9.686 -0.5865 -1.7692 -1.2313
   65CHL1   C11 7250   5.568   4.414   9.788 -0.7348  0.6923  0.0541
   65CHL1  H11A 7251   5.669   4.456   9.769 -0.5478  0.7726  1.1456
   65CHL1  H11B 7252   5.507   4.494   9.835 -1.4652 -1.4628  3.1271
   65CHL1    C9 7253   5.580   4.296   9.893 -0.5149  0.3760  0.3655
   65CHL1    H9 7254   5.473   4.283   9.920 -0.0056  0.5350  2.6253
   65CHL1   C10 7255   5.648   4.340  10.024  0.0388  0.1447  0.5232
   65CHL1   C19 7256   5.795   4.389  10.000 -0.4433  0.4102 -0.1783
   65CHL1  H19A 7257   5.806   4.487  10.052 -0.8272 -1.1715  3.2002
   65CHL1  H19B 7258   5.867   4.320  10.048 -1.3542  1.3453  2.8001
   65CHL1  H19C 7259   5.833   4.393   9.896 -0.6246  1.0147 -0.2259
   65CHL1    C1 7260   5.561   4.466  10.090 -0.0292  0.2969  0.6257
   65CHL1   H1A 7261   5.592   4.550  10.024 -3.7772  2.0088  0.7922
   65CHL1   H1B 7262   5.454   4.461  10.061 -0.2417  0.0418  1.4329
   65CHL1    C2 7263   5.577   4.489  10.239  0.0575  0.5692 -0.2801
   65CHL1   H2A 7264   5.514   4.572  10.278  1.0604  0.3997  1.8108
   65CHL1   H2B 7265   5.681   4.519  10.263  0.8227 -1.0919 -1.3501
   65CHL1   C20 7266   5.463   4.242   9.354 -0.2313 -0.0959  0.3937
   65CHL1   H20 7267   5.441   4.350   9.366 -1.0412  0.0966 -2.1173
   65CHL1   C21 7268   5.342   4.170   9.283  0.0386 -0.1633 -0.2727
   65CHL1  H21A 7269   5.372   4.063   9.278  0.8533  0.0816 -0.8396
   65CHL1  H21B 7270   5.316   4.205   9.181  0.5305 -1.1738 -0.7629
   65CHL1  H21C 7271   5.252   4.169   9.348 -0.2897  1.9710 -0.6214
   65CHL1   C22 7272   5.572   4.233   9.245 -0.2374 -0.7126 -0.5200
   65CHL1  H22A 7273   5.668   4.205   9.293 -0.8893 -3.7072 -0.7682
   65CHL1  H22B 7274   5.549   4.142   9.185  1.8166 -0.3885 -1.9093
   65CHL1   C23 7275   5.590   4.360   9.169 -0.0158 -0.3263 -0.0019
   65CHL1  H23A 7276   5.522   4.365   9.082  0.4396 -0.2156 -0.3529
   65CHL1  H23B 7277   5.574   4.453   9.227 -3.3575 -0.3248 -0.7270
   65CHL1   C24 7278   5.738   4.368   9.109  0.2471 -0.1815  0.3291
   65CHL1  H24A 7279   5.803   4.403   9.192 -0.2125 -1.1278  1.0987
   65CHL1  H24B 7280   5.772   4.264   9.089  2.5992  0.3408  1.2634
   65CHL1   C25 7281   5.759   4.466   8.990  0.3667  0.2896  0.6187
   65CHL1   H25 7282   5.680   4.435   8.919  0.2735 -0.9387  1.2274
   65CHL1   C26 7283   5.753   4.608   9.041 -0.4495 -0.0955  0.3359
   65CHL1  H26A 7284   5.655   4.640   9.081  0.6202  3.7324  0.3383
   65CHL1  H26B 7285   5.823   4.617   9.126 -1.7312  1.0801  1.3083
   65CHL1  H26C 7286   5.782   4.683   8.964 -0.1067 -0.7566 -0.1956
   65CHL1   C27 7287   5.895   4.447   8.912 -0.1561 -0.0903  0.1268
   65CHL1  H27A 7288   5.908   4.518   8.827 -1.9715 -0.4738 -0.5043
   65CHL1  H27B 7289   5.977   4.474   8.983  1.0822 -0.2677 -1.1764
   65CHL1  H27C 7290   5.908   4.338   8.895  1.9077  0.2441 -0.8193
   66CHL1    C3 7291   2.189   3.972  11.000 -0.0070  0.7266 -0.4158
   66CHL1    H3 7292   2.230   3.870  11.016 -0.4312  0.6470  0.1827
   66CHL1    O3 7293   2.147   4.023  11.125 -0.3865 -0.0761 -0.4734
   66CHL1   H3' 7294   2.110   3.950  11.175  2.5546 -0.7689  0.9502
   66CHL1    C4 7295   2.300   4.046  10.933 -0.6357 -0.0342  0.1054
   66CHL1   H4A 7296   2.271   4.153  10.926 -0.4628  0.3027  3.1511
   66CHL1   H4B 7297   2.386   4.041  11.003  0.0602  0.2119 -0.7281
   66CHL1    C5 7298   2.340   3.978  10.798  0.0700 -0.5153 -0.3317
   66CHL1    C6 7299   2.461   3.936  10.776 -0.8784  0.4171  0.2783
   66CHL1    H6 7300   2.543   3.961  10.845 -0.2951  1.6973 -0.8229
   66CHL1    C7 7301   2.500   3.868  10.646  0.1120  0.1654 -0.0244
   66CHL1   H7A 7302   2.602   3.895  10.611  0.5815 -0.3417  0.9209
   66CHL1   H7B 7303   2.496   3.762  10.679 -1.0042  1.0327  2.9565
   66CHL1    C8 7304   2.394   3.892  10.534  0.6745 -0.3104 -0.1685
   66CHL1    H8 7305   2.402   3.992  10.486 -1.6618 -0.1229 -0.3072
   66CHL1   C14 7306   2.424   3.789  10.428  0.3673 -0.4422  0.4814
   66CHL1   H14 7307   2.396   3.692  10.475  0.9205 -0.8220  0.0343
   66CHL1   C15 7308   2.567   3.779  10.373 -0.0449 -0.3208  0.3557
   66CHL1  H15A 7309   2.602   3.883  10.354 -0.5308 -0.3205 -0.5828
   66CHL1  H15B 7310   2.644   3.734  10.439  0.6881 -0.6433 -0.6890
   66CHL1   C16 7311   2.557   3.696  10.249  1.0084  0.2978  0.2114
   66CHL1  H16A 7312   2.603   3.741  10.158 -0.1995  1.4064  0.1323
   66CHL1  H16B 7313   2.605   3.596  10.264  1.6197  0.6641  0.7104
   66CHL1   C17 7314   2.401   3.678  10.216 -0.0551 -0.6080 -0.3305
   66CHL1   H17 7315   2.378   3.577  10.256 -1.6470  0.6310  2.0763
   66CHL1   C13 7316   2.327   3.781  10.306  0.2437  0.2863  0.2787
   66CHL1   C18 7317   2.324   3.924  10.244 -0.3745 -0.4518  0.6284
   66CHL1  H18A 7318   2.254   3.944  10.159 -0.0827  0.9092  0.6743
   66CHL1  H18B 7319   2.297   4.003  10.317  0.7414  1.4972 -0.9600
   66CHL1  H18C 7320   2.424   3.964  10.216 -0.4108  1.7544  3.2326
   66CHL1   C12 7321   2.184   3.749  10.356  0.0762  0.7430  0.4296
   66CHL1  H12A 7322   2.106   3.752  10.276 -0.3530 -2.2467  0.6333
   66CHL1  H12B 7323   2.180   3.644  10.394  1.1062 -0.4867 -2.5734
   66CHL1   C11 7324   2.146   3.850  10.471 -0.2836  0.2349 -0.0377
   66CHL1  H11A 7325   2.120   3.952  10.434 -0.3143  1.3348  2.7621
   66CHL1  H11B 7326   2.046   3.812  10.503 -0.9303  0.6595 -1.4605
   66CHL1    C9 7327   2.254   3.865  10.581  0.4754  0.4994  0.0746
   66CHL1    H9 7328   2.252   3.761  10.620  2.1350  0.2942 -0.3463
   66CHL1   C10 7329   2.221   3.952  10.703  0.4620  0.3230 -0.3314
   66CHL1   C19 7330   2.184   4.093  10.650  0.9209 -0.0331  0.4555
   66CHL1  H19A 7331   2.190   4.169  10.731  0.8416 -0.4692  0.8716
   66CHL1  H19B 7332   2.260   4.119  10.572  0.3328 -0.4056 -0.2587
   66CHL1  H19C 7333   2.086   4.083  10.598  1.4746 -0.5169 -0.5281
   66CHL1    C1 7334   2.095   3.894  10.776 -0.0203 -0.0222  0.2357
   66CHL1   H1A 7335   2.001   3.911  10.718 -0.2433  0.7740  0.8211
   66CHL1   H1B 7336   2.101   3.784  10.788 -0.2173  0.0304  0.8414
   66CHL1    C2 7337   2.066   3.951  10.918  1.2052  0.3625  0.5374
   66CHL1   H2A 7338   1.993   3.884  10.968  0.3704  1.9788  1.5800
   66CHL1   H2B 7339   2.015   4.050  10.914 -0.1432 -0.2281  1.8093
   66CHL1   C20 7340   2.361   3.670  10.065 -0.6916  0.1392  0.3993
   66CHL1   H20 7341   2.378   3.773  10.027 -1.2528  0.2354  0.4015
   66CHL1   C21 7342   2.210   3.639  10.041  0.4706  0.0772 -0.0195
   66CHL1  H21A 7343   2.153   3.730  10.068  2.0125  0.8849  0.6124
   66CHL1  H21B 7344   2.173   3.564  10.114  0.4488  0.9863  0.9285
   66CHL1  H21C 7345   2.187   3.593   9.942  1.5480 -3.0506  1.0450
   66CHL1   C22 7346   2.448   3.579   9.968  0.1692  0.6348 -0.3572
   66CHL1  H22A 7347   2.548   3.560  10.012 -0.0485 -1.8070 -0.7844
   66CHL1  H22B 7348   2.402   3.478   9.959  0.7541  0.0417  2.5043
   66CHL1   C23 7349   2.469   3.647   9.831  0.5456 -0.6109 -0.8932
   66CHL1  H23A 7350   2.374   3.700   9.811  1.2861  1.6039  1.0192
   66CHL1  H23B 7351   2.552   3.720   9.845  0.6405 -0.9368  0.3213
   66CHL1   C24 7352   2.525   3.561   9.721  0.9129 -0.2379  0.3739
   66CHL1  H24A 7353   2.636   3.561   9.723  0.9158 -0.1686  0.1849
   66CHL1  H24B 7354   2.494   3.455   9.737  1.1518 -0.3289  0.2544
   66CHL1   C25 7355   2.482   3.613   9.577  0.2499  0.4330  0.8116
   66CHL1   H25 7356   2.502   3.722   9.564  0.4927  0.4130  1.0245
   66CHL1   C26 7357   2.566   3.527   9.470  0.9415  0.0515 -0.0813
   66CHL1  H26A 7358   2.536   3.421   9.484  1.1445 -0.0057 -0.0773
   66CHL1  H26B 7359   2.541   3.555   9.365  0.1020 -0.7846 -0.1187
   66CHL1  H26C 7360   2.674   3.532   9.498  0.8394 -1.8807  0.8257
   66CHL1   C27 7361   2.332   3.599   9.563  0.5252 -0.2819 -0.0850
   66CHL1  H27A 7362   2.291   3.500   9.594 -1.1484  0.9777  2.0516
   66CHL1  H27B 7363   2.268   3.670   9.619  0.9531  0.0829 -0.0566
   66CHL1  H27C 7364   2.300   3.613   9.458  1.1416  3.9779  0.1443
   67CHL1    C3 7365   1.289   4.248  10.334 -0.2431  0.2556  0.3014
   67CHL1    H3 7366   1.277   4.358  10.323  0.9875  0.4095  0.4568
   67CHL1    O3 7367   1.271   4.215  10.474  0.1515 -0.4472  0.2789
   67CHL1   H3' 7368   1.302   4.125  10.478  1.5674  0.0465  1.5918
   67CHL1    C4 7369   1.188   4.163  10.251  0.6725 -0.4988  0.0545
   67CHL1   H4A 7370   1.212   4.057  10.273 -1.8062 -1.0205  0.5676
   67CHL1   H4B 7371   1.090   4.191  10.296  1.5072 -2.0533  3.1116
   67CHL1    C5 7372   1.210   4.184  10.100 -0.2379  0.4633  0.0192
   67CHL1    C6 7373   1.113   4.222  10.014 -0.4834  0.2910 -0.3441
   67CHL1    H6 7374   1.010   4.237  10.049 -0.7828 -2.9897  0.5105
   67CHL1    C7 7375   1.128   4.226   9.866  0.0573 -0.0672 -0.8767
   67CHL1   H7A 7376   1.032   4.192   9.820 -1.2043  0.5322  1.1914
   67CHL1   H7B 7377   1.141   4.330   9.827  1.0687 -0.1971 -0.9076
   67CHL1    C8 7378   1.261   4.169   9.808 -0.3490 -0.2937  0.1312
   67CHL1    H8 7379   1.247   4.059   9.803 -0.1616 -0.2574 -1.6619
   67CHL1   C14 7380   1.290   4.209   9.668  0.7170 -1.4077 -0.4341
   67CHL1   H14 7381   1.309   4.318   9.665  0.4505 -1.3864 -2.2320
   67CHL1   C15 7382   1.173   4.194   9.570 -0.1287  0.3175  0.6735
   67CHL1  H15A 7383   1.125   4.095   9.575  0.1373  0.2090  1.1552
   67CHL1  H15B 7384   1.107   4.284   9.575 -1.7779 -0.8217  0.0109
   67CHL1   C16 7385   1.249   4.197   9.432  0.5343  0.1897  0.1002
   67CHL1  H16A 7386   1.227   4.100   9.382 -0.5158  1.1725 -1.4125
   67CHL1  H16B 7387   1.202   4.274   9.368 -0.9137  0.6942  1.6743
   67CHL1   C17 7388   1.404   4.193   9.462 -0.0728 -0.1312 -0.1035
   67CHL1   H17 7389   1.445   4.295   9.476  2.3605 -0.9493 -0.8896
   67CHL1   C13 7390   1.417   4.142   9.604 -0.3857  0.7338 -0.4729
   67CHL1   C18 7391   1.416   3.980   9.596  0.5399  0.8866  0.0382
   67CHL1  H18A 7392   1.349   3.937   9.519 -0.8067  0.6015  1.3200
   67CHL1  H18B 7393   1.523   3.952   9.582  0.0355 -0.4591 -1.2910
   67CHL1  H18C 7394   1.382   3.939   9.693 -1.1232  1.6645 -0.1852
   67CHL1   C12 7395   1.537   4.188   9.698  0.3520 -0.4420 -0.5871
   67CHL1  H12A 7396   1.632   4.145   9.662  0.9837  0.6287 -0.2539
   67CHL1  H12B 7397   1.552   4.298   9.697  1.8173 -0.6097  0.0421
   67CHL1   C11 7398   1.509   4.148   9.843  0.6299  0.0639 -0.0347
   67CHL1  H11A 7399   1.503   4.037   9.850 -2.4790  0.2451  2.1877
   67CHL1  H11B 7400   1.584   4.181   9.918 -0.5351 -0.1082  1.2425
   67CHL1    C9 7401   1.375   4.197   9.901  0.0237 -0.4208 -0.5712
   67CHL1    H9 7402   1.377   4.308   9.904 -0.0369 -0.2950 -3.1767
   67CHL1   C10 7403   1.352   4.159  10.056 -0.5086  0.2571  0.5468
   67CHL1   C19 7404   1.369   4.008  10.071 -0.4498 -0.1758  0.6440
   67CHL1  H19A 7405   1.286   3.950  10.026 -0.2223 -1.7035  2.0990
   67CHL1  H19B 7406   1.470   3.983  10.032  0.0455  0.9442  1.1649
   67CHL1  H19C 7407   1.374   3.970  10.176 -0.1718  0.6520  0.9392
   67CHL1    C1 7408   1.458   4.234  10.147  0.6097 -0.1671 -0.2255
   67CHL1   H1A 7409   1.557   4.185  10.132 -0.1139 -1.3923 -1.2348
   67CHL1   H1B 7410   1.460   4.344  10.133 -1.1520  0.1293  1.4301
   67CHL1    C2 7411   1.435   4.204  10.295  0.1896  0.1282  0.3822
   67CHL1   H2A 7412   1.506   4.258  10.361  3.1753  0.7618 -3.0155
   67CHL1   H2B 7413   1.463   4.100  10.320  2.1858  0.2866 -0.9547
   67CHL1   C20 7414   1.491   4.138   9.346  0.0253 -0.2387  0.0224
   67CHL1   H20 7415   1.480   4.028   9.340 -0.4229 -0.1405 -1.7203
   67CHL1   C21 7416   1.642   4.164   9.368 -0.1155 -0.5269  0.1358
   67CHL1  H21A 7417   1.675   4.260   9.322 -0.4879 -0.7848 -0.6894
   67CHL1  H21B 7418   1.713   4.089   9.326 -1.4284 -1.7768  0.1000
   67CHL1  H21C 7419   1.666   4.174   9.476  1.6924  0.5510 -0.3236
   67CHL1   C22 7420   1.438   4.186   9.207 -0.4652 -0.4251  0.0088
   67CHL1  H22A 7421   1.331   4.172   9.183 -0.5404 -0.2912  0.2708
   67CHL1  H22B 7422   1.454   4.295   9.203  0.2946 -0.3921  2.3631
   67CHL1   C23 7423   1.523   4.128   9.087  0.2206 -0.1402 -0.0455
   67CHL1  H23A 7424   1.496   4.182   8.994 -1.0638 -2.5001 -1.1305
   67CHL1  H23B 7425   1.631   4.151   9.099 -0.4251  3.6001 -0.2700
   67CHL1   C24 7426   1.492   3.981   9.077 -0.5852 -0.2625  0.0068
   67CHL1  H24A 7427   1.538   3.922   9.160  2.0528  1.0311 -0.4153
   67CHL1  H24B 7428   1.384   3.955   9.071 -0.5061 -0.2347 -2.3835
   67CHL1   C25 7429   1.556   3.901   8.954  0.0412 -0.5355  0.3506
   67CHL1   H25 7430   1.666   3.913   8.959 -0.1329  1.3335  0.4336
   67CHL1   C26 7431   1.517   3.749   8.951 -0.0256 -0.2449  0.5166
   67CHL1  H26A 7432   1.407   3.740   8.959 -0.0872  0.4550  0.5695
   67CHL1  H26B 7433   1.560   3.714   8.855  1.9960  1.5598  0.6875
   67CHL1  H26C 7434   1.556   3.696   9.040  0.7229 -2.2561 -0.9401
   67CHL1   C27 7435   1.511   3.970   8.826  0.0082  0.3707 -0.1003
   67CHL1  H27A 7436   1.408   3.941   8.794 -0.2888 -1.8516  2.5119
   67CHL1  H27B 7437   1.537   4.078   8.824 -0.1696  0.4671  1.4767
   67CHL1  H27C 7438   1.584   3.930   8.752 -1.2255 -1.0404 -0.5987
   68CHL1    C3 7439   5.944   3.580  10.462  1.0982 -0.1357  0.3332
   68CHL1    H3 7440   5.962   3.687  10.442  2.0055 -0.1697  0.9030
   68CHL1    O3 7441   5.919   3.568  10.600  0.5152  0.0142  0.5067
   68CHL1   H3' 7442   5.898   3.475  10.613  2.6684 -0.8079 -1.2593
   68CHL1    C4 7443   5.819   3.531  10.385 -0.2854 -0.5732  0.4402
   68CHL1   H4A 7444   5.790   3.428  10.414  1.8570 -1.5723 -0.7266
   68CHL1   H4B 7445   5.742   3.599  10.427 -0.1369  0.0423 -0.2668
   68CHL1    C5 7446   5.832   3.557  10.235  0.1253 -0.0345  0.2015
   68CHL1    C6 7447   5.741   3.634  10.169  0.4873 -0.1756 -0.1031
   68CHL1    H6 7448   5.656   3.682  10.219 -1.6439 -0.1274 -3.4200
   68CHL1    C7 7449   5.746   3.654  10.020 -0.3416 -0.5924 -0.7612
   68CHL1   H7A 7450   5.641   3.655   9.984 -0.7288  1.4881  0.3135
   68CHL1   H7B 7451   5.796   3.752  10.005  0.2683 -0.7854 -0.0408
   68CHL1    C8 7452   5.852   3.563   9.953  0.0618 -0.3326  0.5371
   68CHL1    H8 7453   5.796   3.469   9.939  0.6750 -0.5882 -0.3050
   68CHL1   C14 7454   5.893   3.624   9.821 -0.0068 -0.0801 -0.4506
   68CHL1   H14 7455   5.944   3.720   9.844 -0.0233  0.0135 -0.7902
   68CHL1   C15 7456   5.779   3.677   9.736 -0.4177  0.1971  0.1816
   68CHL1  H15A 7457   5.700   3.598   9.731 -0.2559  0.0787 -0.6348
   68CHL1  H15B 7458   5.736   3.768   9.782 -0.5957 -0.4413  1.2952
   68CHL1   C16 7459   5.852   3.699   9.599  0.3717  0.3969  0.0800
   68CHL1  H16A 7460   5.806   3.637   9.519 -0.2802 -0.6195  1.2012
   68CHL1  H16B 7461   5.862   3.803   9.564  1.6265 -0.3318 -1.8710
   68CHL1   C17 7462   5.992   3.643   9.617 -0.0787 -0.4110  0.3038
   68CHL1   H17 7463   6.051   3.726   9.661 -0.1027  0.4547 -1.2412
   68CHL1   C13 7464   5.986   3.545   9.730  0.0665  0.3853 -0.2473
   68CHL1   C18 7465   5.918   3.416   9.688  0.6394  0.2783 -0.3085
   68CHL1  H18A 7466   5.830   3.437   9.623  0.9156  0.1011 -0.7448
   68CHL1  H18B 7467   5.981   3.356   9.619 -0.5763 -1.7703  0.2747
   68CHL1  H18C 7468   5.885   3.346   9.769 -0.5405 -0.7542 -1.6241
   68CHL1   C12 7469   6.118   3.529   9.805 -0.1570  0.9042 -0.4353
   68CHL1  H12A 7470   6.187   3.466   9.745 -0.9096  1.0997 -1.5360
   68CHL1  H12B 7471   6.172   3.620   9.839  1.0995 -0.7196  2.2277
   68CHL1   C11 7472   6.084   3.460   9.940 -0.1330  0.2960 -0.8568
   68CHL1  H11A 7473   6.046   3.360   9.908  0.5808  0.2159 -1.5029
   68CHL1  H11B 7474   6.178   3.427   9.989 -0.7984  1.5269  1.3846
   68CHL1    C9 7475   5.978   3.533  10.030 -0.2522 -0.2441  0.0925
   68CHL1    H9 7476   6.017   3.636  10.048 -1.1846  0.0606  0.4065
   68CHL1   C10 7477   5.953   3.477  10.172 -0.0517  0.0295 -0.6224
   68CHL1   C19 7478   5.911   3.325  10.175  0.7089  0.7220 -0.4484
   68CHL1  H19A 7479   6.004   3.274  10.139 -0.4310 -3.1814  1.5153
   68CHL1  H19B 7480   5.880   3.287  10.275 -0.9235  0.7600 -0.9146
   68CHL1  H19C 7481   5.835   3.302  10.097  1.2286  0.9996 -1.0470
   68CHL1    C1 7482   6.077   3.497  10.256  0.5836 -0.3147 -0.5985
   68CHL1   H1A 7483   6.147   3.418  10.224  0.1953 -2.0399  2.4266
   68CHL1   H1B 7484   6.129   3.590  10.224  1.1094  0.4114  2.0868
   68CHL1    C2 7485   6.063   3.500  10.414 -0.0309 -0.6559 -0.7265
   68CHL1   H2A 7486   6.154   3.522  10.473 -1.6257  1.5951  1.0886
   68CHL1   H2B 7487   6.042   3.392  10.431 -4.4672 -0.1023 -1.4944
   68CHL1   C20 7488   6.066   3.598   9.489 -0.0452  0.9789  0.3256
   68CHL1   H20 7489   6.137   3.518   9.521 -0.5725  0.0781 -0.6872
   68CHL1   C21 7490   6.151   3.716   9.444  0.2281  0.1305 -0.6660
   68CHL1  H21A 7491   6.215   3.700   9.355 -2.0935  1.7818 -2.7955
   68CHL1  H21B 7492   6.214   3.738   9.533  0.7630 -1.0852 -0.7241
   68CHL1  H21C 7493   6.091   3.807   9.423  0.0941 -0.0422 -1.0340
   68CHL1   C22 7494   5.987   3.543   9.373  0.5675  0.2569  0.2930
   68CHL1  H22A 7495   5.917   3.459   9.392 -1.9290  1.8352 -1.3587
   68CHL1  H22B 7496   5.933   3.624   9.320  0.3871  0.7169  1.1640
   68CHL1   C23 7497   6.078   3.483   9.263 -0.5022 -0.3403  0.3919
   68CHL1  H23A 7498   6.136   3.569   9.222 -0.3007 -0.5036  0.3347
   68CHL1  H23B 7499   6.157   3.415   9.301  0.6601  0.2026 -0.9427
   68CHL1   C24 7500   5.999   3.417   9.145 -0.0497 -0.5963 -0.4742
   68CHL1  H24A 7501   5.914   3.357   9.184 -3.4776  4.0357 -0.0300
   68CHL1  H24B 7502   5.944   3.500   9.096 -3.1859 -1.2975  1.6282
   68CHL1   C25 7503   6.095   3.343   9.045  0.2425 -0.8129  0.1792
   68CHL1   H25 7504   6.175   3.294   9.105  1.0827 -0.9841 -1.0393
   68CHL1   C26 7505   6.012   3.246   8.963  0.0290  0.2486 -0.7364
   68CHL1  H26A 7506   6.076   3.179   8.902 -0.7493 -1.6400  0.4343
   68CHL1  H26B 7507   5.953   3.174   9.024 -1.4487  0.7033 -1.5847
   68CHL1  H26C 7508   5.951   3.300   8.888 -0.7104 -0.2155 -0.4797
   68CHL1   C27 7509   6.159   3.455   8.961  0.2064  0.2776 -0.0184
   68CHL1  H27A 7510   6.075   3.514   8.917 -0.2397  0.1320  0.6193
   68CHL1  H27B 7511   6.225   3.522   9.020  0.3210  0.1017  0.0522
   68CHL1  H27C 7512   6.219   3.411   8.879  1.5950 -0.4270  1.3282
   69CHL1    C3 7513   5.082   1.231   6.857  0.1864 -0.5091  0.4309
   69CHL1    H3 7514   4.971   1.230   6.859  0.1144  0.3186 -1.3829
   69CHL1    O3 7515   5.113   1.257   6.718 -0.3291 -0.1726 -0.5260
   69CHL1   H3' 7516   5.075   1.345   6.707  1.3496  0.4890 -1.3569
   69CHL1    C4 7517   5.138   1.342   6.943 -0.6312  0.4552  0.5639
   69CHL1   H4A 7518   5.240   1.377   6.919 -1.6145  1.7316 -2.1599
   69CHL1   H4B 7519   5.082   1.438   6.934  0.0929  1.1683  2.7726
   69CHL1    C5 7520   5.133   1.308   7.086  0.6634 -0.6286 -0.2456
   69CHL1    C6 7521   5.062   1.389   7.173 -0.0282 -0.0180 -0.1924
   69CHL1    H6 7522   5.012   1.481   7.138 -2.4988 -0.9928  0.5693
   69CHL1    C7 7523   5.044   1.361   7.320  0.5711  0.0056 -0.1432
   69CHL1   H7A 7524   5.046   1.455   7.379  0.6682 -0.3354  0.3960
   69CHL1   H7B 7525   4.941   1.320   7.330  0.0581  1.4004  0.5650
   69CHL1    C8 7526   5.149   1.265   7.369 -0.7963  0.4255  0.0875
   69CHL1    H8 7527   5.251   1.309   7.370  0.2526 -1.8179 -0.5407
   69CHL1   C14 7528   5.103   1.211   7.503 -0.1677  0.4248  0.5545
   69CHL1   H14 7529   5.018   1.145   7.476  1.1364 -0.9246 -0.4067
   69CHL1   C15 7530   5.048   1.318   7.592  0.4352 -0.1640  0.0918
   69CHL1  H15A 7531   5.090   1.421   7.592  0.0725  0.0087 -1.4564
   69CHL1  H15B 7532   4.943   1.344   7.564  0.3099 -1.0424 -0.2678
   69CHL1   C16 7533   5.054   1.259   7.731  0.1059 -0.2448 -0.3500
   69CHL1  H16A 7534   5.120   1.315   7.800 -1.0739  0.3929  0.3042
   69CHL1  H16B 7535   4.949   1.257   7.768  0.3612  1.0847  0.5242
   69CHL1   C17 7536   5.121   1.121   7.712  0.2510 -0.1872 -0.2036
   69CHL1   H17 7537   5.036   1.050   7.696 -0.3686  0.7370 -1.1326
   69CHL1   C13 7538   5.201   1.128   7.581  0.5926  0.2707 -0.6325
   69CHL1   C18 7539   5.338   1.190   7.595  0.4394 -0.5370 -1.0209
   69CHL1  H18A 7540   5.403   1.114   7.644 -0.4063 -1.3965 -1.2159
   69CHL1  H18B 7541   5.388   1.216   7.499  0.9938 -0.0695 -0.6133
   69CHL1  H18C 7542   5.341   1.277   7.664  0.4396 -1.9304  0.8062
   69CHL1   C12 7543   5.220   0.994   7.501 -0.6204  0.5639  0.6409
   69CHL1  H12A 7544   5.308   0.939   7.541 -2.8897 -3.3483  0.7828
   69CHL1  H12B 7545   5.135   0.924   7.517  1.7248 -3.4345 -2.4142
   69CHL1   C11 7546   5.251   1.021   7.350 -0.5323  0.2489  0.2506
   69CHL1  H11A 7547   5.357   1.054   7.345  0.2711 -1.8351  2.2254
   69CHL1  H11B 7548   5.250   0.926   7.293  3.9560  0.0478  0.1136
   69CHL1    C9 7549   5.161   1.136   7.280  0.2416 -0.1434  0.4728
   69CHL1    H9 7550   5.058   1.095   7.273 -0.2509  1.2056 -0.4237
   69CHL1   C10 7551   5.191   1.170   7.135  0.9706  0.2038  0.1630
   69CHL1   C19 7552   5.346   1.191   7.111 -0.5064  0.3171 -0.4163
   69CHL1  H19A 7553   5.375   1.270   7.184  0.2528 -2.7038  2.8480
   69CHL1  H19B 7554   5.398   1.099   7.145 -1.1967  0.5494  1.4335
   69CHL1  H19C 7555   5.377   1.230   7.012  0.1927 -1.9679 -1.1526
   69CHL1    C1 7556   5.143   1.062   7.045  1.0727 -0.1094  0.0239
   69CHL1   H1A 7557   5.196   0.965   7.060 -1.0849 -1.1942  1.0889
   69CHL1   H1B 7558   5.042   1.027   7.076  1.6656 -1.1953  0.8071
   69CHL1    C2 7559   5.145   1.096   6.897 -0.1298  0.1574  0.3905
   69CHL1   H2A 7560   5.102   1.013   6.838  0.9103 -0.4389  0.4460
   69CHL1   H2B 7561   5.255   1.107   6.881  0.1760  0.7301  2.5983
   69CHL1   C20 7562   5.198   1.074   7.837 -0.0962  0.4467 -0.5678
   69CHL1   H20 7563   5.299   1.122   7.839  0.1667 -0.1202 -0.0319
   69CHL1   C21 7564   5.227   0.920   7.837  0.1242 -0.1760 -0.0384
   69CHL1  H21A 7565   5.139   0.868   7.880  1.1163 -1.1332  0.9030
   69CHL1  H21B 7566   5.322   0.896   7.889 -0.8654 -0.9041  1.5180
   69CHL1  H21C 7567   5.245   0.884   7.734  2.5711  3.1578 -0.9531
   69CHL1   C22 7568   5.136   1.112   7.976  0.5309 -0.3940  0.1186
   69CHL1  H22A 7569   5.170   1.217   7.987 -0.7237  0.0266  0.2455
   69CHL1  H22B 7570   5.025   1.106   7.970  0.2099  3.9761 -1.9474
   69CHL1   C23 7571   5.189   1.043   8.101  0.1895 -0.2343  0.0595
   69CHL1  H23A 7572   5.164   0.935   8.093 -0.2121 -0.0450 -1.7649
   69CHL1  H23B 7573   5.300   1.052   8.105  0.3692 -2.0644  0.0292
   69CHL1   C24 7574   5.136   1.105   8.232  0.2721  0.2103  0.0130
   69CHL1  H24A 7575   5.155   1.214   8.229  1.7168  0.0694  2.3939
   69CHL1  H24B 7576   5.028   1.081   8.245  0.6373 -0.3980  2.2617
   69CHL1   C25 7577   5.226   1.061   8.349  0.4627  0.8887  0.3522
   69CHL1   H25 7578   5.329   1.084   8.314  0.5288 -0.7552 -0.6519
   69CHL1   C26 7579   5.196   1.150   8.472 -0.4049 -0.3575  0.4973
   69CHL1  H26A 7580   5.091   1.142   8.509 -1.5635 -2.6636 -2.8354
   69CHL1  H26B 7581   5.278   1.124   8.542 -1.5055 -3.4293  0.8389
   69CHL1  H26C 7582   5.214   1.257   8.450  0.9409 -0.6544  0.0834
   69CHL1   C27 7583   5.210   0.909   8.376  0.5516  0.3473  0.0092
   69CHL1  H27A 7584   5.265   0.881   8.469 -1.5028  1.2819  1.5950
   69CHL1  H27B 7585   5.103   0.882   8.385  1.0884 -2.1345 -0.3551
   69CHL1  H27C 7586   5.246   0.847   8.292  0.3840  0.9639 -0.5260
   70CHL1    C3 7587   5.529   4.609   7.315 -0.3295  0.2956 -0.0635
   70CHL1    H3 7588   5.421   4.637   7.315 -0.3368  0.6658 -3.3005
   70CHL1    O3 7589   5.571   4.650   7.183  0.2173 -0.1035 -0.2171
   70CHL1   H3' 7590   5.667   4.648   7.189  0.3490 -0.3240 -1.8590
   70CHL1    C4 7591   5.601   4.677   7.421 -1.0814 -0.0934  0.4002
   70CHL1   H4A 7592   5.709   4.657   7.406 -1.2152 -0.1940 -0.4794
   70CHL1   H4B 7593   5.590   4.787   7.405  2.5546  0.4048  0.6566
   70CHL1    C5 7594   5.567   4.636   7.564 -0.3650 -0.2142 -0.2390
   70CHL1    C6 7595   5.515   4.725   7.654 -0.3902  0.3731  0.2046
   70CHL1    H6 7596   5.493   4.828   7.620  0.2750  0.6721  0.6588
   70CHL1    C7 7597   5.465   4.682   7.790 -0.0493  0.6059  1.1246
   70CHL1   H7A 7598   5.498   4.770   7.849 -0.4047  2.4451 -1.2427
   70CHL1   H7B 7599   5.355   4.671   7.793  0.0264 -2.4685 -1.5255
   70CHL1    C8 7600   5.527   4.547   7.832 -0.0913  0.1874  0.5351
   70CHL1    H8 7601   5.634   4.563   7.859 -0.4503  3.0772  0.5197
   70CHL1   C14 7602   5.450   4.497   7.952 -0.2491  0.4802 -0.5459
   70CHL1   H14 7603   5.350   4.476   7.908  0.1987 -0.6300 -1.0668
   70CHL1   C15 7604   5.424   4.589   8.074 -0.2199 -0.5815 -0.2756
   70CHL1  H15A 7605   5.512   4.652   8.098 -0.0727 -0.8760 -0.0368
   70CHL1  H15B 7606   5.347   4.668   8.060  1.7670  1.3964 -0.7420
   70CHL1   C16 7607   5.403   4.490   8.188  0.3975 -0.3872 -0.0120
   70CHL1  H16A 7608   5.477   4.505   8.269  0.2238 -2.2651  0.5354
   70CHL1  H16B 7609   5.305   4.517   8.233  1.2544 -0.5890  2.1219
   70CHL1   C17 7610   5.407   4.347   8.121  0.0258  0.6922 -0.1987
   70CHL1   H17 7611   5.307   4.334   8.074 -0.1120 -1.8232  0.6564
   70CHL1   C13 7612   5.504   4.364   8.000 -0.0087  0.0653  0.4031
   70CHL1   C18 7613   5.649   4.381   8.059 -0.6340  0.3224  0.2710
   70CHL1  H18A 7614   5.686   4.281   8.090  0.6585  0.8532  0.5093
   70CHL1  H18B 7615   5.713   4.402   7.971  0.7276 -0.3238  1.0665
   70CHL1  H18C 7616   5.669   4.456   8.138  1.4635  0.2532 -0.1286
   70CHL1   C12 7617   5.486   4.263   7.888  0.0896  0.2527 -0.1451
   70CHL1  H12A 7618   5.517   4.160   7.918 -1.9912 -1.1811 -2.4426
   70CHL1  H12B 7619   5.378   4.257   7.859  0.2075  1.0294 -0.7790
   70CHL1   C11 7620   5.579   4.300   7.770  0.3002 -0.3289  0.2531
   70CHL1  H11A 7621   5.684   4.306   7.805  1.6711 -1.3253 -3.3016
   70CHL1  H11B 7622   5.563   4.235   7.682  1.1386 -0.7444  0.3960
   70CHL1    C9 7623   5.526   4.437   7.723 -0.1000 -0.4273  0.6242
   70CHL1    H9 7624   5.417   4.423   7.707  0.0899 -3.1756  1.2221
   70CHL1   C10 7625   5.581   4.480   7.587 -0.1748  0.2295  0.3639
   70CHL1   C19 7626   5.728   4.448   7.579 -1.0984 -0.5865  0.6167
   70CHL1  H19A 7627   5.786   4.516   7.645 -0.7235 -0.2740 -0.0272
   70CHL1  H19B 7628   5.754   4.341   7.592  1.4694  0.0481  1.1743
   70CHL1  H19C 7629   5.771   4.474   7.480  0.6735 -0.7394  1.3185
   70CHL1    C1 7630   5.502   4.418   7.470  0.1456  0.2094 -0.5043
   70CHL1   H1A 7631   5.506   4.307   7.472  4.9273  0.1201 -1.5804
   70CHL1   H1B 7632   5.397   4.446   7.489  0.4325 -0.6577  2.9049
   70CHL1    C2 7633   5.546   4.455   7.324  0.6895  0.0193 -0.3836
   70CHL1   H2A 7634   5.496   4.407   7.237  0.6849 -2.2730  0.8009
   70CHL1   H2B 7635   5.651   4.423   7.310  0.6904 -0.1572  0.0068
   70CHL1   C20 7636   5.427   4.230   8.218 -0.7939 -0.2960 -0.7640
   70CHL1   H20 7637   5.460   4.135   8.170 -0.7456 -0.2484 -0.8242
   70CHL1   C21 7638   5.291   4.201   8.266  0.1433 -0.7855 -1.3843
   70CHL1  H21A 7639   5.292   4.141   8.360 -1.5767  2.1254  0.6714
   70CHL1  H21B 7640   5.235   4.149   8.186 -1.7395 -2.4516  0.8613
   70CHL1  H21C 7641   5.224   4.287   8.288  0.2031 -0.9937 -0.3194
   70CHL1   C22 7642   5.524   4.245   8.342  0.0543 -0.1914  0.2007
   70CHL1  H22A 7643   5.608   4.310   8.309  1.1400 -1.3506  0.6056
   70CHL1  H22B 7644   5.463   4.295   8.419  3.3140  0.5483  2.5108
   70CHL1   C23 7645   5.576   4.114   8.410 -0.2792 -0.0019 -0.4128
   70CHL1  H23A 7646   5.495   4.038   8.421 -0.3265  0.2191  0.9992
   70CHL1  H23B 7647   5.658   4.073   8.348 -0.1793 -1.0657  0.4057
   70CHL1   C24 7648   5.629   4.139   8.552  0.0987 -0.1071 -0.6846
   70CHL1  H24A 7649   5.711   4.214   8.560 -0.0768 -0.0603  1.1684
   70CHL1  H24B 7650   5.541   4.178   8.608  0.1361 -0.7400 -0.1764
   70CHL1   C25 7651   5.666   4.012   8.630 -0.1498 -0.3651  0.2876
   70CHL1   H25 7652   5.572   3.953   8.637  0.5403 -1.4618  0.7670
   70CHL1   C26 7653   5.786   3.940   8.568  0.2359  0.0678 -0.3827
   70CHL1  H26A 7654   5.757   3.904   8.467 -1.7828  2.3631 -0.7320
   70CHL1  H26B 7655   5.871   4.009   8.549 -2.3233  3.6411 -0.0276
   70CHL1  H26C 7656   5.822   3.860   8.636  1.6979  2.1486  1.4055
   70CHL1   C27 7657   5.713   4.044   8.773  0.0270 -0.0679 -0.1342
   70CHL1  H27A 7658   5.730   3.953   8.833  0.6255  0.2531  0.1855
   70CHL1  H27B 7659   5.809   4.098   8.780  0.4809 -0.9490  0.5684
   70CHL1  H27C 7660   5.638   4.107   8.826 -0.6636 -2.3522  1.7449
   71CHL1    C3 7661   4.635   0.242   7.051  0.3998 -0.2720 -0.4777
   71CHL1    H3 7662   4.549   0.173   7.058 -2.2130  2.9009  3.1574
   71CHL1    O3 7663   4.651   0.283   6.916  0.2642 -0.0104 -0.8975
   71CHL1   H3' 7664   4.745   0.294   6.903  0.7544  1.1126  2.7668
   71CHL1    C4 7665   4.595   0.363   7.142  0.0732  0.1736  0.1760
   71CHL1   H4A 7666   4.680   0.432   7.128  0.1093  0.1667  0.3694
   71CHL1   H4B 7667   4.505   0.414   7.101  1.9537  1.9097 -2.0361
   71CHL1    C5 7668   4.578   0.327   7.292 -0.2354 -0.8490  0.2027
   71CHL1    C6 7669   4.473   0.357   7.373 -0.8016  0.0756  0.3717
   71CHL1    H6 7670   4.389   0.408   7.324 -1.0094 -1.5760 -1.1047
   71CHL1    C7 7671   4.462   0.333   7.526 -0.1416  1.1455 -0.0254
   71CHL1   H7A 7672   4.435   0.427   7.578  1.0976  0.1048  2.6480
   71CHL1   H7B 7673   4.381   0.261   7.547 -2.2296  3.0605 -0.9694
   71CHL1    C8 7674   4.595   0.284   7.585 -0.0706 -0.0087  0.7136
   71CHL1    H8 7675   4.660   0.374   7.593 -1.7625  1.1831  1.9236
   71CHL1   C14 7676   4.574   0.223   7.723  0.3573  0.0129 -0.9196
   71CHL1   H14 7677   4.511   0.131   7.720 -1.1099  0.8349  1.3191
   71CHL1   C15 7678   4.500   0.317   7.829  0.1167  0.1153 -0.4624
   71CHL1  H15A 7679   4.536   0.419   7.805 -1.6117  2.0497  3.9522
   71CHL1  H15B 7680   4.389   0.313   7.828  0.1550 -1.0568 -1.2879
   71CHL1   C16 7681   4.562   0.270   7.966  0.5657 -0.3569  0.2082
   71CHL1  H16A 7682   4.617   0.359   8.004 -1.7518  2.4255 -2.4455
   71CHL1  H16B 7683   4.482   0.240   8.037 -0.7271 -0.7506 -1.3597
   71CHL1   C17 7684   4.652   0.146   7.936  0.1030 -0.0945 -0.3164
   71CHL1   H17 7685   4.589   0.055   7.925 -0.7251  0.4866 -0.5198
   71CHL1   C13 7686   4.707   0.180   7.793 -0.4986 -1.2766 -0.1479
   71CHL1   C18 7687   4.812   0.295   7.793 -0.4609  0.6908  0.2822
   71CHL1  H18A 7688   4.852   0.304   7.690 -0.7584  1.0486  0.1942
   71CHL1  H18B 7689   4.770   0.388   7.837 -2.2501 -0.5039  1.2489
   71CHL1  H18C 7690   4.897   0.262   7.856 -2.4691  1.1522  3.4997
   71CHL1   C12 7691   4.753   0.055   7.708  0.3807  0.3537 -0.4408
   71CHL1  H12A 7692   4.849   0.018   7.750 -1.1803 -3.0512  0.4372
   71CHL1  H12B 7693   4.681  -0.029   7.706 -1.0027  1.4710 -2.8453
   71CHL1   C11 7694   4.769   0.092   7.563  0.2197 -0.3214  0.2828
   71CHL1  H11A 7695   4.868   0.142   7.551  1.3506 -2.6688 -0.8689
   71CHL1  H11B 7696   4.779   0.001   7.500 -0.7133 -1.4486  1.7264
   71CHL1    C9 7697   4.656   0.180   7.495 -0.3637  0.6180  0.1189
   71CHL1    H9 7698   4.574   0.106   7.480 -0.5909  1.2231 -1.9075
   71CHL1   C10 7699   4.694   0.241   7.353 -0.5119 -0.6910  0.1274
   71CHL1   C19 7700   4.816   0.344   7.370 -0.0095  0.2866 -0.0291
   71CHL1  H19A 7701   4.785   0.437   7.421  2.1684  0.8632  0.3163
   71CHL1  H19B 7702   4.909   0.300   7.413  0.8738  2.6487  0.6257
   71CHL1  H19C 7703   4.840   0.373   7.265  1.1392 -0.2227  0.0801
   71CHL1    C1 7704   4.743   0.140   7.250  0.5281  0.1969 -0.2860
   71CHL1   H1A 7705   4.839   0.092   7.282  0.0184 -0.7897 -0.1895
   71CHL1   H1B 7706   4.669   0.057   7.252  0.8744 -0.2026 -2.0987
   71CHL1    C2 7707   4.756   0.178   7.101  0.7839 -0.8668  0.4363
   71CHL1   H2A 7708   4.773   0.088   7.038 -1.7482 -0.0086 -1.6354
   71CHL1   H2B 7709   4.841   0.248   7.083 -0.6001  0.2011 -2.5925
   71CHL1   C20 7710   4.745   0.109   8.050 -0.3213  0.8279  0.0070
   71CHL1   H20 7711   4.811   0.197   8.069 -0.1115  0.6663  0.0387
   71CHL1   C21 7712   4.848  -0.008   8.008 -1.0129  0.5304  0.0122
   71CHL1  H21A 7713   4.908  -0.018   8.101 -2.9680 -0.5559  1.2219
   71CHL1  H21B 7714   4.911   0.025   7.922  0.7964 -2.6785 -0.0466
   71CHL1  H21C 7715   4.798  -0.106   7.993  1.6712 -0.7396 -1.4654
   71CHL1   C22 7716   4.676   0.067   8.182 -0.0024 -0.0652  0.1479
   71CHL1  H22A 7717   4.753   0.050   8.260 -1.3448  3.7272  2.5907
   71CHL1  H22B 7718   4.617   0.153   8.219  0.3409 -0.3120  1.3079
   71CHL1   C23 7719   4.585  -0.050   8.181 -0.0402 -0.1481 -0.3748
   71CHL1  H23A 7720   4.509  -0.025   8.105 -0.3809 -1.8063 -0.6211
   71CHL1  H23B 7721   4.636  -0.137   8.135  1.8312  0.5391  0.2867
   71CHL1   C24 7722   4.508  -0.078   8.316 -0.2900 -0.1238 -0.2462
   71CHL1  H24A 7723   4.469   0.019   8.354 -0.2121  0.0609 -0.6312
   71CHL1  H24B 7724   4.422  -0.147   8.303 -0.5683 -0.3626  2.3137
   71CHL1   C25 7725   4.590  -0.144   8.435  0.4284  0.3510  0.8826
   71CHL1   H25 7726   4.680  -0.084   8.464 -0.8016  3.4314 -1.1748
   71CHL1   C26 7727   4.495  -0.181   8.551  0.0092  0.8181 -0.1159
   71CHL1  H26A 7728   4.398  -0.220   8.514 -0.3637 -1.9716  3.2764
   71CHL1  H26B 7729   4.539  -0.259   8.616 -1.6581 -0.3723 -0.3369
   71CHL1  H26C 7730   4.488  -0.093   8.618  3.8332 -0.1768  1.8685
   71CHL1   C27 7731   4.646  -0.284   8.382 -0.5764  0.3291  0.2674
   71CHL1  H27A 7732   4.566  -0.344   8.334  0.4805 -0.8731 -0.0444
   71CHL1  H27B 7733   4.717  -0.264   8.299 -2.6723  0.3868 -1.5955
   71CHL1  H27C 7734   4.688  -0.350   8.461 -1.9171  0.4300  1.0856
   72CHL1    C3 7735   4.700   5.175   7.083  0.4817  0.1554  0.5818
   72CHL1    H3 7736   4.708   5.283   7.109 -1.7745  1.0806 -2.1077
   72CHL1    O3 7737   4.698   5.176   6.940  0.0378 -0.9567 -0.0673
   72CHL1   H3' 7738   4.688   5.083   6.918 -3.7354 -0.6816 -0.1011
   72CHL1    C4 7739   4.820   5.106   7.150  0.2057 -0.3701 -0.1887
   72CHL1   H4A 7740   4.822   5.001   7.113  1.1474 -0.7453  0.8536
   72CHL1   H4B 7741   4.917   5.153   7.121 -0.0975  1.3970  1.4666
   72CHL1    C5 7742   4.806   5.113   7.304  0.5766 -0.7741 -0.0568
   72CHL1    C6 7743   4.903   5.170   7.376 -0.7607 -0.2823 -0.3374
   72CHL1    H6 7744   4.982   5.220   7.320 -2.0535 -0.7121 -2.6704
   72CHL1    C7 7745   4.901   5.166   7.529  0.1650 -0.6571 -0.4414
   72CHL1   H7A 7746   4.995   5.143   7.583 -0.4919  0.1167  1.1019
   72CHL1   H7B 7747   4.868   5.266   7.565  0.8959 -1.0187  1.3708
   72CHL1    C8 7748   4.791   5.065   7.581  0.0935 -0.4428  0.4926
   72CHL1    H8 7749   4.829   4.961   7.565 -1.3684 -1.0030  0.5468
   72CHL1   C14 7750   4.766   5.091   7.734  0.2792  0.4176 -0.2686
   72CHL1   H14 7751   4.719   5.191   7.752  0.8156  0.5010  0.7402
   72CHL1   C15 7752   4.887   5.094   7.822 -0.1654  0.9048  0.1321
   72CHL1  H15A 7753   4.961   5.016   7.794  0.4442  1.4628  0.1646
   72CHL1  H15B 7754   4.936   5.193   7.816 -1.0442  1.3296 -0.1230
   72CHL1   C16 7755   4.829   5.072   7.965 -0.0423 -0.8401 -0.3242
   72CHL1  H16A 7756   4.884   4.998   8.028  1.9618  2.8473  2.7531
   72CHL1  H16B 7757   4.832   5.167   8.022  0.2489 -2.8376  3.3428
   72CHL1   C17 7758   4.677   5.043   7.949 -0.1772  0.8040  0.0013
   72CHL1   H17 7759   4.626   5.141   7.959  0.3372  1.2999 -1.7669
   72CHL1   C13 7760   4.658   5.003   7.800 -0.5225  0.5812 -0.4672
   72CHL1   C18 7761   4.699   4.852   7.781 -0.8724 -1.2572  0.7794
   72CHL1  H18A 7762   4.649   4.786   7.855  0.4213 -1.0208  1.9245
   72CHL1  H18B 7763   4.672   4.810   7.682 -2.2551  0.1739  0.5082
   72CHL1  H18C 7764   4.808   4.838   7.802 -1.0525 -1.3261  1.7071
   72CHL1   C12 7765   4.528   5.030   7.732  0.1817  0.5339  0.7181
   72CHL1  H12A 7766   4.442   4.970   7.767 -1.9749  2.0272 -1.7139
   72CHL1  H12B 7767   4.496   5.132   7.763 -0.7828  0.3998  0.2008
   72CHL1   C11 7768   4.536   5.004   7.580 -0.8165  0.2028  0.2774
   72CHL1  H11A 7769   4.548   4.893   7.570 -0.4754  0.3483 -1.1471
   72CHL1  H11B 7770   4.440   5.021   7.527 -0.8737  0.4125  0.4486
   72CHL1    C9 7771   4.661   5.070   7.510  0.6517  0.0148  0.4040
   72CHL1    H9 7772   4.621   5.173   7.517 -1.0051 -0.6127  0.4557
   72CHL1   C10 7773   4.683   5.046   7.358  0.1374  0.6629 -0.3834
   72CHL1   C19 7774   4.676   4.893   7.330  0.2298 -1.0753 -0.3463
   72CHL1  H19A 7775   4.734   4.836   7.406  1.3786  1.1492  0.5398
   72CHL1  H19B 7776   4.572   4.859   7.348 -0.2189  0.8826  1.0152
   72CHL1  H19C 7777   4.708   4.867   7.227 -3.6638 -0.7559 -1.8011
   72CHL1    C1 7778   4.560   5.117   7.280 -0.0331  0.1262  0.6092
   72CHL1   H1A 7779   4.469   5.065   7.316  0.7198 -1.3535  0.4863
   72CHL1   H1B 7780   4.568   5.223   7.313  0.2496 -0.0499  1.1155
   72CHL1    C2 7781   4.565   5.110   7.131 -0.6217  0.0102 -0.8102
   72CHL1   H2A 7782   4.491   5.183   7.093 -1.9248 -1.4897 -1.2363
   72CHL1   H2B 7783   4.542   5.013   7.081  4.6572 -2.8674  1.5699
   72CHL1   C20 7784   4.618   4.946   8.064 -0.4384 -0.7645  0.2520
   72CHL1   H20 7785   4.663   4.849   8.032 -0.2241 -0.1448 -1.3736
   72CHL1   C21 7786   4.463   4.940   8.056 -0.7345 -0.7456 -1.2263
   72CHL1  H21A 7787   4.424   5.039   8.087  0.5850 -0.9265  1.2859
   72CHL1  H21B 7788   4.420   4.857   8.116  0.0624 -0.1485  0.2260
   72CHL1  H21C 7789   4.431   4.923   7.951  0.3056  1.4054 -1.9606
   72CHL1   C22 7790   4.664   4.975   8.207 -0.5741 -0.4271 -0.0093
   72CHL1  H22A 7791   4.620   4.897   8.273 -2.8703 -0.0511 -1.0171
   72CHL1  H22B 7792   4.775   4.964   8.214 -0.3913  1.3173  0.0761
   72CHL1   C23 7793   4.618   5.115   8.262  0.1393 -0.0684  0.0219
   72CHL1  H23A 7794   4.669   5.196   8.206  1.7826 -0.4648  0.8660
   72CHL1  H23B 7795   4.507   5.121   8.256  0.0249 -1.6300  0.2924
   72CHL1   C24 7796   4.640   5.131   8.415 -0.8003 -0.1514  0.5928
   72CHL1  H24A 7797   4.575   5.052   8.458 -1.2449 -0.1592 -0.0750
   72CHL1  H24B 7798   4.744   5.104   8.442 -0.6802 -0.4199 -0.1126
   72CHL1   C25 7799   4.604   5.272   8.470 -0.0866  0.4613 -0.2592
   72CHL1   H25 7800   4.656   5.335   8.395 -1.1681  1.1903 -0.4133
   72CHL1   C26 7801   4.454   5.311   8.473 -0.1994  0.5837 -0.1640
   72CHL1  H26A 7802   4.399   5.248   8.546 -0.6049 -0.5190 -1.3901
   72CHL1  H26B 7803   4.439   5.412   8.517  2.2304  0.6445  0.6713
   72CHL1  H26C 7804   4.412   5.296   8.372  0.4405  1.8821 -0.6418
   72CHL1   C27 7805   4.673   5.303   8.607 -0.3932 -0.3904 -0.1999
   72CHL1  H27A 7806   4.783   5.299   8.598 -0.2815 -2.0457  1.3454
   72CHL1  H27B 7807   4.639   5.403   8.644 -0.7372  0.0896 -1.7269
   72CHL1  H27C 7808   4.638   5.220   8.671 -0.6904  0.2346  0.4674
   73CHL1    C3 7809   4.803   0.685   6.983 -0.0807  0.2521 -0.4282
   73CHL1    H3 7810   4.822   0.577   6.998  0.8792  0.4177 -0.3789
   73CHL1    O3 7811   4.809   0.695   6.844 -0.7342 -0.1771  0.3102
   73CHL1   H3' 7812   4.792   0.790   6.835 -0.4083 -0.2029 -0.7255
   73CHL1    C4 7813   4.671   0.730   7.035  0.2355  0.3082  0.0714
   73CHL1   H4A 7814   4.642   0.834   7.009 -0.2699 -0.0255 -0.7460
   73CHL1   H4B 7815   4.591   0.663   6.996  0.1897 -0.3557  1.2683
   73CHL1    C5 7816   4.667   0.735   7.186 -0.2843 -0.3770  0.2185
   73CHL1    C6 7817   4.567   0.673   7.250 -0.2579  0.4204  0.5796
   73CHL1    H6 7818   4.478   0.645   7.191 -3.7038  0.7528  5.0967
   73CHL1    C7 7819   4.535   0.690   7.394 -0.0792 -0.4091  0.0918
   73CHL1   H7A 7820   4.434   0.737   7.399  0.7900  1.8685 -2.1176
   73CHL1   H7B 7821   4.543   0.588   7.438  0.2730 -0.1434  0.6623
   73CHL1    C8 7822   4.623   0.782   7.467 -0.2645 -0.3566  0.4091
   73CHL1    H8 7823   4.593   0.888   7.453  0.8694  0.1767  1.7541
   73CHL1   C14 7824   4.623   0.740   7.614  0.3897  0.4536 -0.5837
   73CHL1   H14 7825   4.659   0.635   7.609 -1.5154 -0.3177  0.4978
   73CHL1   C15 7826   4.485   0.718   7.679 -0.5449  0.7558 -0.8539
   73CHL1  H15A 7827   4.418   0.806   7.667 -2.2873 -0.5936 -1.4527
   73CHL1  H15B 7828   4.426   0.632   7.641  0.5088 -0.2685 -0.2384
   73CHL1   C16 7829   4.519   0.699   7.830 -0.5029  0.4956 -0.1900
   73CHL1  H16A 7830   4.458   0.770   7.890 -0.7531  1.3808 -1.4447
   73CHL1  H16B 7831   4.498   0.595   7.861  1.2334  0.3501  0.6128
   73CHL1   C17 7832   4.676   0.740   7.841 -0.8391  0.0982  0.5417
   73CHL1   H17 7833   4.742   0.650   7.833  0.6173  1.2187 -0.6570
   73CHL1   C13 7834   4.716   0.816   7.707  0.6802  1.1700  0.9642
   73CHL1   C18 7835   4.665   0.961   7.714  0.3039 -0.1913  0.5523
   73CHL1  H18A 7836   4.694   1.018   7.622 -2.0840 -0.7925 -0.6431
   73CHL1  H18B 7837   4.556   0.959   7.732  0.1247 -1.6017 -0.5046
   73CHL1  H18C 7838   4.712   1.026   7.791  0.9120 -0.2384  0.2288
   73CHL1   C12 7839   4.853   0.792   7.644 -0.5113 -0.2233 -0.5348
   73CHL1  H12A 7840   4.928   0.842   7.708 -3.8250  2.5569  1.4981
   73CHL1  H12B 7841   4.873   0.682   7.640  0.9737  0.0515 -2.4718
   73CHL1   C11 7842   4.868   0.840   7.500 -0.1916  0.4721  0.2279
   73CHL1  H11A 7843   4.884   0.949   7.493 -0.8908  0.5452 -0.4901
   73CHL1  H11B 7844   4.966   0.795   7.474 -0.6088  0.0882 -0.7562
   73CHL1    C9 7845   4.769   0.766   7.410 -0.3175  0.2967  0.0198
   73CHL1    H9 7846   4.804   0.661   7.414  1.7578  0.8723 -1.2778
   73CHL1   C10 7847   4.781   0.806   7.258  0.4014 -0.0359 -0.8859
   73CHL1   C19 7848   4.775   0.955   7.240 -0.6227 -0.5929 -0.3339
   73CHL1  H19A 7849   4.688   0.994   7.298 -0.0120  0.1359  0.1023
   73CHL1  H19B 7850   4.853   1.013   7.293 -2.8747  0.9540  1.5284
   73CHL1  H19C 7851   4.783   0.990   7.134  2.7007 -0.2729 -0.0729
   73CHL1    C1 7852   4.915   0.752   7.201 -0.5893  1.0781 -0.0522
   73CHL1   H1A 7853   5.000   0.804   7.250 -0.3684 -0.6950  1.5244
   73CHL1   H1B 7854   4.925   0.647   7.235  2.0197  2.0006  2.3775
   73CHL1    C2 7855   4.914   0.769   7.051 -0.0716  0.8116  0.0732
   73CHL1   H2A 7856   5.009   0.746   6.998  0.0383 -0.4467  0.7750
   73CHL1   H2B 7857   4.897   0.875   7.024 -0.5342  1.4759  2.6582
   73CHL1   C20 7858   4.703   0.816   7.971  0.5635 -0.2273  0.0490
   73CHL1   H20 7859   4.648   0.913   7.978 -0.5730 -0.9100  0.9323
   73CHL1   C21 7860   4.855   0.848   7.968  0.3754  0.7688  0.4061
   73CHL1  H21A 7861   4.913   0.756   7.947 -1.6359 -0.4780  0.0629
   73CHL1  H21B 7862   4.893   0.873   8.070 -2.8111 -0.1178  1.9153
   73CHL1  H21C 7863   4.882   0.926   7.893  0.9008  0.5407  0.3511
   73CHL1   C22 7864   4.667   0.736   8.104  0.0451  0.3456  0.1392
   73CHL1  H22A 7865   4.566   0.694   8.087  0.7223 -0.2108 -3.2608
   73CHL1  H22B 7866   4.742   0.656   8.118 -0.6673 -0.6416 -1.4068
   73CHL1   C23 7867   4.673   0.824   8.228  0.0893  0.4215 -0.3754
   73CHL1  H23A 7868   4.775   0.866   8.225 -0.5165  1.9733 -0.0517
   73CHL1  H23B 7869   4.594   0.902   8.221 -1.8686 -1.3828  0.2142
   73CHL1   C24 7870   4.664   0.744   8.361 -0.1864  0.4865  0.7016
   73CHL1  H24A 7871   4.579   0.673   8.354  0.7968 -0.5577 -1.3845
   73CHL1  H24B 7872   4.762   0.692   8.372  1.2041  2.9203  0.5254
   73CHL1   C25 7873   4.655   0.826   8.496 -0.4344  0.8561  0.6611
   73CHL1   H25 7874   4.688   0.754   8.574 -1.0107 -3.3655 -2.6227
   73CHL1   C26 7875   4.753   0.939   8.507  0.2841 -0.0603 -0.4795
   73CHL1  H26A 7876   4.764   0.960   8.615  0.5120 -2.8740  0.1218
   73CHL1  H26B 7877   4.850   0.917   8.457 -0.9863  1.2280 -3.8380
   73CHL1  H26C 7878   4.706   1.027   8.459 -1.0817 -0.9886 -0.9143
   73CHL1   C27 7879   4.515   0.881   8.541 -0.0302  0.3339 -0.5898
   73CHL1  H27A 7880   4.439   0.805   8.514 -0.9871  1.6545 -1.8186
   73CHL1  H27B 7881   4.522   0.905   8.649  2.5391 -1.1198 -0.3419
   73CHL1  H27C 7882   4.486   0.973   8.485 -0.7908  0.0582 -0.6528
   74CHL1    C3 7883   5.631   6.172   6.907  0.0785 -0.6908  0.7111
   74CHL1    H3 7884   5.609   6.081   6.967 -1.9315 -2.3403 -2.2819
   74CHL1    O3 7885   5.626   6.133   6.770 -0.7071  0.0148  0.3868
   74CHL1   H3' 7886   5.659   6.043   6.762 -1.3690 -0.1018 -2.1197
   74CHL1    C4 7887   5.529   6.281   6.941  0.2379  0.8913 -0.0508
   74CHL1   H4A 7888   5.561   6.370   6.884  0.8675  1.5213  1.2404
   74CHL1   H4B 7889   5.426   6.258   6.906  0.7177 -0.2078 -0.8114
   74CHL1    C5 7890   5.534   6.307   7.092  0.4808 -0.3137  0.4306
   74CHL1    C6 7891   5.421   6.300   7.169  0.3133  0.9423 -0.1219
   74CHL1    H6 7892   5.331   6.274   7.111  0.2166 -2.0139  1.1345
   74CHL1    C7 7893   5.409   6.341   7.312  0.5218  0.2242  0.1298
   74CHL1   H7A 7894   5.320   6.404   7.330  0.8464  0.6849  0.1311
   74CHL1   H7B 7895   5.388   6.255   7.379  0.2399 -1.7002 -2.2710
   74CHL1    C8 7896   5.540   6.414   7.355  0.2422 -0.5248 -0.1680
   74CHL1    H8 7897   5.539   6.518   7.316  1.1387 -0.6030 -0.4140
   74CHL1   C14 7898   5.552   6.411   7.504 -0.6738 -0.0001  0.1469
   74CHL1   H14 7899   5.575   6.309   7.541  2.6037  0.6171  0.1754
   74CHL1   C15 7900   5.424   6.457   7.585  0.0866  0.0453  0.2190
   74CHL1  H15A 7901   5.387   6.551   7.540 -0.4216 -0.8198 -1.2462
   74CHL1  H15B 7902   5.347   6.378   7.575 -0.6869  0.7359  0.6463
   74CHL1   C16 7903   5.484   6.478   7.728  0.1536 -0.2353  0.6107
   74CHL1  H16A 7904   5.453   6.580   7.757 -1.3544 -0.9348  1.5664
   74CHL1  H16B 7905   5.442   6.419   7.812  0.0599  0.7490  1.2756
   74CHL1   C17 7906   5.644   6.476   7.709 -0.2459 -0.8548  0.3958
   74CHL1   H17 7907   5.669   6.373   7.744  0.5696 -0.7392  0.1809
   74CHL1   C13 7908   5.674   6.490   7.555  0.2438  0.9539 -0.3034
   74CHL1   C18 7909   5.674   6.641   7.515  0.1887 -0.4347  0.5778
   74CHL1  H18A 7910   5.750   6.700   7.571  1.4170  1.6528 -2.9353
   74CHL1  H18B 7911   5.702   6.671   7.411  2.0446  0.6949  1.3481
   74CHL1  H18C 7912   5.574   6.688   7.531  0.8089  1.1986 -0.0734
   74CHL1   C12 7913   5.799   6.414   7.506  0.0316 -0.2610 -0.8046
   74CHL1  H12A 7914   5.890   6.462   7.549 -0.1839  0.1001 -0.7515
   74CHL1  H12B 7915   5.801   6.312   7.552  0.1042  0.4116  0.7640
   74CHL1   C11 7916   5.799   6.399   7.357 -0.2384  0.3511 -0.0037
   74CHL1  H11A 7917   5.817   6.501   7.318 -3.1858  0.9535 -0.0229
   74CHL1  H11B 7918   5.875   6.324   7.326 -0.4191  0.8053 -1.6434
   74CHL1    C9 7919   5.666   6.350   7.295  0.0532 -0.7131  0.2873
   74CHL1    H9 7920   5.665   6.241   7.316  0.5631 -0.7707  0.0199
   74CHL1   C10 7921   5.674   6.344   7.141  0.4558  0.1621  0.2190
   74CHL1   C19 7922   5.704   6.483   7.086 -0.5784  1.1010 -0.1756
   74CHL1  H19A 7923   5.625   6.556   7.112 -0.4818  0.6412  1.5751
   74CHL1  H19B 7924   5.805   6.524   7.106  0.1880 -0.6993 -0.1351
   74CHL1  H19C 7925   5.703   6.482   6.975  2.0052 -0.9635 -0.2875
   74CHL1    C1 7926   5.780   6.236   7.089  0.1842 -0.4779  0.1866
   74CHL1   H1A 7927   5.886   6.253   7.120 -0.2576 -0.7648  1.9781
   74CHL1   H1B 7928   5.772   6.142   7.149  0.5906  0.6645  2.1338
   74CHL1    C2 7929   5.776   6.218   6.944  0.1741 -0.6810  0.4788
   74CHL1   H2A 7930   5.851   6.142   6.912 -0.1999 -0.6351 -0.5269
   74CHL1   H2B 7931   5.793   6.317   6.898 -1.5264 -0.3938  0.3985
   74CHL1   C20 7932   5.719   6.575   7.810 -0.1952  0.6411  1.1615
   74CHL1   H20 7933   5.685   6.675   7.775 -0.4357  0.0811 -0.3089
   74CHL1   C21 7934   5.864   6.550   7.805 -0.0385  0.8592 -0.0021
   74CHL1  H21A 7935   5.916   6.572   7.900 -1.1124  0.2052  0.7565
   74CHL1  H21B 7936   5.907   6.598   7.714  1.7063  0.2492  0.4541
   74CHL1  H21C 7937   5.886   6.442   7.786  2.2772  1.2170  0.3981
   74CHL1   C22 7938   5.662   6.576   7.958 -0.4326 -0.8971 -0.1170
   74CHL1  H22A 7939   5.714   6.664   8.000 -1.2437 -0.4521 -0.0329
   74CHL1  H22B 7940   5.555   6.605   7.952 -0.8807 -2.3647  0.2849
   74CHL1   C23 7941   5.685   6.450   8.036 -0.4284 -0.0864 -0.1990
   74CHL1  H23A 7942   5.640   6.362   7.985 -0.0236 -0.4634  0.0876
   74CHL1  H23B 7943   5.795   6.443   8.048 -0.6710  0.1147  3.0797
   74CHL1   C24 7944   5.625   6.476   8.176  0.6518 -0.1361  0.4451
   74CHL1  H24A 7945   5.677   6.557   8.231  0.1713 -1.6297  3.2462
   74CHL1  H24B 7946   5.517   6.502   8.164  0.8163 -0.3778 -2.3738
   74CHL1   C25 7947   5.645   6.358   8.268  0.1771  0.2672 -0.4281
   74CHL1   H25 7948   5.749   6.322   8.250 -0.4254 -1.8172 -0.0033
   74CHL1   C26 7949   5.629   6.412   8.414 -0.2570  0.4025  1.3117
   74CHL1  H26A 7950   5.524   6.450   8.412 -0.8433 -0.9599 -2.4583
   74CHL1  H26B 7951   5.627   6.326   8.484  1.0292 -0.6667  0.0751
   74CHL1  H26C 7952   5.696   6.496   8.443  1.5958 -0.5714  0.0469
   74CHL1   C27 7953   5.550   6.239   8.232  0.0695  0.1021  0.7959
   74CHL1  H27A 7954   5.595   6.185   8.145 -1.9807 -1.2784  0.5174
   74CHL1  H27B 7955   5.558   6.161   8.311 -1.5024  0.0933  0.9859
   74CHL1  H27C 7956   5.448   6.271   8.202  1.2654  1.4692 -2.2756
   75CHL1    C3 7957   6.458   2.293   6.988  0.0212  0.3770 -0.0766
   75CHL1    H3 7958   6.567   2.299   6.967  0.1785 -2.4669 -0.4587
   75CHL1    O3 7959   6.391   2.339   6.873  0.3344 -0.6593  0.3045
   75CHL1   H3' 7960   6.441   2.323   6.792 -0.6922  1.0399 -0.7301
   75CHL1    C4 7961   6.429   2.142   7.018  0.1713  0.1367  0.6057
   75CHL1   H4A 7962   6.318   2.129   7.013 -0.1920  2.9341 -0.6876
   75CHL1   H4B 7963   6.473   2.088   6.933 -2.5389 -0.0106 -0.8277
   75CHL1    C5 7964   6.449   2.085   7.153  0.1219  0.8839 -0.4944
   75CHL1    C6 7965   6.518   1.971   7.147  0.3962  0.9645 -0.0226
   75CHL1    H6 7966   6.535   1.920   7.051 -3.1218  0.1543 -0.3693
   75CHL1    C7 7967   6.560   1.888   7.265 -0.1346 -0.0053 -0.2413
   75CHL1   H7A 7968   6.538   1.779   7.256 -0.0815 -0.5288  4.1111
   75CHL1   H7B 7969   6.668   1.908   7.275 -0.2198  0.1212  0.4180
   75CHL1    C8 7970   6.485   1.949   7.392 -0.3758  0.2514  0.6423
   75CHL1    H8 7971   6.378   1.925   7.372 -0.2193 -0.2292  0.3669
   75CHL1   C14 7972   6.529   1.894   7.530  0.0705 -0.1640 -0.0198
   75CHL1   H14 7973   6.634   1.925   7.545  0.1674 -1.6057  3.0989
   75CHL1   C15 7974   6.544   1.739   7.543  0.7501 -0.6931  0.3083
   75CHL1  H15A 7975   6.460   1.684   7.495  0.1631  2.0281 -2.1359
   75CHL1  H15B 7976   6.638   1.704   7.495  0.5346 -1.7314  0.6289
   75CHL1   C16 7977   6.534   1.717   7.698  0.2480  0.3898  0.6131
   75CHL1  H16A 7978   6.435   1.668   7.713 -0.1815  1.8849  3.2886
   75CHL1  H16B 7979   6.622   1.660   7.734  1.1614  0.9258 -0.6885
   75CHL1   C17 7980   6.519   1.854   7.767  0.1233  1.0748  0.3780
   75CHL1   H17 7981   6.617   1.903   7.783  0.4211  0.8940 -0.7856
   75CHL1   C13 7982   6.455   1.948   7.652  0.0842  0.1822 -0.3712
   75CHL1   C18 7983   6.301   1.924   7.640 -0.0758 -0.0770  0.0424
   75CHL1  H18A 7984   6.271   1.973   7.546  0.6810 -1.0817 -0.7544
   75CHL1  H18B 7985   6.282   1.814   7.639  0.7678 -0.2262 -0.6074
   75CHL1  H18C 7986   6.261   1.969   7.733  0.9522 -1.2428  1.1049
   75CHL1   C12 7987   6.494   2.101   7.656 -0.0466  0.1551 -0.2805
   75CHL1  H12A 7988   6.453   2.141   7.751 -2.1134 -2.6829  0.1280
   75CHL1  H12B 7989   6.605   2.107   7.666 -0.0988  1.5069 -0.2961
   75CHL1   C11 7990   6.447   2.172   7.528  0.0275 -0.1271 -0.3327
   75CHL1  H11A 7991   6.337   2.158   7.534  0.3270 -2.3255  1.4909
   75CHL1  H11B 7992   6.482   2.278   7.533 -1.4127  0.3520  0.1115
   75CHL1    C9 7993   6.496   2.105   7.394  0.0333  0.2965  0.3586
   75CHL1    H9 7994   6.605   2.126   7.387 -0.1002  0.8081 -0.2866
   75CHL1   C10 7995   6.423   2.162   7.273  0.2499 -0.6848  0.2720
   75CHL1   C19 7996   6.265   2.153   7.285 -0.1689 -0.2459  0.7236
   75CHL1  H19A 7997   6.215   2.178   7.189 -0.0919  0.3890  0.8449
   75CHL1  H19B 7998   6.236   2.051   7.318  1.5338 -0.5375  1.4589
   75CHL1  H19C 7999   6.238   2.228   7.362  1.4004  2.2024 -0.9766
   75CHL1    C1 8000   6.459   2.314   7.242  0.3013  0.6015 -0.1104
   75CHL1   H1A 8001   6.431   2.373   7.332 -1.8697  0.0313 -0.3541
   75CHL1   H1B 8002   6.569   2.320   7.228  0.2175  0.3881 -0.9222
   75CHL1    C2 8003   6.399   2.372   7.111 -0.3153 -0.0063  0.4468
   75CHL1   H2A 8004   6.436   2.474   7.083  0.0435 -0.1154  0.5225
   75CHL1   H2B 8005   6.289   2.365   7.106 -0.1769 -2.0876 -0.9711
   75CHL1   C20 8006   6.448   1.852   7.902 -0.0732  0.0271 -0.4120
   75CHL1   H20 8007   6.346   1.810   7.885 -1.0497  1.7234  0.9073
   75CHL1   C21 8008   6.431   1.996   7.953 -1.0717  0.2406 -0.1716
   75CHL1  H21A 8009   6.526   2.047   7.924 -0.0055 -1.6338 -0.1375
   75CHL1  H21B 8010   6.415   2.006   8.062  2.1413  1.9071  0.2629
   75CHL1  H21C 8011   6.341   2.045   7.910 -1.4384 -0.3956 -0.1425
   75CHL1   C22 8012   6.517   1.764   8.000 -0.2435  0.0387  0.5778
   75CHL1  H22A 8013   6.539   1.663   7.958  0.8029 -0.6644  2.7165
   75CHL1  H22B 8014   6.611   1.815   8.027 -1.0618  3.2293 -1.9501
   75CHL1   C23 8015   6.442   1.736   8.132 -0.8110  0.2038  0.2344
   75CHL1  H23A 8016   6.427   1.834   8.183  2.3972  0.4441  0.9168
   75CHL1  H23B 8017   6.342   1.697   8.105 -0.7232  1.0551 -1.4641
   75CHL1   C24 8018   6.529   1.649   8.222 -0.3760 -0.0185 -0.6435
   75CHL1  H24A 8019   6.552   1.556   8.166 -1.2674  0.7354 -2.3273
   75CHL1  H24B 8020   6.622   1.704   8.247 -1.2497  1.8846 -1.4600
   75CHL1   C25 8021   6.477   1.618   8.364 -0.4932 -0.1614 -0.1274
   75CHL1   H25 8022   6.452   1.718   8.406  1.3050  0.7468 -1.1167
   75CHL1   C26 8023   6.353   1.529   8.371 -0.5292 -0.9700 -0.2401
   75CHL1  H26A 8024   6.372   1.420   8.363 -0.8712 -1.1988  1.5084
   75CHL1  H26B 8025   6.311   1.548   8.472  2.3155  4.4025  0.3194
   75CHL1  H26C 8026   6.291   1.561   8.285 -1.3980 -1.1852  0.2982
   75CHL1   C27 8027   6.593   1.557   8.445  0.4881  0.5214 -0.7595
   75CHL1  H27A 8028   6.571   1.547   8.553 -0.8947 -0.2496 -1.0745
   75CHL1  H27B 8029   6.619   1.459   8.400 -1.8247 -0.4198 -0.2326
   75CHL1  H27C 8030   6.686   1.617   8.434 -1.5605  3.7203 -2.1361
   76CHL1    C3 8031   2.875   4.381   7.468  0.4194 -0.3033 -0.2006
   76CHL1    H3 8032   2.772   4.403   7.503 -0.2438  2.2528 -3.2688
   76CHL1    O3 8033   2.867   4.355   7.327 -0.0762 -0.0798 -0.1725
   76CHL1   H3' 8034   2.954   4.379   7.295  0.6756 -2.7123 -0.3221
   76CHL1    C4 8035   2.953   4.511   7.503  0.0726  0.4926 -0.6612
   76CHL1   H4A 8036   3.056   4.508   7.461  1.0283  1.2390  1.4768
   76CHL1   H4B 8037   2.903   4.599   7.456  2.6092  1.4076 -1.8351
   76CHL1    C5 8038   2.978   4.539   7.649 -1.1179  0.0316  0.2508
   76CHL1    C6 8039   2.955   4.660   7.711  0.1775  0.6865  0.7219
   76CHL1    H6 8040   2.916   4.738   7.645 -0.2626  0.2042  0.4039
   76CHL1    C7 8041   2.978   4.689   7.856 -0.8477  0.1794  0.5994
   76CHL1   H7A 8042   3.025   4.789   7.868 -0.3287 -0.1096  0.9972
   76CHL1   H7B 8043   2.883   4.704   7.912 -0.9303  0.6219  0.3444
   76CHL1    C8 8044   3.060   4.574   7.928  0.6538 -0.0217  0.5605
   76CHL1    H8 8045   3.167   4.588   7.902  0.3532  1.6017  0.0780
   76CHL1   C14 8046   3.037   4.583   8.080 -0.2304 -1.4336 -0.2719
   76CHL1   H14 8047   2.929   4.574   8.101 -0.2785 -0.2224  0.0725
   76CHL1   C15 8048   3.073   4.719   8.146  0.3365  0.0135  0.5332
   76CHL1  H15A 8049   3.141   4.782   8.085 -0.2405  0.6545  0.5447
   76CHL1  H15B 8050   2.980   4.779   8.152 -1.1312 -2.1440  0.3994
   76CHL1   C16 8051   3.140   4.678   8.280  0.0126  0.4483  0.3296
   76CHL1  H16A 8052   3.250   4.685   8.267  0.4866 -4.0228  0.5764
   76CHL1  H16B 8053   3.110   4.742   8.366  1.1970  0.1556  0.9873
   76CHL1   C17 8054   3.115   4.525   8.294 -0.2705 -0.1148  0.4438
   76CHL1   H17 8055   3.009   4.520   8.325 -0.2010  0.0944  0.7213
   76CHL1   C13 8056   3.118   4.478   8.148  0.2472 -0.1424  0.8093
   76CHL1   C18 8057   3.264   4.467   8.105  0.2152  0.3899 -0.4523
   76CHL1  H18A 8058   3.306   4.385   8.167 -2.1014 -0.6628 -0.1498
   76CHL1  H18B 8059   3.274   4.446   7.997  0.7277 -0.8817 -0.1721
   76CHL1  H18C 8060   3.327   4.556   8.125  2.0816 -0.6432 -1.5399
   76CHL1   C12 8061   3.040   4.344   8.118 -0.8193 -0.5511 -0.0358
   76CHL1  H12A 8062   3.066   4.248   8.166 -2.1160 -0.5173  0.7787
   76CHL1  H12B 8063   2.933   4.342   8.148 -0.6722  0.5329  0.6276
   76CHL1   C11 8064   3.042   4.314   7.969  0.1904 -0.2726  0.0267
   76CHL1  H11A 8065   3.144   4.276   7.950 -0.5283 -0.6491 -4.0432
   76CHL1  H11B 8066   2.975   4.227   7.952  1.8536 -1.4809 -0.5505
   76CHL1    C9 8067   3.007   4.440   7.883 -0.5008 -0.0491  0.1502
   76CHL1    H9 8068   2.898   4.458   7.893 -0.4931  0.3291 -0.4072
   76CHL1   C10 8069   3.024   4.413   7.730 -0.0748 -0.8013 -0.3608
   76CHL1   C19 8070   3.174   4.395   7.703  0.3023  0.2495  0.2779
   76CHL1  H19A 8071   3.246   4.474   7.734  2.9744 -2.4740  1.5968
   76CHL1  H19B 8072   3.209   4.305   7.758  0.5504 -1.7184 -2.8309
   76CHL1  H19C 8073   3.195   4.368   7.597  0.8624  1.3728  0.0882
   76CHL1    C1 8074   2.935   4.291   7.682  0.3304 -0.6044 -0.3583
   76CHL1   H1A 8075   2.979   4.205   7.738 -1.5178  0.2178  2.6162
   76CHL1   H1B 8076   2.829   4.303   7.712  0.6836  1.7884  0.1014
   76CHL1    C2 8077   2.939   4.266   7.535  0.6157  0.3849 -0.0872
   76CHL1   H2A 8078   2.887   4.173   7.505  0.2532  0.7551 -0.6566
   76CHL1   H2B 8079   3.046   4.258   7.506  1.1155 -0.4137  1.8789
   76CHL1   C20 8080   3.204   4.458   8.403 -0.2609  1.0752  0.1493
   76CHL1   H20 8081   3.312   4.470   8.377 -0.2192 -1.9324 -1.4684
   76CHL1   C21 8082   3.177   4.306   8.401 -0.2147 -0.0734  0.5692
   76CHL1  H21A 8083   3.072   4.278   8.377 -0.6778  1.4580  0.7088
   76CHL1  H21B 8084   3.198   4.271   8.504 -0.4345  2.4387  1.5468
   76CHL1  H21C 8085   3.244   4.256   8.328  1.7717  3.0062  0.1004
   76CHL1   C22 8086   3.181   4.508   8.548  0.3997  1.5524  0.2724
   76CHL1  H22A 8087   3.196   4.618   8.546  0.1193  1.6005  0.5710
   76CHL1  H22B 8088   3.072   4.495   8.569  0.2035 -2.5126 -2.3052
   76CHL1   C23 8089   3.257   4.456   8.673 -0.1718 -0.1219  0.1428
   76CHL1  H23A 8090   3.237   4.529   8.755 -0.2791  1.8239 -1.5283
   76CHL1  H23B 8091   3.208   4.359   8.698  2.1442 -1.7808 -1.3933
   76CHL1   C24 8092   3.409   4.452   8.659  0.2255 -0.7511 -0.4273
   76CHL1  H24A 8093   3.443   4.386   8.577  0.7010 -0.3552 -0.5531
   76CHL1  H24B 8094   3.459   4.550   8.645 -0.4692  0.1797  2.7368
   76CHL1   C25 8095   3.476   4.383   8.776 -0.0023 -0.1340  0.4719
   76CHL1   H25 8096   3.451   4.427   8.875 -2.3701  0.6635 -0.4172
   76CHL1   C26 8097   3.416   4.242   8.787 -0.3574  0.1751  0.1204
   76CHL1  H26A 8098   3.315   4.247   8.832 -0.5826  0.4163 -0.3979
   76CHL1  H26B 8099   3.402   4.197   8.686 -2.7500  1.0180  0.0353
   76CHL1  H26C 8100   3.476   4.178   8.856 -0.2859  2.3061  2.1412
   76CHL1   C27 8101   3.633   4.372   8.762  0.3829  0.1866 -0.6165
   76CHL1  H27A 8102   3.673   4.332   8.857  0.5891  2.4382  0.3129
   76CHL1  H27B 8103   3.645   4.302   8.677  0.2382 -0.1025 -0.4004
   76CHL1  H27C 8104   3.674   4.468   8.723  3.7898 -1.9580 -2.8279
   77CHL1    C3 8105   3.916   1.431   7.105  0.2438  0.2609  0.1486
   77CHL1    H3 8106   3.813   1.391   7.113  0.0481  0.5044 -1.0206
   77CHL1    O3 8107   3.971   1.418   6.973 -0.2276 -0.4575 -0.1911
   77CHL1   H3' 8108   3.979   1.323   6.964  1.2645 -0.6450  2.2275
   77CHL1    C4 8109   3.917   1.579   7.145 -0.5076  0.2478 -0.6593
   77CHL1   H4A 8110   4.025   1.604   7.151  1.1858 -5.7834  0.9501
   77CHL1   H4B 8111   3.856   1.636   7.072 -0.1053  4.2449  1.8020
   77CHL1    C5 8112   3.862   1.601   7.279  0.0812 -0.0680 -0.0118
   77CHL1    C6 8113   3.759   1.682   7.302  0.0618  0.3255 -0.4595
   77CHL1    H6 8114   3.717   1.741   7.219  0.0374 -0.5473 -1.0705
   77CHL1    C7 8115   3.709   1.716   7.438 -0.6144  0.1952 -0.5209
   77CHL1   H7A 8116   3.695   1.826   7.436  0.0556  0.2670 -1.9728
   77CHL1   H7B 8117   3.616   1.655   7.445  1.4698 -3.0235  1.8246
   77CHL1    C8 8118   3.801   1.664   7.556 -0.2515  1.0958 -0.2022
   77CHL1    H8 8119   3.885   1.735   7.571  0.7966 -0.2519  0.6339
   77CHL1   C14 8120   3.720   1.664   7.684  0.1983 -0.1044  0.2160
   77CHL1   H14 8121   3.638   1.592   7.661 -2.3383  3.3358 -2.5898
   77CHL1   C15 8122   3.645   1.795   7.715  0.0059  0.6501 -0.3089
   77CHL1  H15A 8123   3.717   1.875   7.688  0.6793  1.0650  2.4132
   77CHL1  H15B 8124   3.545   1.805   7.668 -0.7626 -1.0621  0.8768
   77CHL1   C16 8125   3.631   1.789   7.870  0.6379  0.2278  0.2281
   77CHL1  H16A 8126   3.689   1.874   7.912  0.4647  0.1645  0.5942
   77CHL1  H16B 8127   3.522   1.799   7.890  1.0090  0.4311  2.4287
   77CHL1   C17 8128   3.678   1.649   7.911 -0.3298  0.4515  0.5763
   77CHL1   H17 8129   3.598   1.572   7.904 -2.0791  2.0314  2.0032
   77CHL1   C13 8130   3.789   1.615   7.812 -0.7020 -0.1074  0.2265
   77CHL1   C18 8131   3.918   1.700   7.831  1.3273 -0.5721  0.0528
   77CHL1  H18A 8132   3.991   1.674   7.751  0.2436  0.0720 -1.1813
   77CHL1  H18B 8133   3.889   1.807   7.819 -1.4490 -1.3156 -0.4670
   77CHL1  H18C 8134   3.963   1.679   7.930  1.4581 -2.5504 -0.3942
   77CHL1   C12 8135   3.831   1.468   7.785 -0.4269  0.6354 -0.2901
   77CHL1  H12A 8136   3.899   1.420   7.858 -0.6542  0.2827 -0.3078
   77CHL1  H12B 8137   3.738   1.407   7.781  0.7520 -1.2597 -0.4710
   77CHL1   C11 8138   3.915   1.449   7.656 -0.0124  0.5245  0.2061
   77CHL1  H11A 8139   4.019   1.482   7.673  0.3688 -0.7134  0.3676
   77CHL1  H11B 8140   3.922   1.341   7.630  0.2682 -0.1533  2.7509
   77CHL1    C9 8141   3.850   1.522   7.528 -0.1448  0.6209 -0.4686
   77CHL1    H9 8142   3.756   1.465   7.507  0.3505  0.3891 -2.2673
   77CHL1   C10 8143   3.932   1.519   7.393 -0.2510  0.5977 -0.2558
   77CHL1   C19 8144   4.080   1.568   7.425  0.5626 -0.3801  0.6654
   77CHL1  H19A 8145   4.087   1.665   7.477  2.7733 -0.2592  0.2294
   77CHL1  H19B 8146   4.141   1.498   7.486  1.5680 -0.7262 -0.6725
   77CHL1  H19C 8147   4.134   1.577   7.328 -1.4350 -1.5388 -0.6362
   77CHL1    C1 8148   3.941   1.366   7.346 -0.7800  0.6283 -0.3137
   77CHL1   H1A 8149   4.018   1.329   7.418 -1.4613 -1.0199 -0.3907
   77CHL1   H1B 8150   3.840   1.320   7.349 -1.6460  2.4126 -0.9670
   77CHL1    C2 8151   4.002   1.353   7.206 -0.0514  0.4468 -0.0320
   77CHL1   H2A 8152   4.022   1.250   7.169 -2.4915 -0.8474  1.8772
   77CHL1   H2B 8153   4.103   1.400   7.211  0.1947 -0.1803  1.8344
   77CHL1   C20 8154   3.715   1.649   8.061 -0.1693  0.1634  0.1714
   77CHL1   H20 8155   3.794   1.722   8.091 -0.1124  1.1445 -2.2022
   77CHL1   C21 8156   3.771   1.503   8.097  0.7764 -1.1288  0.1131
   77CHL1  H21A 8157   3.714   1.429   8.037  0.6558  0.2399 -1.5210
   77CHL1  H21B 8158   3.764   1.475   8.205  0.7987  1.2233  0.7862
   77CHL1  H21C 8159   3.876   1.498   8.062  1.0929  0.6114  0.7194
   77CHL1   C22 8160   3.594   1.669   8.153 -0.0702 -0.3988 -0.0293
   77CHL1  H22A 8161   3.545   1.763   8.120  1.2771 -0.1582 -1.4452
   77CHL1  H22B 8162   3.519   1.589   8.134 -1.0746  0.6483 -0.5762
   77CHL1   C23 8163   3.646   1.690   8.299  0.9160  0.8081  0.1373
   77CHL1  H23A 8164   3.706   1.600   8.323  1.0710  0.7577 -0.4466
   77CHL1  H23B 8165   3.708   1.781   8.302  2.7891 -0.4234  0.7067
   77CHL1   C24 8166   3.524   1.691   8.409 -1.0487  0.6408 -0.2357
   77CHL1  H24A 8167   3.457   1.771   8.369 -0.2291  1.8496  0.7267
   77CHL1  H24B 8168   3.481   1.589   8.398 -1.5209  0.8449 -0.3296
   77CHL1   C25 8169   3.578   1.715   8.547  0.2631 -0.8873  0.9361
   77CHL1   H25 8170   3.645   1.629   8.569  0.7336 -0.6486  0.4636
   77CHL1   C26 8171   3.657   1.845   8.560  0.6993  0.4437  0.2281
   77CHL1  H26A 8172   3.596   1.937   8.545 -0.3044 -0.3296 -0.5699
   77CHL1  H26B 8173   3.691   1.853   8.665 -0.5982  2.3796  0.5477
   77CHL1  H26C 8174   3.739   1.860   8.487 -0.7687  0.8851 -1.4137
   77CHL1   C27 8175   3.470   1.707   8.651 -0.7365 -0.0811 -0.0136
   77CHL1  H27A 8176   3.525   1.711   8.748  1.1152 -1.8832 -0.9080
   77CHL1  H27B 8177   3.393   1.787   8.647 -2.3301 -1.5875 -0.6689
   77CHL1  H27C 8178   3.415   1.613   8.633 -2.1859  0.9145 -1.0250
   78CHL1    C3 8179   0.784   3.083   6.823 -0.8707 -0.1631  0.3991
   78CHL1    H3 8180   0.711   3.001   6.806 -0.1695 -0.1681 -3.5841
   78CHL1    O3 8181   0.841   3.128   6.701 -0.4149 -0.3091  0.1530
   78CHL1   H3' 8182   0.769   3.122   6.638 -0.6608  1.7593  0.1556
   78CHL1    C4 8183   0.719   3.193   6.898 -0.1829 -0.4248 -0.6229
   78CHL1   H4A 8184   0.791   3.277   6.890 -2.1401  1.2333 -1.5408
   78CHL1   H4B 8185   0.632   3.236   6.844  0.3734  0.8859 -0.5020
   78CHL1    C5 8186   0.696   3.171   7.043  0.9095 -1.1163 -0.0731
   78CHL1    C6 8187   0.589   3.218   7.109  1.5366  0.1848  0.3333
   78CHL1    H6 8188   0.517   3.272   7.046 -0.3902 -1.3360  1.1428
   78CHL1    C7 8189   0.562   3.208   7.255 -0.8726 -0.3014 -0.3222
   78CHL1   H7A 8190   0.525   3.307   7.291  0.1199  0.4008 -1.1643
   78CHL1   H7B 8191   0.493   3.122   7.263 -1.9686  0.7090  2.5849
   78CHL1    C8 8192   0.692   3.172   7.335  1.1626  0.1103  0.0654
   78CHL1    H8 8193   0.747   3.268   7.325 -2.2875  2.2855  0.0643
   78CHL1   C14 8194   0.654   3.134   7.483 -0.5482 -0.1801 -0.4718
   78CHL1   H14 8195   0.604   3.038   7.456  0.5304 -0.0305 -3.4224
   78CHL1   C15 8196   0.555   3.222   7.561 -0.1393  0.4696 -0.0329
   78CHL1  H15A 8197   0.599   3.324   7.561  1.1939 -0.0768 -0.7750
   78CHL1  H15B 8198   0.455   3.230   7.514  0.6502 -1.9823 -2.4088
   78CHL1   C16 8199   0.564   3.159   7.698  0.4861  1.0944 -0.7924
   78CHL1  H16A 8200   0.570   3.241   7.774  1.9940  0.6191 -0.3719
   78CHL1  H16B 8201   0.475   3.094   7.715  1.7700 -0.5420 -0.0520
   78CHL1   C17 8202   0.687   3.057   7.694  0.3204  0.4706  0.2323
   78CHL1   H17 8203   0.640   2.958   7.677 -0.3676  0.7623  0.4256
   78CHL1   C13 8204   0.771   3.087   7.570 -0.1452 -0.6130 -0.1312
   78CHL1   C18 8205   0.865   3.209   7.583  0.3526 -0.5582  0.1488
   78CHL1  H18A 8206   0.810   3.279   7.651 -1.7369 -0.8824 -1.1096
   78CHL1  H18B 8207   0.960   3.176   7.629  1.1717 -0.4967 -1.4559
   78CHL1  H18C 8208   0.880   3.267   7.490  0.2803 -1.5241 -0.4726
   78CHL1   C12 8209   0.831   2.965   7.499  0.1228  0.2221  0.1298
   78CHL1  H12A 8210   0.920   2.929   7.553 -0.5621 -2.1552 -0.2362
   78CHL1  H12B 8211   0.761   2.879   7.499  1.3232 -0.7638  0.4498
   78CHL1   C11 8212   0.871   3.001   7.356  0.5918  0.3077 -0.2415
   78CHL1  H11A 8213   0.952   3.075   7.373 -1.8627  2.7153  1.7866
   78CHL1  H11B 8214   0.899   2.904   7.310 -1.0667 -0.7266  0.8392
   78CHL1    C9 8215   0.759   3.056   7.269 -0.4596  0.3100 -0.6108
   78CHL1    H9 8216   0.690   2.972   7.245 -0.0611 -0.1063 -0.3321
   78CHL1   C10 8217   0.801   3.094   7.120  0.3478  0.5556 -0.5553
   78CHL1   C19 8218   0.937   3.184   7.136  0.7960 -0.7791 -0.2636
   78CHL1  H19A 8219   1.026   3.117   7.145  0.5281 -0.8639  3.2443
   78CHL1  H19B 8220   0.958   3.252   7.051  1.8042 -0.6246  0.0857
   78CHL1  H19C 8221   0.932   3.257   7.220  1.2446 -1.3044  0.2273
   78CHL1    C1 8222   0.836   2.965   7.041 -0.3700 -0.8603 -0.3582
   78CHL1   H1A 8223   0.913   2.917   7.105  0.4592  0.6429 -0.1909
   78CHL1   H1B 8224   0.747   2.900   7.037 -1.2873  0.4112 -1.5237
   78CHL1    C2 8225   0.894   3.004   6.903 -0.0273  0.1485 -0.6811
   78CHL1   H2A 8226   0.911   2.909   6.846  0.3552  0.9789 -2.0033
   78CHL1   H2B 8227   0.982   3.072   6.903 -0.0837  0.2227 -0.2207
   78CHL1   C20 8228   0.758   3.043   7.830 -0.2969 -0.0341  0.2559
   78CHL1   H20 8229   0.801   3.145   7.836 -0.3321  0.0608 -0.8927
   78CHL1   C21 8230   0.876   2.940   7.828  0.4669  0.8208 -0.2536
   78CHL1  H21A 8231   0.938   2.943   7.736 -0.1616 -0.2292 -0.7317
   78CHL1  H21B 8232   0.848   2.833   7.829 -0.5667  1.0755  0.5559
   78CHL1  H21C 8233   0.949   2.956   7.911 -0.2764 -0.5031  0.6985
   78CHL1   C22 8234   0.669   3.031   7.951  0.3295  0.2963 -0.1212
   78CHL1  H22A 8235   0.580   3.098   7.947 -0.8973 -1.3357 -2.2116
   78CHL1  H22B 8236   0.631   2.928   7.964  0.1455  0.0232 -2.4276
   78CHL1   C23 8237   0.747   3.075   8.082 -0.4915 -0.0520 -0.1422
   78CHL1  H23A 8238   0.842   3.017   8.079 -0.4999 -0.2752  2.0139
   78CHL1  H23B 8239   0.775   3.182   8.080  3.0227 -0.8359  0.7413
   78CHL1   C24 8240   0.680   3.033   8.219 -0.8225 -0.2307 -0.2294
   78CHL1  H24A 8241   0.593   3.101   8.235 -0.4115 -0.0967  1.5784
   78CHL1  H24B 8242   0.640   2.934   8.188 -0.2403 -0.7956  0.8128
   78CHL1   C25 8243   0.765   3.020   8.346 -0.2228 -0.9004  0.3431
   78CHL1   H25 8244   0.866   2.997   8.307 -0.4877 -0.3968 -0.6663
   78CHL1   C26 8245   0.776   3.160   8.409  0.4515  0.8000 -0.1342
   78CHL1  H26A 8246   0.827   3.158   8.508 -0.0827 -1.4237  0.1486
   78CHL1  H26B 8247   0.832   3.232   8.345  2.1315  3.1883  3.6650
   78CHL1  H26C 8248   0.671   3.192   8.426 -0.5642 -1.6412 -1.2695
   78CHL1   C27 8249   0.690   2.910   8.432 -0.2077  0.0657  0.0069
   78CHL1  H27A 8250   0.667   2.821   8.369 -1.3058  1.1557 -1.2133
   78CHL1  H27B 8251   0.754   2.888   8.520  2.1523 -0.6093 -1.7675
   78CHL1  H27C 8252   0.595   2.957   8.463  1.4331  3.2171  0.7124
   79CHL1    C3 8253   4.824   3.643   7.272  0.0150 -0.2379 -0.3572
   79CHL1    H3 8254   4.718   3.640   7.306 -0.2410 -2.2478 -1.2004
   79CHL1    O3 8255   4.823   3.668   7.130 -0.3509  0.5062 -0.1402
   79CHL1   H3' 8256   4.859   3.591   7.086 -0.5212  0.4143 -0.1168
   79CHL1    C4 8257   4.902   3.749   7.350 -0.3255  0.1272  0.2801
   79CHL1   H4A 8258   5.001   3.759   7.301 -0.1481  2.6231  1.0375
   79CHL1   H4B 8259   4.856   3.849   7.342  0.9916  0.8316  1.0529
   79CHL1    C5 8260   4.937   3.713   7.489  0.7116  0.6940 -0.2078
   79CHL1    C6 8261   4.917   3.804   7.584 -1.0184 -0.6639  0.3187
   79CHL1    H6 8262   4.912   3.911   7.559  2.5905 -0.7542 -1.4506
   79CHL1    C7 8263   4.939   3.781   7.726  1.1381 -0.6381  0.6024
   79CHL1   H7A 8264   5.015   3.855   7.760  1.2788 -0.8402  0.7254
   79CHL1   H7B 8265   4.849   3.805   7.786  1.7189 -0.1912  1.3058
   79CHL1    C8 8266   4.996   3.639   7.760  0.0175  0.2989  0.0666
   79CHL1    H8 8267   5.106   3.647   7.746 -0.0345  0.8846 -0.0264
   79CHL1   C14 8268   4.963   3.606   7.903  0.2605  0.1089 -0.2243
   79CHL1   H14 8269   4.854   3.589   7.914  0.7459 -3.1935  0.5739
   79CHL1   C15 8270   4.997   3.703   8.009 -0.5428 -0.6593  0.7479
   79CHL1  H15A 8271   5.093   3.757   7.992 -1.2562  0.1396 -0.9183
   79CHL1  H15B 8272   4.922   3.785   8.018 -0.9796 -0.9385 -0.2835
   79CHL1   C16 8273   4.998   3.618   8.142  0.0382 -0.5764  0.1462
   79CHL1  H16A 8274   5.098   3.634   8.186  0.8658 -0.8810 -1.5156
   79CHL1  H16B 8275   4.915   3.642   8.212 -1.1418 -0.3803 -1.2655
   79CHL1   C17 8276   4.982   3.473   8.104  0.4448 -0.4455  0.2308
   79CHL1   H17 8277   4.877   3.439   8.118  0.7412 -1.6106 -0.2787
   79CHL1   C13 8278   5.017   3.467   7.950  0.0255  0.3405 -0.1745
   79CHL1   C18 8279   5.171   3.463   7.921  0.2734 -0.4258  0.4986
   79CHL1  H18A 8280   5.212   3.554   7.970 -2.2059  0.6126  0.8201
   79CHL1  H18B 8281   5.208   3.373   7.975  0.2374 -0.6601  0.1334
   79CHL1  H18C 8282   5.196   3.459   7.813 -2.5215  1.8935 -0.3503
   79CHL1   C12 8283   4.948   3.356   7.866  0.2174  0.6242 -0.4244
   79CHL1  H12A 8284   4.991   3.256   7.884  0.6566  0.7787 -0.6030
   79CHL1  H12B 8285   4.838   3.362   7.879  0.2708  3.9235 -0.6250
   79CHL1   C11 8286   4.979   3.384   7.719  0.1012  0.1881  0.1212
   79CHL1  H11A 8287   5.085   3.358   7.695  0.7827 -0.1129  3.0632
   79CHL1  H11B 8288   4.917   3.311   7.662  1.3079 -1.2177  0.5310
   79CHL1    C9 8289   4.944   3.528   7.665 -0.0654 -0.5402  0.1766
   79CHL1    H9 8290   4.835   3.539   7.687  0.2239 -1.3969  2.3074
   79CHL1   C10 8291   4.962   3.565   7.517  0.1671  0.7289 -0.5542
   79CHL1   C19 8292   5.113   3.533   7.486  0.1099 -1.0852 -0.2243
   79CHL1  H19A 8293   5.173   3.601   7.550 -2.8245 -0.2866  1.9117
   79CHL1  H19B 8294   5.144   3.427   7.501  0.8102 -0.8400  0.0803
   79CHL1  H19C 8295   5.131   3.562   7.380 -0.1356  0.8189  0.2275
   79CHL1    C1 8296   4.868   3.469   7.436 -0.1328 -0.1894  0.0926
   79CHL1   H1A 8297   4.900   3.363   7.452 -1.4368 -0.8933 -1.6383
   79CHL1   H1B 8298   4.762   3.481   7.467  0.1414  2.0927  0.2816
   79CHL1    C2 8299   4.876   3.499   7.288 -0.1172  0.5771 -0.2055
   79CHL1   H2A 8300   4.802   3.434   7.236  0.6932  0.3442 -1.0956
   79CHL1   H2B 8301   4.979   3.479   7.253 -0.3078 -0.9067 -0.0055
   79CHL1   C20 8302   5.062   3.380   8.199 -0.0953 -0.7415 -0.5606
   79CHL1   H20 8303   5.173   3.388   8.196 -0.2150  1.0089 -2.6752
   79CHL1   C21 8304   5.033   3.238   8.161 -0.2768 -0.0083  0.1024
   79CHL1  H21A 8305   5.081   3.209   8.065  2.2249 -0.0485  1.2657
   79CHL1  H21B 8306   4.923   3.224   8.161 -0.2269 -0.4465 -0.7120
   79CHL1  H21C 8307   5.069   3.170   8.242 -0.4837 -1.3398 -0.9092
   79CHL1   C22 8308   5.018   3.411   8.347  0.1311 -0.0115 -0.2183
   79CHL1  H22A 8309   5.015   3.520   8.369  0.5554 -0.0559  0.0778
   79CHL1  H22B 8310   4.912   3.382   8.363 -0.6331  1.8908 -1.4061
   79CHL1   C23 8311   5.094   3.335   8.459 -0.2942  0.1662  0.3463
   79CHL1  H23A 8312   5.082   3.227   8.436 -1.0718  0.1084  1.0019
   79CHL1  H23B 8313   5.202   3.362   8.452 -0.4809  1.0661  0.7707
   79CHL1   C24 8314   5.022   3.359   8.589  0.1959  0.2108  0.2650
   79CHL1  H24A 8315   5.026   3.469   8.606 -1.5015  0.5711 -1.3173
   79CHL1  H24B 8316   4.919   3.320   8.581  0.6717 -0.8520 -1.0786
   79CHL1   C25 8317   5.087   3.295   8.720 -0.1539  0.0860  0.7401
   79CHL1   H25 8318   5.039   3.338   8.810 -1.4281 -1.1758  0.6884
   79CHL1   C26 8319   5.071   3.144   8.726 -0.5942  0.6002 -0.4357
   79CHL1  H26A 8320   5.115   3.094   8.637  2.6567  0.2715  1.2160
   79CHL1  H26B 8321   5.142   3.104   8.802 -0.2601 -2.1360 -2.0547
   79CHL1  H26C 8322   4.965   3.116   8.741 -1.2657  3.0197 -0.2561
   79CHL1   C27 8323   5.236   3.336   8.737 -0.5617 -0.2443 -0.8510
   79CHL1  H27A 8324   5.266   3.309   8.840 -0.9430 -0.1506 -0.7119
   79CHL1  H27B 8325   5.313   3.299   8.666  0.4913  1.2307 -0.5228
   79CHL1  H27C 8326   5.243   3.446   8.740 -0.3310 -0.2456 -1.2280
   80CHL1    C3 8327   4.243   6.599   7.124 -0.0126 -0.2051 -0.0743
   80CHL1    H3 8328   4.134   6.607   7.101 -0.2228  0.9761  1.1577
   80CHL1    O3 8329   4.304   6.588   7.001  0.3382 -0.4664 -0.1806
   80CHL1   H3' 8330   4.261   6.661   6.954  0.4400  0.3231  0.9212
   80CHL1    C4 8331   4.290   6.728   7.198 -0.1774  0.3631  0.9131
   80CHL1   H4A 8332   4.400   6.742   7.207 -0.1638  0.2579  0.9177
   80CHL1   H4B 8333   4.269   6.805   7.121 -0.7390 -2.6479 -2.1758
   80CHL1    C5 8334   4.232   6.740   7.336 -0.5171 -0.3581  0.2354
   80CHL1    C6 8335   4.164   6.853   7.371 -0.1505  0.3346  0.0472
   80CHL1    H6 8336   4.155   6.938   7.302  1.8138 -0.5975 -1.4292
   80CHL1    C7 8337   4.123   6.873   7.515 -0.1487  0.0781 -0.4214
   80CHL1   H7A 8338   4.147   6.979   7.537  0.9103 -0.2875  0.2326
   80CHL1   H7B 8339   4.012   6.869   7.510 -0.2062  0.0367  0.6708
   80CHL1    C8 8340   4.190   6.785   7.618 -0.0379  0.0168  0.3388
   80CHL1    H8 8341   4.292   6.823   7.641  0.7264 -0.9986 -1.2590
   80CHL1   C14 8342   4.113   6.791   7.754  0.3257 -0.6611  0.7431
   80CHL1   H14 8343   4.014   6.757   7.719 -0.2052  0.7816  0.7533
   80CHL1   C15 8344   4.097   6.932   7.819  0.1757 -0.5807  0.2253
   80CHL1  H15A 8345   4.198   6.978   7.822 -0.8425  2.0220 -1.3697
   80CHL1  H15B 8346   4.026   6.998   7.764  1.3676  0.8535  0.3531
   80CHL1   C16 8347   4.066   6.895   7.962 -0.9612 -0.2011  0.3145
   80CHL1  H16A 8348   4.145   6.939   8.026 -0.3442 -0.1271 -0.4891
   80CHL1  H16B 8349   3.964   6.922   7.998 -0.8063  1.9155 -0.7138
   80CHL1   C17 8350   4.078   6.742   7.982  0.0637 -0.1648 -0.3149
   80CHL1   H17 8351   3.975   6.703   7.968 -0.1076 -0.3816  1.3826
   80CHL1   C13 8352   4.168   6.701   7.861 -0.0604  0.3329 -0.4681
   80CHL1   C18 8353   4.315   6.739   7.892 -0.3520  0.1288  0.4805
   80CHL1  H18A 8354   4.322   6.848   7.913  1.8428  0.5380 -1.8686
   80CHL1  H18B 8355   4.358   6.674   7.972 -1.6303 -3.3691 -1.4297
   80CHL1  H18C 8356   4.379   6.717   7.804 -1.5118  2.5867 -1.0955
   80CHL1   C12 8357   4.158   6.555   7.815  0.6103 -0.1752  0.0541
   80CHL1  H12A 8358   4.196   6.483   7.890  0.0314  0.1245  0.6485
   80CHL1  H12B 8359   4.055   6.519   7.796  1.3283 -2.3468  0.0912
   80CHL1   C11 8360   4.228   6.533   7.677 -0.8908 -0.3639 -0.1667
   80CHL1  H11A 8361   4.336   6.530   7.703 -1.3531 -0.6513  1.8443
   80CHL1  H11B 8362   4.204   6.429   7.646 -1.5707 -0.1252 -0.4521
   80CHL1    C9 8363   4.190   6.640   7.565 -0.7193  0.3605  1.0585
   80CHL1    H9 8364   4.085   6.607   7.547  0.0549 -0.8456 -1.7802
   80CHL1   C10 8365   4.268   6.625   7.432  0.0846  0.0129 -1.1972
   80CHL1   C19 8366   4.423   6.619   7.461 -0.3738 -0.3031  0.2075
   80CHL1  H19A 8367   4.481   6.592   7.370  0.3488 -1.7811  1.0731
   80CHL1  H19B 8368   4.451   6.725   7.482  1.0423 -0.3746 -1.1091
   80CHL1  H19C 8369   4.460   6.553   7.542  0.9864  0.1329 -0.0297
   80CHL1    C1 8370   4.228   6.491   7.355  0.6172 -0.1457 -0.0843
   80CHL1   H1A 8371   4.263   6.397   7.403 -0.3832 -1.0495 -1.0558
   80CHL1   H1B 8372   4.119   6.499   7.339  0.6920  2.6349  0.3772
   80CHL1    C2 8373   4.271   6.475   7.207 -0.2198  0.2699 -0.3493
   80CHL1   H2A 8374   4.227   6.385   7.160  0.0600  0.1073 -0.3034
   80CHL1   H2B 8375   4.377   6.442   7.213 -0.9029 -2.1284 -0.4843
   80CHL1   C20 8376   4.113   6.703   8.125 -0.6743 -0.2522 -0.1857
   80CHL1   H20 8377   4.221   6.729   8.132 -1.2921  2.0086  2.6615
   80CHL1   C21 8378   4.121   6.551   8.155  0.0670 -0.4161  0.0449
   80CHL1  H21A 8379   4.217   6.503   8.125  0.8715  1.3624 -0.3485
   80CHL1  H21B 8380   4.041   6.504   8.094 -1.1309  0.1499  1.1377
   80CHL1  H21C 8381   4.097   6.527   8.260  0.2354  1.7269  0.6066
   80CHL1   C22 8382   4.028   6.781   8.233 -0.3578  0.1980 -0.2666
   80CHL1  H22A 8383   4.029   6.888   8.204 -0.4751  0.7397  1.6004
   80CHL1  H22B 8384   3.932   6.727   8.245  0.0738 -0.1676  2.1586
   80CHL1   C23 8385   4.093   6.779   8.371  0.0171 -0.2307 -1.0126
   80CHL1  H23A 8386   4.075   6.685   8.427 -1.9842  0.1900 -0.8792
   80CHL1  H23B 8387   4.203   6.790   8.366  0.4397 -2.2407  1.8115
   80CHL1   C24 8388   4.030   6.892   8.458  0.4559 -0.2617  0.3408
   80CHL1  H24A 8389   4.051   6.996   8.427 -0.0682  0.5322  2.4575
   80CHL1  H24B 8390   3.920   6.882   8.465  0.4794  0.7242  4.2359
   80CHL1   C25 8391   4.097   6.908   8.599  0.0434 -0.4161  0.5513
   80CHL1   H25 8392   4.207   6.919   8.588  0.5173 -4.5885 -0.7881
   80CHL1   C26 8393   4.049   7.044   8.663  0.4961  0.3657 -0.0689
   80CHL1  H26A 8394   4.107   7.069   8.754  0.6309  0.5569 -0.2063
   80CHL1  H26B 8395   4.042   7.132   8.595  0.2911  0.3160 -0.1135
   80CHL1  H26C 8396   3.945   7.037   8.700 -0.3278  5.0697 -0.8399
   80CHL1   C27 8397   4.063   6.782   8.684 -0.3505  0.1840 -0.4958
   80CHL1  H27A 8398   4.100   6.693   8.629  1.3083  0.0531  0.7675
   80CHL1  H27B 8399   4.086   6.791   8.792 -1.1321  1.7070 -0.4291
   80CHL1  H27C 8400   3.952   6.772   8.689 -0.5153  1.1372 -1.6659
   81CHL1    C3 8401   0.860   0.332   6.970 -0.6431  0.6200  0.2035
   81CHL1    H3 8402   0.866   0.230   7.015 -1.5381 -0.1918 -1.4336
   81CHL1    O3 8403   0.823   0.315   6.834  0.2030  0.6631  0.2690
   81CHL1   H3' 8404   0.861   0.383   6.778 -0.0091 -1.0120 -1.9994
   81CHL1    C4 8405   0.754   0.406   7.053 -0.1374 -0.4553  0.3974
   81CHL1   H4A 8406   0.734   0.496   6.990  0.6419  0.4675  1.4244
   81CHL1   H4B 8407   0.658   0.351   7.044 -1.8184  2.5145 -1.4747
   81CHL1    C5 8408   0.793   0.442   7.199 -0.6569  0.0556  0.4431
   81CHL1    C6 8409   0.718   0.403   7.307  0.1757 -0.1515  0.6054
   81CHL1    H6 8410   0.619   0.362   7.283 -0.6333  1.1724  1.5411
   81CHL1    C7 8411   0.754   0.426   7.449 -0.2809 -0.4648 -0.5535
   81CHL1   H7A 8412   0.664   0.472   7.494 -0.2025  0.3633 -1.2387
   81CHL1   H7B 8413   0.768   0.337   7.514 -0.9085  0.2409  0.5828
   81CHL1    C8 8414   0.867   0.528   7.466  0.3423  0.5293  0.9179
   81CHL1    H8 8415   0.826   0.627   7.437  0.4882  0.3476  0.0613
   81CHL1   C14 8416   0.910   0.517   7.613 -0.4796  0.0828  0.1083
   81CHL1   H14 8417   0.948   0.412   7.616  2.5354  1.0990  0.6479
   81CHL1   C15 8418   0.808   0.525   7.734 -0.7247  0.6749 -0.1102
   81CHL1  H15A 8419   0.739   0.612   7.728 -1.4254  0.1556  0.2585
   81CHL1  H15B 8420   0.752   0.431   7.753 -1.7821  1.4466  0.7794
   81CHL1   C16 8421   0.905   0.550   7.854 -0.3394 -0.3445  0.7016
   81CHL1  H16A 8422   0.877   0.648   7.899 -0.7737 -0.5025  0.7848
   81CHL1  H16B 8423   0.892   0.473   7.933  1.4551  0.3354  1.7072
   81CHL1   C17 8424   1.054   0.567   7.794  0.2066  0.1122 -0.4678
   81CHL1   H17 8425   1.096   0.464   7.791 -1.2445 -0.6970  2.6200
   81CHL1   C13 8426   1.031   0.602   7.650 -0.3685  0.4946  0.5421
   81CHL1   C18 8427   0.991   0.757   7.633  0.4457 -0.1714 -0.8195
   81CHL1  H18A 8428   0.920   0.805   7.704  0.5086 -0.3779 -0.6167
   81CHL1  H18B 8429   1.083   0.819   7.622 -0.0535  0.6733 -0.3454
   81CHL1  H18C 8430   0.950   0.760   7.529 -1.5424 -1.7459 -0.1459
   81CHL1   C12 8431   1.150   0.585   7.557  0.2001  0.3418 -0.1577
   81CHL1  H12A 8432   1.224   0.664   7.578  0.0677  0.3399  0.3203
   81CHL1  H12B 8433   1.199   0.492   7.592  1.2815  0.4717 -1.2740
   81CHL1   C11 8434   1.107   0.578   7.404  0.0890 -0.2766  0.0237
   81CHL1  H11A 8435   1.101   0.684   7.371 -0.8286  0.6985  2.9713
   81CHL1  H11B 8436   1.189   0.535   7.344  0.8143  0.2216  0.6441
   81CHL1    C9 8437   0.975   0.499   7.371 -0.9725  0.6236  0.3797
   81CHL1    H9 8438   1.011   0.396   7.393  1.0779  1.0910 -0.5360
   81CHL1   C10 8439   0.934   0.505   7.211  0.2633  0.2912 -0.4061
   81CHL1   C19 8440   0.911   0.648   7.163 -0.2507  0.8846  0.1170
   81CHL1  H19A 8441   0.846   0.702   7.235 -0.2753  2.0044 -0.7300
   81CHL1  H19B 8442   1.009   0.700   7.161  0.6886 -0.8258 -1.0505
   81CHL1  H19C 8443   0.859   0.649   7.065  1.1787 -0.3441 -0.6920
   81CHL1    C1 8444   1.037   0.422   7.131 -0.7645 -0.4776 -0.5911
   81CHL1   H1A 8445   1.130   0.482   7.131  0.4494 -2.2197  1.1817
   81CHL1   H1B 8446   1.066   0.321   7.167 -2.0309 -0.9593 -0.8780
   81CHL1    C2 8447   0.997   0.401   6.984 -0.5691  0.3065 -0.4736
   81CHL1   H2A 8448   1.089   0.349   6.949 -0.1260 -0.0037  1.0993
   81CHL1   H2B 8449   0.990   0.502   6.939  2.4198  0.4091 -0.9044
   81CHL1   C20 8450   1.149   0.649   7.887 -1.0214 -0.3834 -0.9593
   81CHL1   H20 8451   1.120   0.756   7.886  1.3292  0.3290 -0.6907
   81CHL1   C21 8452   1.294   0.636   7.834 -0.7347  0.3227  0.3205
   81CHL1  H21A 8453   1.317   0.691   7.740  1.6679 -2.1704 -0.6883
   81CHL1  H21B 8454   1.323   0.530   7.817  3.7315  0.9216  2.6926
   81CHL1  H21C 8455   1.363   0.673   7.913 -0.1587  3.5735 -1.5355
   81CHL1   C22 8456   1.127   0.599   8.035 -0.2875  0.1750 -0.4171
   81CHL1  H22A 8457   1.022   0.627   8.058 -0.1550  0.3305  0.0234
   81CHL1  H22B 8458   1.149   0.490   8.041 -0.9319  0.0193 -0.8385
   81CHL1   C23 8459   1.225   0.658   8.141  0.0441 -0.0465  0.5979
   81CHL1  H23A 8460   1.326   0.620   8.114 -1.3707 -3.8258 -0.0768
   81CHL1  H23B 8461   1.227   0.766   8.114 -2.6816 -0.6145 -2.5173
   81CHL1   C24 8462   1.188   0.634   8.283 -0.1348 -0.5085  0.3674
   81CHL1  H24A 8463   1.087   0.675   8.307 -1.0419 -2.1811 -0.4035
   81CHL1  H24B 8464   1.186   0.526   8.308  2.9133 -1.0917 -1.4760
   81CHL1   C25 8465   1.302   0.693   8.377 -0.0899 -0.1428  0.1215
   81CHL1   H25 8466   1.393   0.664   8.321 -0.0425  0.9244 -0.3709
   81CHL1   C26 8467   1.302   0.848   8.385 -1.4054 -0.2555  0.2546
   81CHL1  H26A 8468   1.391   0.886   8.438 -1.6940  0.5149  0.2054
   81CHL1  H26B 8469   1.293   0.887   8.281  0.5598  0.4557  0.3113
   81CHL1  H26C 8470   1.216   0.889   8.443  1.1812  1.7861  2.9724
   81CHL1   C27 8471   1.298   0.629   8.511  0.1388  0.0965 -0.1218
   81CHL1  H27A 8472   1.252   0.528   8.511 -1.4544  0.7868 -0.7997
   81CHL1  H27B 8473   1.406   0.620   8.535  0.1201  0.5102  0.1412
   81CHL1  H27C 8474   1.242   0.680   8.593 -1.4995 -1.2955 -0.3230
   82CHL1    C3 8475   3.192   6.496   7.207  0.3016  0.2386 -0.2796
   82CHL1    H3 8476   3.227   6.396   7.240  0.1619  0.1817 -0.3020
   82CHL1    O3 8477   3.189   6.485   7.068 -0.2821  0.5591 -0.1604
   82CHL1   H3' 8478   3.201   6.575   7.038  3.0543  0.5445  0.7074
   82CHL1    C4 8479   3.057   6.545   7.259 -0.2892 -0.6371  0.8290
   82CHL1   H4A 8480   3.039   6.636   7.197  0.7078 -2.0485 -1.6894
   82CHL1   H4B 8481   2.988   6.465   7.223 -1.6395  0.2329  1.3952
   82CHL1    C5 8482   3.055   6.568   7.402 -0.1517  0.2112  1.1057
   82CHL1    C6 8483   2.966   6.503   7.478  0.1998 -0.4239 -0.3116
   82CHL1    H6 8484   2.896   6.438   7.425 -2.3999  2.3806 -0.6095
   82CHL1    C7 8485   2.954   6.518   7.627  0.5763 -0.2162 -0.3925
   82CHL1   H7A 8486   2.847   6.536   7.648 -0.1077  1.3706 -4.2761
   82CHL1   H7B 8487   3.003   6.433   7.680  2.5226  0.1492 -1.5162
   82CHL1    C8 8488   3.035   6.636   7.682  0.0243  0.0868 -0.4217
   82CHL1    H8 8489   2.968   6.724   7.669  0.0056  0.0320 -0.7082
   82CHL1   C14 8490   3.064   6.634   7.831  0.0269 -0.4297 -0.5416
   82CHL1   H14 8491   3.138   6.551   7.842  0.1833 -0.2779 -0.4502
   82CHL1   C15 8492   2.940   6.598   7.913 -0.6429  0.1860 -0.1375
   82CHL1  H15A 8493   2.855   6.657   7.872 -0.5869  1.7916  1.8873
   82CHL1  H15B 8494   2.907   6.492   7.917 -2.1973  0.6734  0.7710
   82CHL1   C16 8495   2.980   6.652   8.055 -0.5474 -0.4822 -0.2360
   82CHL1  H16A 8496   2.908   6.729   8.090  1.2340  1.1818 -0.1004
   82CHL1  H16B 8497   2.982   6.563   8.122 -1.4925 -0.6920 -0.4741
   82CHL1   C17 8498   3.127   6.718   8.043 -1.0725 -0.7697 -0.0705
   82CHL1   H17 8499   3.201   6.635   8.053  2.1113  1.4624 -2.7451
   82CHL1   C13 8500   3.129   6.757   7.888 -0.1487  0.1866  0.9688
   82CHL1   C18 8501   3.046   6.888   7.865  0.2765 -0.4947 -0.0148
   82CHL1  H18A 8502   3.032   6.897   7.756 -0.4858  0.7585  0.1788
   82CHL1  H18B 8503   2.945   6.870   7.907  0.0905 -1.2249 -0.7588
   82CHL1  H18C 8504   3.081   6.981   7.914  0.6849 -0.3573 -0.5529
   82CHL1   C12 8505   3.271   6.760   7.826  0.4230  0.2774 -0.4089
   82CHL1  H12A 8506   3.343   6.835   7.865 -0.1402  0.3643  0.4997
   82CHL1  H12B 8507   3.316   6.661   7.845 -0.7235  0.1347  1.8270
   82CHL1   C11 8508   3.260   6.763   7.670 -0.1275 -0.1571 -0.1582
   82CHL1  H11A 8509   3.227   6.868   7.656 -0.1114  0.1187  1.5697
   82CHL1  H11B 8510   3.355   6.751   7.614 -1.4865 -0.2171 -2.5835
   82CHL1    C9 8511   3.164   6.655   7.604  0.0476 -0.4556 -0.3207
   82CHL1    H9 8512   3.218   6.558   7.609  0.6755 -0.1780 -1.3317
   82CHL1   C10 8513   3.153   6.666   7.449  0.0535  0.6546 -0.7415
   82CHL1   C19 8514   3.121   6.812   7.409 -0.3740 -0.3926 -0.1518
   82CHL1  H19A 8515   3.169   6.886   7.476  1.4092  0.3348 -2.1336
   82CHL1  H19B 8516   3.163   6.825   7.307  0.1866 -0.8178  0.0194
   82CHL1  H19C 8517   3.011   6.823   7.397 -0.3120  0.4541  0.0407
   82CHL1    C1 8518   3.296   6.638   7.396  0.9135 -0.3133  0.7728
   82CHL1   H1A 8519   3.359   6.727   7.414  0.1518  0.3959  0.0464
   82CHL1   H1B 8520   3.341   6.550   7.447  1.6390 -0.6107 -0.3681
   82CHL1    C2 8521   3.304   6.598   7.241  0.8780  0.7245 -0.0570
   82CHL1   H2A 8522   3.406   6.567   7.208  0.5025  1.5922 -2.1531
   82CHL1   H2B 8523   3.278   6.691   7.186 -0.5976  0.1582 -0.3599
   82CHL1   C20 8524   3.160   6.824   8.150 -0.5292  0.5293 -0.0042
   82CHL1   H20 8525   3.085   6.905   8.132 -0.7050  0.2271 -0.6588
   82CHL1   C21 8526   3.290   6.887   8.110  0.0059 -0.6009  0.2287
   82CHL1  H21A 8527   3.264   6.949   8.022  1.0079 -2.4537 -1.4367
   82CHL1  H21B 8528   3.375   6.822   8.081  1.1868  0.6590  0.7107
   82CHL1  H21C 8529   3.325   6.957   8.189 -3.8736 -2.0141  3.5563
   82CHL1   C22 8530   3.165   6.754   8.284 -0.6000  0.2549 -1.0695
   82CHL1  H22A 8531   3.056   6.740   8.302 -0.6523  0.5062 -1.1793
   82CHL1  H22B 8532   3.217   6.656   8.289  0.0216  0.6305  2.0396
   82CHL1   C23 8533   3.215   6.844   8.396 -0.0259  0.0019  0.1485
   82CHL1  H23A 8534   3.324   6.851   8.376  0.1399 -0.9600  0.6598
   82CHL1  H23B 8535   3.181   6.949   8.388  2.9153  1.1495  1.3118
   82CHL1   C24 8536   3.173   6.787   8.533 -0.0065 -0.3006  0.4979
   82CHL1  H24A 8537   3.063   6.788   8.552  0.2901 -1.2340  2.4572
   82CHL1  H24B 8538   3.195   6.679   8.548 -1.2362 -0.5205  0.8576
   82CHL1   C25 8539   3.241   6.854   8.651 -0.6506  0.1993  0.2845
   82CHL1   H25 8540   3.347   6.873   8.622 -0.3379 -0.3123  1.0452
   82CHL1   C26 8541   3.177   6.993   8.683  0.4141  0.1487 -1.3548
   82CHL1  H26A 8542   3.238   7.042   8.762  0.8405 -2.0607 -0.2386
   82CHL1  H26B 8543   3.181   7.049   8.587 -0.7029  1.4324 -0.6843
   82CHL1  H26C 8544   3.071   6.984   8.713  0.4775  3.3465  0.2737
   82CHL1   C27 8545   3.235   6.767   8.778  0.6943  0.1800  0.3906
   82CHL1  H27A 8546   3.280   6.668   8.753 -0.3827 -0.1786 -0.1732
   82CHL1  H27B 8547   3.291   6.819   8.859  2.2834  0.4237 -0.8103
   82CHL1  H27C 8548   3.132   6.739   8.806 -0.9729  2.6064 -2.7312
   83CHL1    C3 8549   4.909   2.708   7.099 -0.0776 -0.4296  1.5282
   83CHL1    H3 8550   4.802   2.723   7.125 -0.5780  0.1757 -0.6584
   83CHL1    O3 8551   4.902   2.706   6.954 -0.1139 -0.0983  0.9437
   83CHL1   H3' 8552   4.993   2.706   6.925 -0.9388  1.7685 -2.0971
   83CHL1    C4 8553   4.986   2.827   7.138 -0.4043  0.5435  0.2193
   83CHL1   H4A 8554   5.092   2.825   7.103 -0.3728  1.1523  0.2715
   83CHL1   H4B 8555   4.952   2.926   7.101 -0.2022  0.9451  1.0579
   83CHL1    C5 8556   4.996   2.827   7.290 -0.0212  0.5913 -0.2139
   83CHL1    C6 8557   4.950   2.931   7.361 -0.1550  0.2048 -0.5358
   83CHL1    H6 8558   4.892   3.011   7.313 -2.2151 -0.7069  0.3205
   83CHL1    C7 8559   4.970   2.957   7.515  0.2905 -0.5090  0.0745
   83CHL1   H7A 8560   5.005   3.061   7.535  3.3081 -0.8144 -2.7306
   83CHL1   H7B 8561   4.881   2.941   7.579  0.4568 -0.4168  0.3318
   83CHL1    C8 8562   5.086   2.867   7.573  0.5738  0.3543 -0.7588
   83CHL1    H8 8563   5.184   2.910   7.541  2.1165 -1.5674  1.1148
   83CHL1   C14 8564   5.091   2.852   7.728  0.0615  0.2427 -0.6499
   83CHL1   H14 8565   5.000   2.795   7.756 -0.2994 -0.4543 -3.0456
   83CHL1   C15 8566   5.076   2.979   7.804  0.0215 -0.2232  0.1441
   83CHL1  H15A 8567   5.151   3.049   7.761 -0.1090 -1.0962 -1.5719
   83CHL1  H15B 8568   4.977   3.028   7.792 -0.4659 -1.4760 -1.1457
   83CHL1   C16 8569   5.124   2.946   7.951  0.0563  0.3121  0.0491
   83CHL1  H16A 8570   5.212   3.011   7.971 -0.9426  1.5260  0.6371
   83CHL1  H16B 8571   5.032   2.961   8.011  0.0270 -1.0277  0.3671
   83CHL1   C17 8572   5.171   2.796   7.944 -0.5893 -0.1448 -0.6170
   83CHL1   H17 8573   5.079   2.741   7.972 -0.8306  0.7339  0.4094
   83CHL1   C13 8574   5.202   2.770   7.791 -0.1784  0.4530  0.0166
   83CHL1   C18 8575   5.341   2.837   7.754 -0.5349  0.0675  0.5704
   83CHL1  H18A 8576   5.353   2.938   7.799 -3.0863  0.8834 -0.4184
   83CHL1  H18B 8577   5.420   2.766   7.788  0.9833  1.3075 -0.2365
   83CHL1  H18C 8578   5.350   2.846   7.644 -1.7860 -1.5023  0.2984
   83CHL1   C12 8579   5.185   2.624   7.731  0.3281 -0.2123  0.2652
   83CHL1  H12A 8580   5.260   2.554   7.773  0.3317  0.8080  2.0734
   83CHL1  H12B 8581   5.091   2.585   7.776  0.5081 -0.1887  0.6692
   83CHL1   C11 8582   5.175   2.625   7.581  0.5571 -0.2544  0.4588
   83CHL1  H11A 8583   5.277   2.651   7.547  0.3893  2.9337  1.9686
   83CHL1  H11B 8584   5.144   2.521   7.556 -1.2478  0.4781 -0.6130
   83CHL1    C9 8585   5.074   2.723   7.512 -0.0278 -0.6343 -0.2686
   83CHL1    H9 8586   4.974   2.695   7.553 -0.1887  0.1228 -0.1352
   83CHL1   C10 8587   5.073   2.715   7.358  0.1999  0.1215 -0.1868
   83CHL1   C19 8588   5.216   2.714   7.296  0.1186 -0.0142 -0.2032
   83CHL1  H19A 8589   5.272   2.623   7.329  1.7619  0.8635 -0.4583
   83CHL1  H19B 8590   5.214   2.701   7.186  1.6177 -1.3415 -0.1083
   83CHL1  H19C 8591   5.262   2.812   7.320 -1.0050  0.1534  1.3873
   83CHL1    C1 8592   4.987   2.592   7.317  0.2287  0.2391  0.1269
   83CHL1   H1A 8593   5.036   2.497   7.345 -1.2929 -0.0026  2.1937
   83CHL1   H1B 8594   4.886   2.591   7.364  0.9237 -2.2749  1.6875
   83CHL1    C2 8595   4.955   2.577   7.164 -0.0895 -0.0082 -0.7630
   83CHL1   H2A 8596   4.879   2.498   7.147  0.4887 -0.1174 -3.2032
   83CHL1   H2B 8597   5.052   2.543   7.122  1.6496  1.9628  1.3462
   83CHL1   C20 8598   5.279   2.764   8.054  0.2201  0.6827  0.0579
   83CHL1   H20 8599   5.366   2.828   8.030  0.0823  0.9517  0.2746
   83CHL1   C21 8600   5.324   2.617   8.028  0.5886 -0.4161  0.4458
   83CHL1  H21A 8601   5.382   2.604   7.935  2.1425 -0.4189  1.3820
   83CHL1  H21B 8602   5.240   2.545   8.038  0.6373 -1.1213 -2.9386
   83CHL1  H21C 8603   5.391   2.580   8.109 -0.5638 -1.4535  0.9552
   83CHL1   C22 8604   5.236   2.795   8.196  0.1720 -0.5920 -1.1308
   83CHL1  H22A 8605   5.196   2.898   8.202  1.1553 -0.2070 -1.0243
   83CHL1  H22B 8606   5.153   2.726   8.222  1.0048 -1.0700  0.3793
   83CHL1   C23 8607   5.344   2.764   8.298  0.6034  0.3431  0.0423
   83CHL1  H23A 8608   5.402   2.670   8.282  0.5241 -0.2509  2.7488
   83CHL1  H23B 8609   5.423   2.841   8.282  1.0169 -0.1479 -0.3297
   83CHL1   C24 8610   5.296   2.771   8.445  0.1394  0.1889 -0.0786
   83CHL1  H24A 8611   5.287   2.881   8.460 -1.4803  0.0276  0.2710
   83CHL1  H24B 8612   5.197   2.720   8.447  0.3594 -0.4659 -2.3050
   83CHL1   C25 8613   5.398   2.714   8.550  0.0707  0.0241  0.0647
   83CHL1   H25 8614   5.402   2.603   8.544  0.0900  0.0675 -0.8862
   83CHL1   C26 8615   5.537   2.773   8.525 -0.6883  0.2012  0.0270
   83CHL1  H26A 8616   5.528   2.883   8.516  1.2059  0.3371 -0.6559
   83CHL1  H26B 8617   5.600   2.740   8.610 -0.3896 -1.5475 -0.8194
   83CHL1  H26C 8618   5.584   2.730   8.433 -1.1969 -0.8381  0.2332
   83CHL1   C27 8619   5.350   2.747   8.692  0.3609  0.1214  0.0844
   83CHL1  H27A 8620   5.240   2.733   8.702  0.6756 -2.1274  0.9107
   83CHL1  H27B 8621   5.400   2.698   8.778  1.0493  2.0297  0.8494
   83CHL1  H27C 8622   5.371   2.856   8.707  1.3737  0.0382 -0.6281
   84CHL1    C3 8623   0.357   6.441   6.950 -0.5721 -0.1802  0.2495
   84CHL1    H3 8624   0.438   6.515   6.970 -1.3687  0.4076  1.4800
   84CHL1    O3 8625   0.314   6.445   6.814 -0.5195 -0.2019  0.2596
   84CHL1   H3' 8626   0.285   6.533   6.789 -1.3287 -0.5886 -0.2239
   84CHL1    C4 8627   0.385   6.297   6.981 -0.2929 -0.3262 -0.7111
   84CHL1   H4A 8628   0.292   6.242   6.958 -0.4150 -0.0831 -0.8023
   84CHL1   H4B 8629   0.465   6.261   6.913  0.8479  0.6217  0.0706
   84CHL1    C5 8630   0.410   6.276   7.130  0.5278  0.4644 -0.4777
   84CHL1    C6 8631   0.513   6.223   7.178  0.2247  0.1396  0.1100
   84CHL1    H6 8632   0.586   6.191   7.102 -0.7036 -0.6732 -0.4641
   84CHL1    C7 8633   0.549   6.197   7.325 -0.5435  0.4807  0.6418
   84CHL1   H7A 8634   0.586   6.095   7.349  0.2177  0.9809  1.6617
   84CHL1   H7B 8635   0.637   6.260   7.350  0.0867 -0.0917 -0.0814
   84CHL1    C8 8636   0.431   6.227   7.422 -0.3250 -0.3033  1.0452
   84CHL1    H8 8637   0.356   6.145   7.422 -3.1022  2.0736  1.6257
   84CHL1   C14 8638   0.486   6.263   7.560  0.1247 -0.5188  0.0252
   84CHL1   H14 8639   0.545   6.356   7.547  0.9750 -1.2253 -1.3936
   84CHL1   C15 8640   0.571   6.151   7.630 -0.3140  0.1802  0.2240
   84CHL1  H15A 8641   0.531   6.049   7.611  1.8724 -0.5280 -0.9321
   84CHL1  H15B 8642   0.676   6.158   7.592  0.1608 -0.6019  1.3333
   84CHL1   C16 8643   0.563   6.181   7.776 -0.2836  0.2773  0.1852
   84CHL1  H16A 8644   0.541   6.089   7.834  0.4005 -1.9347 -2.8470
   84CHL1  H16B 8645   0.658   6.229   7.809 -1.3602  1.0660  2.3784
   84CHL1   C17 8646   0.451   6.293   7.800 -0.0413 -0.4102  0.6966
   84CHL1   H17 8647   0.499   6.393   7.797  0.5473 -0.7089 -1.5676
   84CHL1   C13 8648   0.375   6.283   7.663  0.3337 -0.1474 -1.1904
   84CHL1   C18 8649   0.273   6.157   7.682 -0.4229 -0.3699  0.3193
   84CHL1  H18A 8650   0.223   6.136   7.586  0.0505  1.3756 -0.3528
   84CHL1  H18B 8651   0.326   6.072   7.731  2.4173  1.2732  0.3319
   84CHL1  H18C 8652   0.187   6.193   7.744 -2.4360  2.2172 -3.5720
   84CHL1   C12 8653   0.296   6.410   7.623  0.0049  0.2637 -0.4350
   84CHL1  H12A 8654   0.204   6.417   7.685 -0.1566 -0.6680 -0.5606
   84CHL1  H12B 8655   0.357   6.501   7.644 -0.5645  0.5661 -0.0740
   84CHL1   C11 8656   0.253   6.396   7.479 -0.5611  0.7132 -0.2723
   84CHL1  H11A 8657   0.161   6.335   7.468 -0.1385  0.2204 -1.2373
   84CHL1  H11B 8658   0.228   6.494   7.433  0.3289 -0.0145 -2.4627
   84CHL1    C9 8659   0.358   6.346   7.374 -0.4395 -0.1823  0.2291
   84CHL1    H9 8660   0.438   6.423   7.370  1.8178 -2.4738 -2.3099
   84CHL1   C10 8661   0.302   6.338   7.225 -0.0182  0.0174 -0.1174
   84CHL1   C19 8662   0.180   6.249   7.217  0.2446 -0.3569  0.1245
   84CHL1  H19A 8663   0.162   6.229   7.109  1.7343 -1.4479  0.0502
   84CHL1  H19B 8664   0.194   6.147   7.258 -0.7803  0.2656  2.1068
   84CHL1  H19C 8665   0.096   6.294   7.273 -0.2417  0.4045 -1.1598
   84CHL1    C1 8666   0.265   6.480   7.187  0.1464  0.0961 -0.1200
   84CHL1   H1A 8667   0.165   6.498   7.231 -0.9438 -2.6568 -1.2256
   84CHL1   H1B 8668   0.349   6.544   7.220  1.0850 -0.8510 -0.6330
   84CHL1    C2 8669   0.240   6.499   7.030 -0.3226 -0.7296 -0.4112
   84CHL1   H2A 8670   0.214   6.604   7.005  1.7431 -0.2520 -0.7466
   84CHL1   H2B 8671   0.149   6.436   7.020 -0.1219 -1.4802  1.8617
   84CHL1   C20 8672   0.375   6.275   7.927 -0.2574  0.1185 -1.2880
   84CHL1   H20 8673   0.305   6.190   7.918 -3.0930  2.1800 -0.1683
   84CHL1   C21 8674   0.288   6.400   7.965  0.8270 -0.2890  0.7172
   84CHL1  H21A 8675   0.239   6.365   8.059  1.5711 -1.8764  0.5388
   84CHL1  H21B 8676   0.201   6.409   7.896  1.6280 -2.3042 -0.6407
   84CHL1  H21C 8677   0.347   6.493   7.980  2.4160 -1.4452  2.1047
   84CHL1   C22 8678   0.464   6.250   8.057 -0.4450 -0.1452  0.1647
   84CHL1  H22A 8679   0.546   6.182   8.025  0.5289  2.2839 -3.0162
   84CHL1  H22B 8680   0.510   6.350   8.070 -0.2987 -0.1644 -0.1876
   84CHL1   C23 8681   0.387   6.188   8.177 -0.5519  0.8430  0.1490
   84CHL1  H23A 8682   0.306   6.259   8.201 -0.3975  2.2102 -2.8416
   84CHL1  H23B 8683   0.340   6.093   8.145 -3.0054  1.8160  0.6615
   84CHL1   C24 8684   0.488   6.157   8.291 -0.3043  0.3777 -0.2142
   84CHL1  H24A 8685   0.546   6.075   8.243  0.8958  1.2864 -0.3519
   84CHL1  H24B 8686   0.553   6.242   8.322  0.3135 -0.8650  2.1186
   84CHL1   C25 8687   0.426   6.103   8.418 -0.7128 -0.0822  0.5553
   84CHL1   H25 8688   0.384   6.002   8.398 -0.2471 -0.2376  0.3578
   84CHL1   C26 8689   0.549   6.080   8.515  0.2615 -0.3205 -0.4653
   84CHL1  H26A 8690   0.633   6.014   8.483  1.1992  0.1945  0.8488
   84CHL1  H26B 8691   0.589   6.182   8.532 -1.2929  0.4561 -1.2893
   84CHL1  H26C 8692   0.514   6.023   8.605  2.3009 -3.6085 -1.5748
   84CHL1   C27 8693   0.325   6.185   8.491 -0.0817  0.4913 -0.0059
   84CHL1  H27A 8694   0.357   6.290   8.507  0.1337  0.0738  2.9057
   84CHL1  H27B 8695   0.240   6.202   8.421  0.3219  0.0364 -0.6155
   84CHL1  H27C 8696   0.290   6.135   8.584 -1.6346  0.5896 -0.5142
   85CHL1    C3 8697   1.208   2.638   6.960  0.5239  0.1065 -0.0726
   85CHL1    H3 8698   1.272   2.721   6.995  0.9281 -0.9480  1.8527
   85CHL1    O3 8699   1.214   2.628   6.819 -0.8947 -0.1049  0.3667
   85CHL1   H3' 8700   1.152   2.560   6.791 -1.4839  0.4799  0.2331
   85CHL1    C4 8701   1.268   2.514   7.029  0.2102  0.2786  0.4056
   85CHL1   H4A 8702   1.220   2.426   6.981  0.4580  0.0709  0.5270
   85CHL1   H4B 8703   1.372   2.501   6.992  0.2713 -2.0564  1.2230
   85CHL1    C5 8704   1.262   2.511   7.183 -0.1340  0.1139 -0.1184
   85CHL1    C6 8705   1.365   2.503   7.266  0.6858 -0.0720  0.0393
   85CHL1    H6 8706   1.463   2.487   7.220  0.2618 -1.8435 -0.3287
   85CHL1    C7 8707   1.355   2.502   7.412 -0.8382 -0.1388  0.0538
   85CHL1   H7A 8708   1.419   2.423   7.456 -2.4330 -0.9832  0.9395
   85CHL1   H7B 8709   1.393   2.599   7.452  1.3916 -1.0333  0.2400
   85CHL1    C8 8710   1.212   2.479   7.470  0.1751 -0.4353  0.1679
   85CHL1    H8 8711   1.198   2.371   7.451  0.0499 -0.3114 -0.4821
   85CHL1   C14 8712   1.195   2.508   7.621  0.5289  0.0433  0.8807
   85CHL1   H14 8713   1.191   2.619   7.629 -1.6493  0.5726 -4.1530
   85CHL1   C15 8714   1.304   2.455   7.719  0.4671  0.0460  0.2856
   85CHL1  H15A 8715   1.337   2.351   7.700 -1.5489 -0.4865 -0.6382
   85CHL1  H15B 8716   1.387   2.528   7.712 -1.3612  2.2388  0.2040
   85CHL1   C16 8717   1.242   2.454   7.855  0.2605  0.3071 -0.0522
   85CHL1  H16A 8718   1.263   2.353   7.895 -1.1702 -1.0748 -2.5133
   85CHL1  H16B 8719   1.275   2.537   7.921 -0.5298 -0.0697  0.8287
   85CHL1   C17 8720   1.093   2.494   7.837 -0.1975 -0.6960  0.8108
   85CHL1   H17 8721   1.084   2.604   7.848 -3.9846 -0.5403 -1.7392
   85CHL1   C13 8722   1.064   2.467   7.686  0.3390  0.5746  0.5433
   85CHL1   C18 8723   1.042   2.315   7.658 -0.2351  0.0467 -0.1440
   85CHL1  H18A 8724   1.121   2.260   7.713  1.6941  0.9576 -1.8683
   85CHL1  H18B 8725   0.941   2.280   7.689 -1.2494  1.0981 -2.0903
   85CHL1  H18C 8726   1.055   2.301   7.549  2.0289  0.5941  0.0199
   85CHL1   C12 8727   0.958   2.557   7.617  0.5334 -0.3676  0.1109
   85CHL1  H12A 8728   0.862   2.509   7.646  0.5388 -1.7478 -1.9574
   85CHL1  H12B 8729   0.955   2.663   7.647 -0.6595  0.0245 -1.2867
   85CHL1   C11 8730   0.968   2.536   7.460  0.2464  0.1407 -0.7804
   85CHL1  H11A 8731   0.924   2.435   7.445  0.3689 -0.0343 -0.0227
   85CHL1  H11B 8732   0.902   2.610   7.411  0.6287  1.7275  1.0068
   85CHL1    C9 8733   1.106   2.558   7.391 -0.1446  0.2119  0.2014
   85CHL1    H9 8734   1.124   2.667   7.402 -3.8319  0.8989  0.4719
   85CHL1   C10 8735   1.112   2.532   7.236  0.2654 -0.4689 -0.0407
   85CHL1   C19 8736   1.031   2.400   7.210  0.5753 -0.8545  0.3238
   85CHL1  H19A 8737   1.048   2.360   7.108  1.2611 -2.0977  0.9014
   85CHL1  H19B 8738   1.058   2.314   7.275  0.7831 -1.1758 -0.1809
   85CHL1  H19C 8739   0.923   2.423   7.222  0.9563  0.3788  1.6852
   85CHL1    C1 8740   1.048   2.646   7.153  0.4393 -0.7182 -0.1075
   85CHL1   H1A 8741   0.938   2.662   7.164  0.3004 -1.3462 -0.5317
   85CHL1   H1B 8742   1.097   2.739   7.189  1.0523 -1.8953  2.2726
   85CHL1    C2 8743   1.065   2.645   6.998  0.3853 -0.0075  0.1447
   85CHL1   H2A 8744   1.005   2.732   6.962  0.3809 -0.6935 -1.6319
   85CHL1   H2B 8745   1.018   2.553   6.956  0.1404 -0.4225  1.2989
   85CHL1   C20 8746   1.002   2.433   7.941  0.0740  0.6042 -0.8135
   85CHL1   H20 8747   1.009   2.322   7.940  1.1351  0.6580 -0.3699
   85CHL1   C21 8748   0.858   2.481   7.923 -0.2746  0.6756 -0.2404
   85CHL1  H21A 8749   0.879   2.589   7.907  0.2819  1.0943  2.8016
   85CHL1  H21B 8750   0.790   2.470   8.010 -1.8301 -2.3373 -1.6787
   85CHL1  H21C 8751   0.807   2.442   7.832 -1.4561 -0.6259  0.9235
   85CHL1   C22 8752   1.058   2.486   8.078 -0.1257  0.5370 -0.1851
   85CHL1  H22A 8753   1.165   2.457   8.082 -0.8094 -2.4701 -0.7435
   85CHL1  H22B 8754   1.053   2.595   8.095 -2.5025  0.1260  2.5589
   85CHL1   C23 8755   0.987   2.418   8.194  0.2848  0.1813  0.2290
   85CHL1  H23A 8756   0.880   2.448   8.193 -1.0055 -3.8384 -0.1524
   85CHL1  H23B 8757   0.988   2.308   8.178  1.6976 -0.0196  1.4748
   85CHL1   C24 8758   1.043   2.441   8.338  0.2625  0.4328  0.2939
   85CHL1  H24A 8759   1.144   2.396   8.349 -0.4449 -1.7232 -1.3022
   85CHL1  H24B 8760   1.043   2.548   8.368  0.6270 -0.2761  3.1022
   85CHL1   C25 8761   0.958   2.385   8.459 -0.5733  0.1809 -0.1211
   85CHL1   H25 8762   1.010   2.435   8.543  1.0832 -1.6640  0.0133
   85CHL1   C26 8763   0.810   2.438   8.458  0.2947  0.0605  0.9533
   85CHL1  H26A 8764   0.767   2.400   8.553  3.3130 -1.5002  1.8185
   85CHL1  H26B 8765   0.814   2.549   8.468  2.0317 -0.0211  1.6008
   85CHL1  H26C 8766   0.756   2.404   8.368  0.2165  2.0990  0.1655
   85CHL1   C27 8767   0.961   2.232   8.461  0.2483  0.4017 -0.6527
   85CHL1  H27A 8768   1.055   2.176   8.445 -0.3013 -1.2651  1.4526
   85CHL1  H27B 8769   0.905   2.187   8.546  1.4717 -1.3703 -0.7417
   85CHL1  H27C 8770   0.900   2.207   8.372 -1.0447 -0.1424  0.3491
   86CHL1    C3 8771   3.591   0.302   7.225  0.2331  0.3463  0.1124
   86CHL1    H3 8772   3.481   0.319   7.228  0.1081 -0.0586 -1.3539
   86CHL1    O3 8773   3.644   0.300   7.099 -0.4921 -0.1317  0.7317
   86CHL1   H3' 8774   3.736   0.274   7.106  0.0387  1.1608 -0.8397
   86CHL1    C4 8775   3.646   0.428   7.298 -0.0565  0.4185  0.4794
   86CHL1   H4A 8776   3.755   0.417   7.281 -0.4993 -0.6168 -2.4027
   86CHL1   H4B 8777   3.610   0.516   7.240 -0.1650  0.9394  1.3262
   86CHL1    C5 8778   3.620   0.436   7.447  0.1862  0.0685 -0.4089
   86CHL1    C6 8779   3.563   0.548   7.496 -0.0116  0.7373  0.2776
   86CHL1    H6 8780   3.535   0.625   7.423  0.6521  1.5105  0.8097
   86CHL1    C7 8781   3.534   0.561   7.641 -0.0979  0.0679 -0.0193
   86CHL1   H7A 8782   3.554   0.664   7.679 -2.2253  1.2814 -1.9456
   86CHL1   H7B 8783   3.425   0.546   7.652  0.0336 -0.3195  0.7816
   86CHL1    C8 8784   3.607   0.459   7.731 -0.8753  0.5322  0.3612
   86CHL1    H8 8785   3.716   0.479   7.732 -0.6200 -0.7306  1.3981
   86CHL1   C14 8786   3.543   0.453   7.874  0.1502 -0.2432  0.2746
   86CHL1   H14 8787   3.439   0.413   7.872  1.3515 -3.8031  0.5888
   86CHL1   C15 8788   3.530   0.585   7.950  0.1601  0.1309  0.2336
   86CHL1  H15A 8789   3.625   0.642   7.939  2.5535 -2.8400  3.2372
   86CHL1  H15B 8790   3.445   0.647   7.916  0.4067 -0.4074 -1.4746
   86CHL1   C16 8791   3.520   0.537   8.094 -0.5177 -0.1594 -0.0538
   86CHL1  H16A 8792   3.585   0.604   8.155 -1.9854  0.1985  1.2046
   86CHL1  H16B 8793   3.416   0.549   8.133 -0.1930 -0.6304  0.9963
   86CHL1   C17 8794   3.554   0.386   8.107  0.5349 -0.5228  0.8302
   86CHL1   H17 8795   3.458   0.331   8.099  1.4997 -2.0312 -1.0825
   86CHL1   C13 8796   3.622   0.357   7.968 -0.3818 -0.5354  0.4807
   86CHL1   C18 8797   3.765   0.408   7.974  0.6299  0.1665 -0.2563
   86CHL1  H18A 8798   3.776   0.518   7.980 -1.6135  0.3389  3.4581
   86CHL1  H18B 8799   3.821   0.361   8.057  1.2948  1.9538  0.3532
   86CHL1  H18C 8800   3.821   0.394   7.879 -0.8659 -0.7782 -1.0431
   86CHL1   C12 8801   3.608   0.213   7.918 -0.0352 -0.0168  0.1871
   86CHL1  H12A 8802   3.668   0.152   7.988 -0.9488 -0.2333  0.8045
   86CHL1  H12B 8803   3.503   0.177   7.928 -0.2508  0.3086 -0.7668
   86CHL1   C11 8804   3.649   0.207   7.773  0.2710  0.1546 -0.6153
   86CHL1  H11A 8805   3.760   0.201   7.777  0.1997 -1.7552 -0.5113
   86CHL1  H11B 8806   3.609   0.113   7.729  0.9273 -0.3792 -0.0909
   86CHL1    C9 8807   3.597   0.317   7.674  0.0369 -0.3960 -0.5075
   86CHL1    H9 8808   3.488   0.294   7.670  0.5237 -2.7580 -1.2426
   86CHL1   C10 8809   3.654   0.308   7.526 -0.6292  0.1701  0.0756
   86CHL1   C19 8810   3.803   0.281   7.528 -0.9149  0.4763  0.0708
   86CHL1  H19A 8811   3.807   0.184   7.581 -2.1305  0.8533  0.8937
   86CHL1  H19B 8812   3.833   0.268   7.422 -1.6260 -0.5257 -0.0216
   86CHL1  H19C 8813   3.863   0.360   7.579  1.0946 -0.3263 -0.9112
   86CHL1    C1 8814   3.587   0.191   7.455  0.3552  0.0400 -0.2812
   86CHL1   H1A 8815   3.618   0.094   7.499 -0.3025 -1.2967 -2.6123
   86CHL1   H1B 8816   3.476   0.196   7.461  0.1385  1.9672 -3.5808
   86CHL1    C2 8817   3.613   0.169   7.303 -0.3947 -0.0620  0.1080
   86CHL1   H2A 8818   3.534   0.106   7.257  0.5979 -0.4118 -1.1520
   86CHL1   H2B 8819   3.711   0.125   7.278  0.2045  1.4718 -0.3685
   86CHL1   C20 8820   3.622   0.353   8.248  0.2084  0.5897 -0.6440
   86CHL1   H20 8821   3.722   0.399   8.260 -0.9499  3.5168 -1.4914
   86CHL1   C21 8822   3.631   0.208   8.269 -0.6189 -0.2652 -0.7624
   86CHL1  H21A 8823   3.711   0.165   8.204  1.7153 -0.9756  2.3223
   86CHL1  H21B 8824   3.535   0.155   8.250 -1.8506  2.0705 -1.4038
   86CHL1  H21C 8825   3.674   0.182   8.368 -0.7107 -0.4015 -0.7575
   86CHL1   C22 8826   3.534   0.413   8.362 -0.2753 -0.3092 -0.1862
   86CHL1  H22A 8827   3.526   0.524   8.363 -0.3792 -0.3115  0.8837
   86CHL1  H22B 8828   3.430   0.374   8.350 -0.1962 -0.4089 -0.5440
   86CHL1   C23 8829   3.583   0.374   8.507  0.2344 -0.6195  0.4924
   86CHL1  H23A 8830   3.572   0.264   8.518 -0.7587 -0.7338 -1.2480
   86CHL1  H23B 8831   3.691   0.396   8.495 -0.4210  1.6705 -2.4375
   86CHL1   C24 8832   3.510   0.453   8.623 -0.2339 -0.2988 -1.2838
   86CHL1  H24A 8833   3.505   0.559   8.590 -0.0823  1.4833  3.6663
   86CHL1  H24B 8834   3.403   0.425   8.635 -0.2104 -0.8429 -2.2068
   86CHL1   C25 8835   3.572   0.440   8.763  1.0239 -0.2563 -0.0240
   86CHL1   H25 8836   3.606   0.335   8.776  2.9638  0.4525  1.0196
   86CHL1   C26 8837   3.696   0.528   8.774 -0.3424 -0.6390 -0.0413
   86CHL1  H26A 8838   3.678   0.638   8.767  0.4571 -0.3526  1.7809
   86CHL1  H26B 8839   3.731   0.507   8.877  1.6619  0.7950 -0.3762
   86CHL1  H26C 8840   3.777   0.504   8.702  1.7232  1.2194  1.5249
   86CHL1   C27 8841   3.472   0.472   8.874 -0.5830 -0.6070  0.1121
   86CHL1  H27A 8842   3.423   0.571   8.861  0.9923  0.4935  1.9805
   86CHL1  H27B 8843   3.392   0.395   8.882 -0.9735 -0.2007  0.2281
   86CHL1  H27C 8844   3.531   0.463   8.967  0.7825 -1.5563 -0.8083
   87CHL1    C3 8845   1.730   5.433   7.253 -0.2651 -0.0445 -0.3574
   87CHL1    H3 8846   1.698   5.540   7.248  3.3181  1.2479  0.9395
   87CHL1    O3 8847   1.733   5.367   7.124 -0.1826  0.0434  0.3493
   87CHL1   H3' 8848   1.806   5.304   7.122 -0.8605 -0.7653 -2.0104
   87CHL1    C4 8849   1.872   5.429   7.307  0.1261 -0.0447 -0.1087
   87CHL1   H4A 8850   1.905   5.324   7.300 -1.4943 -0.8081  2.3517
   87CHL1   H4B 8851   1.939   5.487   7.239  0.0400  0.7462  0.4665
   87CHL1    C5 8852   1.878   5.475   7.458 -0.1136 -0.3149 -0.6605
   87CHL1    C6 8853   1.949   5.585   7.493  0.0638  0.0426  1.1115
   87CHL1    H6 8854   2.018   5.635   7.423  0.5019 -3.3333 -1.1220
   87CHL1    C7 8855   1.943   5.632   7.633  0.0949  0.4611 -0.8872
   87CHL1   H7A 8856   2.045   5.663   7.664  0.1141  0.2899 -0.7792
   87CHL1   H7B 8857   1.884   5.726   7.623 -0.6783  0.0199 -0.5871
   87CHL1    C8 8858   1.883   5.532   7.733  0.4719 -0.3213  0.2809
   87CHL1    H8 8859   1.950   5.444   7.744  1.6403  0.4403 -0.4760
   87CHL1   C14 8860   1.868   5.589   7.875 -0.5540  0.0245  0.3688
   87CHL1   H14 8861   1.798   5.671   7.852  2.6232  3.0273  0.5637
   87CHL1   C15 8862   1.983   5.671   7.932 -0.6434  0.5465  0.3017
   87CHL1  H15A 8863   2.078   5.616   7.914 -1.3031 -1.5849  2.7140
   87CHL1  H15B 8864   1.986   5.774   7.889 -0.3980 -0.5815 -2.5784
   87CHL1   C16 8865   1.946   5.674   8.079  0.8114 -0.7155  0.1965
   87CHL1  H16A 8866   2.031   5.655   8.148  0.6573 -0.3419  0.4940
   87CHL1  H16B 8867   1.918   5.778   8.104 -0.9259 -0.7690 -1.2541
   87CHL1   C17 8868   1.812   5.598   8.103  0.8731  0.0360 -0.3469
   87CHL1   H17 8869   1.722   5.661   8.087 -0.2666 -1.8554 -1.7134
   87CHL1   C13 8870   1.805   5.501   7.984 -0.6002  0.1435 -0.4691
   87CHL1   C18 8871   1.893   5.378   8.013 -0.2969 -0.8510 -0.2009
   87CHL1  H18A 8872   1.835   5.291   8.051  1.1479 -0.7969  2.3390
   87CHL1  H18B 8873   1.925   5.341   7.913  0.5593  0.1598 -0.3210
   87CHL1  H18C 8874   1.984   5.399   8.072 -1.8698 -2.9650  3.3396
   87CHL1   C12 8875   1.661   5.477   7.936 -0.3323 -0.4597 -0.0323
   87CHL1  H12A 8876   1.600   5.407   7.997 -0.5829 -0.1405  0.0856
   87CHL1  H12B 8877   1.607   5.572   7.921  0.9443  0.0083 -2.1141
   87CHL1   C11 8878   1.668   5.408   7.796  0.1618  0.1797 -0.0441
   87CHL1  H11A 8879   1.723   5.315   7.822 -0.0051  0.0006 -0.3401
   87CHL1  H11B 8880   1.571   5.375   7.754 -0.2447  0.9644  0.2600
   87CHL1    C9 8881   1.749   5.483   7.688 -0.2193 -0.3047 -0.0518
   87CHL1    H9 8882   1.687   5.570   7.659  1.4700  0.4045 -1.7833
   87CHL1   C10 8883   1.769   5.410   7.551 -0.0562 -0.6559 -0.2794
   87CHL1   C19 8884   1.811   5.267   7.580  0.1477  0.1135 -0.5065
   87CHL1  H19A 8885   1.891   5.265   7.658 -0.0972 -0.5911 -0.2637
   87CHL1  H19B 8886   1.723   5.209   7.617  0.3627  0.1152  0.0138
   87CHL1  H19C 8887   1.838   5.216   7.485 -1.2337 -1.4535 -0.1067
   87CHL1    C1 8888   1.629   5.414   7.482  0.5172  0.8362  0.8590
   87CHL1   H1A 8889   1.541   5.371   7.535 -0.7188  2.3276  0.0892
   87CHL1   H1B 8890   1.598   5.519   7.467  1.3536  1.3104  2.3175
   87CHL1    C2 8891   1.624   5.358   7.336 -0.4387 -0.5119  0.5215
   87CHL1   H2A 8892   1.526   5.400   7.304  1.0375  1.8428 -1.2442
   87CHL1   H2B 8893   1.628   5.247   7.332 -2.3159 -0.5815 -0.2135
   87CHL1   C20 8894   1.808   5.542   8.244 -0.5171  0.4838 -0.4267
   87CHL1   H20 8895   1.878   5.456   8.252  1.6090  2.1560 -0.4449
   87CHL1   C21 8896   1.672   5.471   8.285 -0.7470 -0.0205  0.2500
   87CHL1  H21A 8897   1.636   5.396   8.212  1.1443  0.0274 -0.8007
   87CHL1  H21B 8898   1.594   5.548   8.305  0.6387  1.7040 -0.6274
   87CHL1  H21C 8899   1.685   5.414   8.379  1.9924 -0.5922 -0.3952
   87CHL1   C22 8900   1.837   5.651   8.349 -0.0265 -0.1264 -0.1604
   87CHL1  H22A 8901   1.937   5.692   8.321  0.5835 -2.2467 -1.3421
   87CHL1  H22B 8902   1.775   5.741   8.332 -0.5514 -0.4438  0.0665
   87CHL1   C23 8903   1.839   5.600   8.498 -0.1307 -0.3726 -0.3578
   87CHL1  H23A 8904   1.732   5.583   8.523 -0.1148  0.5074  0.3449
   87CHL1  H23B 8905   1.894   5.505   8.484  1.1930  0.5219 -1.4960
   87CHL1   C24 8906   1.912   5.700   8.585  0.3334 -0.1859 -0.2691
   87CHL1  H24A 8907   2.014   5.696   8.540  1.0363  2.4873  0.9019
   87CHL1  H24B 8908   1.884   5.807   8.586  1.2100  0.0631 -0.9077
   87CHL1   C25 8909   1.929   5.647   8.731  0.0866  0.5217  0.2593
   87CHL1   H25 8910   1.835   5.678   8.782  0.4990 -1.9289  2.7362
   87CHL1   C26 8911   1.958   5.500   8.747  0.6502  0.3295 -0.8769
   87CHL1  H26A 8912   1.931   5.476   8.852 -0.0876 -1.1937 -1.3837
   87CHL1  H26B 8913   1.876   5.450   8.691  0.5284  2.7827 -3.0758
   87CHL1  H26C 8914   2.057   5.465   8.711  0.9923  0.5727 -0.1929
   87CHL1   C27 8915   2.039   5.738   8.788 -0.1428  0.9728  0.3901
   87CHL1  H27A 8916   2.009   5.843   8.808 -1.8919  0.5285  0.2499
   87CHL1  H27B 8917   2.074   5.689   8.882  0.7125 -0.5452 -0.6838
   87CHL1  H27C 8918   2.130   5.737   8.725 -0.4746 -0.5782 -0.1090
   88CHL1    C3 8919   0.550   3.628   7.103  0.1296 -0.0049 -0.6889
   88CHL1    H3 8920   0.491   3.544   7.144  1.3708 -0.6428 -0.1339
   88CHL1    O3 8921   0.546   3.635   6.959  0.3574 -0.0053  0.1332
   88CHL1   H3' 8922   0.619   3.690   6.930 -0.7610  0.7877 -1.3271
   88CHL1    C4 8923   0.511   3.758   7.169 -0.0452 -0.0844 -0.5933
   88CHL1   H4A 8924   0.575   3.840   7.131  0.6751 -0.4665 -0.2227
   88CHL1   H4B 8925   0.409   3.787   7.134 -1.2628 -0.1862  2.4974
   88CHL1    C5 8926   0.529   3.750   7.316  0.4450  0.2140 -0.4012
   88CHL1    C6 8927   0.425   3.795   7.392  0.6082  0.2815 -0.0527
   88CHL1    H6 8928   0.346   3.855   7.343 -0.6970 -0.5734  0.9509
   88CHL1    C7 8929   0.416   3.782   7.537 -0.1396 -0.0700  0.2304
   88CHL1   H7A 8930   0.390   3.880   7.583 -3.1561 -0.7955  0.2812
   88CHL1   H7B 8931   0.341   3.705   7.566 -0.1760 -1.5226 -3.2329
   88CHL1    C8 8932   0.556   3.745   7.599 -0.7437  0.6141 -0.4938
   88CHL1    H8 8933   0.625   3.832   7.597  0.1928  0.1288  3.0954
   88CHL1   C14 8934   0.534   3.697   7.745  0.4754 -0.8792  0.2308
   88CHL1   H14 8935   0.477   3.603   7.727 -0.1411  0.1441 -4.2356
   88CHL1   C15 8936   0.450   3.793   7.837  0.0130 -0.2330  1.3395
   88CHL1  H15A 8937   0.480   3.897   7.814 -0.6794  0.3363  2.8504
   88CHL1  H15B 8938   0.344   3.776   7.807 -0.0718 -1.1315  2.0849
   88CHL1   C16 8939   0.482   3.751   7.979 -0.3577 -0.2330 -0.3018
   88CHL1  H16A 8940   0.529   3.830   8.042 -1.4292 -1.3944  2.0977
   88CHL1  H16B 8941   0.390   3.715   8.030  1.2006 -1.4389  1.8542
   88CHL1   C17 8942   0.579   3.631   7.964 -0.2604  0.2550 -0.5497
   88CHL1   H17 8943   0.502   3.551   7.958  1.3321 -1.3002 -1.5986
   88CHL1   C13 8944   0.654   3.656   7.829  0.3506 -0.3352  0.0642
   88CHL1   C18 8945   0.757   3.776   7.837 -0.0353 -0.1210 -0.3163
   88CHL1  H18A 8946   0.734   3.863   7.900 -0.5563  1.3907 -2.4689
   88CHL1  H18B 8947   0.855   3.727   7.858  0.3637 -0.0209 -1.8302
   88CHL1  H18C 8948   0.758   3.827   7.738 -3.6864  2.6190  0.8559
   88CHL1   C12 8949   0.715   3.535   7.753  0.5043 -0.4477  0.3932
   88CHL1  H12A 8950   0.810   3.505   7.801  1.3966  0.3998 -0.7841
   88CHL1  H12B 8951   0.644   3.450   7.765  0.0509  0.0197  1.0815
   88CHL1   C11 8952   0.745   3.579   7.607 -0.4163 -0.0612 -0.9088
   88CHL1  H11A 8953   0.827   3.653   7.619 -0.2318 -0.6331  2.3172
   88CHL1  H11B 8954   0.785   3.490   7.554  0.5776  0.7712 -1.6055
   88CHL1    C9 8955   0.629   3.635   7.527  0.4030  0.0091  0.3231
   88CHL1    H9 8956   0.561   3.547   7.520  1.8137 -0.9656 -2.7240
   88CHL1   C10 8957   0.658   3.678   7.383 -0.4429 -0.3867  0.4240
   88CHL1   C19 8958   0.765   3.798   7.379 -0.5436  0.2620  0.4208
   88CHL1  H19A 8959   0.742   3.895   7.428  3.6947  3.0747 -2.3979
   88CHL1  H19B 8960   0.856   3.757   7.428 -1.1560 -2.2900 -0.4074
   88CHL1  H19C 8961   0.800   3.813   7.274  0.6868 -2.9163  0.2605
   88CHL1    C1 8962   0.720   3.564   7.296  0.4012 -0.3977  0.3182
   88CHL1   H1A 8963   0.828   3.540   7.309  0.2359 -0.8623  0.8645
   88CHL1   H1B 8964   0.659   3.472   7.304  2.9689 -2.4252 -1.6663
   88CHL1    C2 8965   0.697   3.590   7.141  0.8673  0.9167  0.0217
   88CHL1   H2A 8966   0.712   3.497   7.083 -0.0361  1.4073 -1.0417
   88CHL1   H2B 8967   0.768   3.667   7.104  1.7185  0.1659  0.0880
   88CHL1   C20 8968   0.664   3.599   8.084 -0.2527  0.3684 -1.0106
   88CHL1   H20 8969   0.741   3.679   8.096  0.1672 -0.2474  0.7517
   88CHL1   C21 8970   0.741   3.469   8.062 -0.2424 -0.1523 -0.2523
   88CHL1  H21A 8971   0.762   3.439   8.167 -1.6983  1.2067  0.4827
   88CHL1  H21B 8972   0.830   3.483   7.997 -1.3052 -1.4420 -2.0817
   88CHL1  H21C 8973   0.671   3.391   8.024 -2.5234  0.9956  1.3145
   88CHL1   C22 8974   0.589   3.601   8.216  0.0070 -0.6672 -0.1541
   88CHL1  H22A 8975   0.669   3.611   8.293  2.0740 -1.9274 -2.0470
   88CHL1  H22B 8976   0.515   3.683   8.229  0.9678 -0.0560  2.0462
   88CHL1   C23 8977   0.513   3.471   8.245  0.0840  0.0921  0.1785
   88CHL1  H23A 8978   0.457   3.453   8.150  0.0063  0.6543  0.1187
   88CHL1  H23B 8979   0.573   3.377   8.255  0.5023  0.3810  0.4065
   88CHL1   C24 8980   0.418   3.480   8.366 -0.5145 -0.0220  0.1610
   88CHL1  H24A 8981   0.469   3.512   8.459  0.1617  2.5291 -1.0233
   88CHL1  H24B 8982   0.357   3.570   8.342  0.3001  0.4684 -0.1186
   88CHL1   C25 8983   0.315   3.363   8.373 -0.2346 -0.5902  0.0595
   88CHL1   H25 8984   0.271   3.368   8.272  1.0148  2.5957 -0.4457
   88CHL1   C26 8985   0.377   3.224   8.402 -0.0071 -0.0369  0.9595
   88CHL1  H26A 8986   0.422   3.220   8.503  1.8227 -0.4526  0.1694
   88CHL1  H26B 8987   0.300   3.143   8.397 -0.4015  0.3617  0.4286
   88CHL1  H26C 8988   0.457   3.204   8.328  0.1956  0.2516  1.1032
   88CHL1   C27 8989   0.217   3.396   8.481  0.4112  0.3515  0.1074
   88CHL1  H27A 8990   0.156   3.305   8.502 -0.3333  0.4262 -1.5449
   88CHL1  H27B 8991   0.262   3.429   8.577  0.0545  0.2865  0.3016
   88CHL1  H27C 8992   0.136   3.468   8.454  0.6976  0.5211 -0.3022
   89CHL1    C3 8993   4.408   6.066   7.152 -0.1390 -0.0010 -0.8094
   89CHL1    H3 8994   4.347   6.157   7.134  0.3973  0.1974 -1.6303
   89CHL1    O3 8995   4.441   6.022   7.017  0.0635  0.7574  0.3704
   89CHL1   H3' 8996   4.420   5.929   7.003 -1.8415  1.2810 -0.4637
   89CHL1    C4 8997   4.540   6.094   7.231 -0.0989  0.5234  0.3282
   89CHL1   H4A 8998   4.609   6.007   7.233 -0.4067  0.2841  0.5409
   89CHL1   H4B 8999   4.587   6.178   7.176 -1.2889 -0.1391 -1.7755
   89CHL1    C5 9000   4.511   6.124   7.379 -0.7996 -0.7975  0.3533
   89CHL1    C6 9001   4.532   6.246   7.430 -0.4444 -0.1988 -0.5657
   89CHL1    H6 9002   4.565   6.326   7.362  2.4799 -0.2768  0.6063
   89CHL1    C7 9003   4.512   6.270   7.578 -0.5955 -0.4872  0.1058
   89CHL1   H7A 9004   4.594   6.332   7.620  0.3964 -1.3685 -0.4895
   89CHL1   H7B 9005   4.425   6.338   7.592  1.8019  2.5959  1.2070
   89CHL1    C8 9006   4.500   6.145   7.663  0.1290  0.3768 -0.0233
   89CHL1    H8 9007   4.599   6.096   7.663  0.2123  0.4838 -1.6398
   89CHL1   C14 9008   4.454   6.185   7.805  0.4441 -0.1974  0.2196
   89CHL1   H14 9009   4.356   6.236   7.796  0.5638  0.2108  1.0665
   89CHL1   C15 9010   4.547   6.278   7.894  0.4809 -0.4507 -0.2787
   89CHL1  H15A 9011   4.652   6.242   7.888  0.9856  1.0082 -0.5110
   89CHL1  H15B 9012   4.551   6.385   7.862 -1.5517  0.5986  2.5684
   89CHL1   C16 9013   4.494   6.262   8.038 -0.0780 -0.4126 -0.1244
   89CHL1  H16A 9014   4.583   6.233   8.099  1.7482  1.0575 -1.9340
   89CHL1  H16B 9015   4.459   6.359   8.079 -0.2250 -0.8396  0.7818
   89CHL1   C17 9016   4.391   6.148   8.034 -0.7224  0.0014 -0.5786
   89CHL1   H17 9017   4.293   6.199   8.025 -1.2621 -0.5677  1.4817
   89CHL1   C13 9018   4.415   6.074   7.901 -0.2828  0.2304  0.3994
   89CHL1   C18 9019   4.539   5.986   7.925 -0.1381  0.3394  0.2321
   89CHL1  H18A 9020   4.528   5.892   7.983 -1.1746  1.2976  1.6531
   89CHL1  H18B 9021   4.586   5.947   7.832  1.2337  0.3376  0.8967
   89CHL1  H18C 9022   4.615   6.051   7.975 -1.6607  1.3797  1.2963
   89CHL1   C12 9023   4.298   6.001   7.831 -0.1170 -0.1408 -0.5306
   89CHL1  H12A 9024   4.262   5.913   7.889  0.9697 -0.9783 -1.0739
   89CHL1  H12B 9025   4.218   6.078   7.828  1.8333  2.1299  1.5694
   89CHL1   C11 9026   4.328   5.945   7.694  0.2846 -0.2256 -0.4200
   89CHL1  H11A 9027   4.399   5.861   7.712  0.6199  0.1796  0.1697
   89CHL1  H11B 9028   4.234   5.914   7.642  0.2533  0.6865 -0.9204
   89CHL1    C9 9029   4.394   6.051   7.600 -0.1594 -0.2145  0.0182
   89CHL1    H9 9030   4.307   6.118   7.583  0.2657  0.4057  0.2426
   89CHL1   C10 9031   4.437   6.014   7.459  0.1842 -0.1162 -0.6117
   89CHL1   C19 9032   4.517   5.882   7.470 -0.5074 -0.7724 -0.1045
   89CHL1  H19A 9033   4.585   5.878   7.558 -0.2683 -3.0332 -0.3417
   89CHL1  H19B 9034   4.438   5.806   7.484 -3.2737  0.9925 -4.1743
   89CHL1  H19C 9035   4.574   5.862   7.377  1.3426  1.4301  0.4446
   89CHL1    C1 9036   4.308   5.984   7.369 -0.0503  0.6715 -0.7030
   89CHL1   H1A 9037   4.245   5.905   7.416 -0.3026  1.6866  0.7356
   89CHL1   H1B 9038   4.243   6.073   7.367 -0.5631  0.3758  0.9834
   89CHL1    C2 9039   4.328   5.957   7.219 -0.5229 -0.4603  0.0215
   89CHL1   H2A 9040   4.230   5.955   7.166 -0.9688 -3.1930  0.8153
   89CHL1   H2B 9041   4.381   5.860   7.208 -0.0278 -0.0450 -1.5249
   89CHL1   C20 9042   4.393   6.070   8.170  0.2368  0.3976  0.1731
   89CHL1   H20 9043   4.494   6.025   8.178 -0.7970 -1.9462  0.7324
   89CHL1   C21 9044   4.303   5.951   8.171  0.2243  0.0781  0.1784
   89CHL1  H21A 9045   4.289   5.895   8.266  0.6824 -1.8815 -0.8524
   89CHL1  H21B 9046   4.351   5.881   8.100 -0.9217  0.8210 -1.3898
   89CHL1  H21C 9047   4.203   5.973   8.129 -0.3050 -1.1690  0.7364
   89CHL1   C22 9048   4.360   6.152   8.296  0.1929 -0.0819  0.1558
   89CHL1  H22A 9049   4.397   6.256   8.283  0.8193 -0.1768  1.1431
   89CHL1  H22B 9050   4.249   6.152   8.307  0.3349  1.1978  1.9713
   89CHL1   C23 9051   4.433   6.108   8.425 -0.2137 -0.2644  0.4809
   89CHL1  H23A 9052   4.401   6.007   8.458 -1.6887  0.3902  1.1218
   89CHL1  H23B 9053   4.534   6.090   8.383 -0.4360 -0.0970 -0.1358
   89CHL1   C24 9054   4.456   6.202   8.542 -0.2282 -0.1084 -0.4494
   89CHL1  H24A 9055   4.523   6.285   8.511 -0.0490  0.3567  1.1126
   89CHL1  H24B 9056   4.364   6.252   8.580  1.1724  2.3409 -0.0601
   89CHL1   C25 9057   4.530   6.139   8.666  0.5499 -0.0084 -0.3289
   89CHL1   H25 9058   4.599   6.058   8.634  0.2231 -1.5275  2.5071
   89CHL1   C26 9059   4.608   6.242   8.748  0.5901 -0.1597 -0.8542
   89CHL1  H26A 9060   4.669   6.308   8.683 -1.0521  0.9543 -1.3188
   89CHL1  H26B 9061   4.532   6.310   8.792  0.5361  0.1022 -1.3418
   89CHL1  H26C 9062   4.677   6.199   8.824 -1.2043  0.3931  1.2116
   89CHL1   C27 9063   4.420   6.062   8.759  0.1181 -0.2650 -0.5564
   89CHL1  H27A 9064   4.470   6.018   8.849  1.4258 -0.8606 -1.5343
   89CHL1  H27B 9065   4.348   6.137   8.798  2.4342  0.5266  2.6085
   89CHL1  H27C 9066   4.366   5.979   8.710 -1.1518 -1.0433  1.9532
   90CHL1    C3 9067   2.538   1.628   7.077  0.4748  0.0835 -0.0262
   90CHL1    H3 9068   2.581   1.727   7.052  1.0012 -0.4524 -1.3421
   90CHL1    O3 9069   2.525   1.554   6.954  0.3354 -0.2110 -0.3343
   90CHL1   H3' 9070   2.559   1.466   6.971  0.1944  0.1099  1.8954
   90CHL1    C4 9071   2.642   1.563   7.171  0.2866  0.2357 -0.2601
   90CHL1   H4A 9072   2.617   1.460   7.203 -0.9802  0.6348  0.0967
   90CHL1   H4B 9073   2.741   1.565   7.120  0.3856  1.3655 -0.0607
   90CHL1    C5 9074   2.655   1.642   7.300  0.1646  0.8572 -0.1640
   90CHL1    C6 9075   2.769   1.693   7.357  0.1102  0.0792 -0.2474
   90CHL1    H6 9076   2.867   1.676   7.309 -0.0853  0.1963 -0.6975
   90CHL1    C7 9077   2.777   1.758   7.494 -0.3935 -0.1756 -0.1916
   90CHL1   H7A 9078   2.865   1.709   7.540  2.2908  1.7398 -2.9095
   90CHL1   H7B 9079   2.795   1.867   7.490  3.6566 -0.7062 -0.6292
   90CHL1    C8 9080   2.648   1.727   7.578 -0.7172 -0.9059 -0.2943
   90CHL1    H8 9081   2.659   1.619   7.603 -0.7384 -0.7210  0.5464
   90CHL1   C14 9082   2.658   1.814   7.704 -0.4316  0.8529 -0.2721
   90CHL1   H14 9083   2.650   1.921   7.675  4.1052  1.7919  1.2890
   90CHL1   C15 9084   2.786   1.815   7.786 -0.6722  0.3079 -0.3018
   90CHL1  H15A 9085   2.832   1.714   7.791 -3.1732 -1.1244 -3.0045
   90CHL1  H15B 9086   2.857   1.889   7.743  0.5531 -1.0929 -0.7804
   90CHL1   C16 9087   2.743   1.852   7.939  0.1438  0.2536 -0.0402
   90CHL1  H16A 9088   2.737   1.766   8.008 -0.5011  0.7055  0.4753
   90CHL1  H16B 9089   2.804   1.939   7.975 -0.3112  1.6146 -2.3676
   90CHL1   C17 9090   2.586   1.879   7.928  0.0942  0.4053 -0.4720
   90CHL1   H17 9091   2.563   1.984   7.898 -1.9866  0.9717  2.6149
   90CHL1   C13 9092   2.549   1.797   7.800  0.0683  0.5392  0.0008
   90CHL1   C18 9093   2.532   1.655   7.841  0.6799 -0.3639 -0.3155
   90CHL1  H18A 9094   2.508   1.581   7.762 -0.7134 -0.5167  0.2322
   90CHL1  H18B 9095   2.622   1.625   7.899  0.0997 -0.1743  0.7065
   90CHL1  H18C 9096   2.449   1.643   7.914  0.2931 -3.1957 -1.0853
   90CHL1   C12 9097   2.425   1.847   7.732 -0.4467 -0.0778 -0.4607
   90CHL1  H12A 9098   2.341   1.846   7.804 -0.1324 -2.1918 -0.0729
   90CHL1  H12B 9099   2.442   1.953   7.702  1.9201 -0.2328  0.1256
   90CHL1   C11 9100   2.401   1.771   7.600 -0.4760  0.1751 -0.0468
   90CHL1  H11A 9101   2.373   1.667   7.629  0.0243 -0.2812 -1.1404
   90CHL1  H11B 9102   2.319   1.818   7.541 -0.0783  1.4993  0.4245
   90CHL1    C9 9103   2.523   1.759   7.498 -0.3237 -0.5164 -0.3295
   90CHL1    H9 9104   2.540   1.862   7.460  2.2310 -1.4874 -2.1203
   90CHL1   C10 9105   2.517   1.672   7.370  0.2247  0.3861 -0.3152
   90CHL1   C19 9106   2.473   1.530   7.418 -0.1810 -0.2911  0.4135
   90CHL1  H19A 9107   2.375   1.522   7.469 -0.5067 -0.0594 -0.1592
   90CHL1  H19B 9108   2.460   1.470   7.325  2.0231 -0.5815  0.2548
   90CHL1  H19C 9109   2.555   1.483   7.475 -0.1276  1.0717  1.5360
   90CHL1    C1 9110   2.421   1.733   7.270  0.0307  0.7971 -0.0653
   90CHL1   H1A 9111   2.321   1.727   7.318 -1.4644  1.6584 -2.8181
   90CHL1   H1B 9112   2.443   1.841   7.258  0.8432  1.0451  2.8879
   90CHL1    C2 9113   2.398   1.645   7.146 -0.1819  0.5697  0.5499
   90CHL1   H2A 9114   2.340   1.694   7.065  0.1116 -1.4638 -0.9695
   90CHL1   H2B 9115   2.347   1.548   7.169  0.9048 -0.0817  0.2835
   90CHL1   C20 9116   2.509   1.842   8.071  0.2124  0.4164  0.0737
   90CHL1   H20 9117   2.526   1.734   8.089  0.0330  0.3021 -0.4243
   90CHL1   C21 9118   2.362   1.882   8.057 -0.5350 -0.5780  0.0527
   90CHL1  H21A 9119   2.316   1.881   8.158 -1.7503 -1.0573 -0.4931
   90CHL1  H21B 9120   2.320   1.802   7.993  1.3548 -1.1847 -0.5166
   90CHL1  H21C 9121   2.345   1.980   8.007 -1.6439 -1.1831 -0.7988
   90CHL1   C22 9122   2.578   1.927   8.189 -0.1283  0.1156 -0.3119
   90CHL1  H22A 9123   2.684   1.949   8.165 -0.4093  3.0237  0.7574
   90CHL1  H22B 9124   2.511   2.016   8.187 -2.5872 -1.6004 -0.0012
   90CHL1   C23 9125   2.564   1.867   8.330  0.2016  0.2100 -0.0634
   90CHL1  H23A 9126   2.463   1.829   8.359  0.2758 -0.0628 -0.1621
   90CHL1  H23B 9127   2.629   1.778   8.322  0.9811  0.7316  0.3498
   90CHL1   C24 9128   2.630   1.959   8.440 -0.3647 -0.9372  1.0941
   90CHL1  H24A 9129   2.736   1.973   8.412  0.2269 -2.6142  2.3435
   90CHL1  H24B 9130   2.580   2.058   8.441 -1.3398 -1.2871 -1.8304
   90CHL1   C25 9131   2.631   1.897   8.581  0.5293 -0.0204  0.5296
   90CHL1   H25 9132   2.530   1.860   8.611  0.7951 -0.2024  1.1983
   90CHL1   C26 9133   2.716   1.768   8.583  0.0467  0.6406  0.1346
   90CHL1  H26A 9134   2.820   1.783   8.546  1.2621 -0.9662  2.5819
   90CHL1  H26B 9135   2.732   1.726   8.685 -0.1505  1.2143  0.4016
   90CHL1  H26C 9136   2.673   1.682   8.527  1.8279  1.1770 -2.1987
   90CHL1   C27 9137   2.681   1.998   8.684 -0.0403  0.3417  0.1497
   90CHL1  H27A 9138   2.784   2.033   8.663 -0.4824  0.8646 -1.2625
   90CHL1  H27B 9139   2.616   2.087   8.673  0.1040  0.4286 -0.0108
   90CHL1  H27C 9140   2.683   1.955   8.786 -0.3302 -2.8745 -1.0656
   91CHL1    C3 9141   3.294   3.856   7.139  0.0450  0.5638  0.6383
   91CHL1    H3 9142   3.394   3.815   7.166 -0.3979 -0.2967  1.0098
   91CHL1    O3 9143   3.290   3.867   6.998  0.0954 -0.1769  0.3938
   91CHL1   H3' 9144   3.370   3.914   6.976  0.6857 -1.1781  0.3018
   91CHL1    C4 9145   3.212   3.736   7.188  0.5849 -0.1414 -0.3511
   91CHL1   H4A 9146   3.108   3.746   7.151 -0.5988 -3.0762  1.7541
   91CHL1   H4B 9147   3.255   3.648   7.135 -0.6011 -1.4860  0.7949
   91CHL1    C5 9148   3.214   3.730   7.341 -0.6052 -0.3200  0.0638
   91CHL1    C6 9149   3.259   3.617   7.395 -1.0552 -0.0183  0.1686
   91CHL1    H6 9150   3.295   3.536   7.331  0.3697 -0.4658  1.5000
   91CHL1    C7 9151   3.267   3.586   7.543  0.3728  0.5269  0.3169
   91CHL1   H7A 9152   3.216   3.488   7.555 -1.0156  0.8018 -2.5134
   91CHL1   H7B 9153   3.368   3.584   7.588  0.4359 -1.5263  0.1993
   91CHL1    C8 9154   3.192   3.698   7.617  0.1882  0.1138  0.0204
   91CHL1    H8 9155   3.085   3.670   7.619 -0.0281  0.9397  1.8384
   91CHL1   C14 9156   3.239   3.691   7.764 -0.0136 -0.1811 -0.2801
   91CHL1   H14 9157   3.347   3.715   7.766  0.0621 -0.5103 -0.4310
   91CHL1   C15 9158   3.219   3.553   7.832  0.1570 -0.7350  1.3223
   91CHL1  H15A 9159   3.124   3.509   7.796  0.2084  0.1758 -0.0104
   91CHL1  H15B 9160   3.303   3.481   7.821  1.3012  0.8586 -0.9942
   91CHL1   C16 9161   3.212   3.584   7.984 -0.3395  0.4259  0.3702
   91CHL1  H16A 9162   3.120   3.536   8.023  0.5053 -2.0333 -0.4976
   91CHL1  H16B 9163   3.305   3.545   8.031  0.8362  0.7520 -1.5553
   91CHL1   C17 9164   3.212   3.736   7.993 -0.2381 -0.5298  0.2868
   91CHL1   H17 9165   3.316   3.774   7.996 -0.3797 -0.1671  0.5667
   91CHL1   C13 9166   3.167   3.792   7.852  0.2552  0.7477  0.4290
   91CHL1   C18 9167   3.009   3.770   7.852 -0.0222  0.3194  0.4078
   91CHL1  H18A 9168   2.964   3.785   7.752  2.0087  2.6516 -0.2694
   91CHL1  H18B 9169   2.985   3.667   7.886  0.2325  0.1692  0.1390
   91CHL1  H18C 9170   2.956   3.839   7.921  0.1943 -2.2252  3.3942
   91CHL1   C12 9171   3.197   3.932   7.805 -0.2424  0.0166 -0.4100
   91CHL1  H12A 9172   3.143   4.009   7.864 -1.5204  0.0217 -1.5298
   91CHL1  H12B 9173   3.305   3.951   7.818 -0.3857  0.1387  0.7605
   91CHL1   C11 9174   3.167   3.962   7.662 -0.5953  0.4213 -0.1916
   91CHL1  H11A 9175   3.059   3.987   7.653 -0.1981  1.7715 -1.5589
   91CHL1  H11B 9176   3.218   4.056   7.631 -1.3038  1.0894  0.6154
   91CHL1    C9 9177   3.215   3.846   7.568 -0.3714  0.3560  0.9703
   91CHL1    H9 9178   3.326   3.853   7.561 -0.2676 -0.3279  1.7254
   91CHL1   C10 9179   3.174   3.861   7.416 -0.0604 -0.0481  0.2992
   91CHL1   C19 9180   3.022   3.883   7.397 -0.5240  0.6304  0.1806
   91CHL1  H19A 9181   2.975   3.978   7.429  0.8459  1.0431  1.0482
   91CHL1  H19B 9182   2.999   3.858   7.291 -0.0676 -0.7329  0.3794
   91CHL1  H19C 9183   2.967   3.809   7.459  2.2965  0.6488  2.9436
   91CHL1    C1 9184   3.244   3.984   7.351  0.1833 -0.4294  0.2479
   91CHL1   H1A 9185   3.179   4.068   7.383  1.5986  0.0443  2.0488
   91CHL1   H1B 9186   3.347   4.001   7.391 -0.0328 -0.1581  0.6992
   91CHL1    C2 9187   3.247   3.985   7.200 -0.6700  0.3947 -0.1171
   91CHL1   H2A 9188   3.311   4.068   7.163 -2.0917  1.3571 -0.5328
   91CHL1   H2B 9189   3.145   4.008   7.160  0.7079  3.6695 -2.1554
   91CHL1   C20 9190   3.140   3.788   8.115  0.2862 -0.2904  0.1997
   91CHL1   H20 9191   3.034   3.754   8.115 -0.1652  1.0074  0.8931
   91CHL1   C21 9192   3.129   3.940   8.118  0.2864 -0.3248  0.0135
   91CHL1  H21A 9193   3.093   3.984   8.213  1.3628 -0.0893  0.3313
   91CHL1  H21B 9194   3.058   3.976   8.040 -0.6114  0.3693  1.1266
   91CHL1  H21C 9195   3.231   3.970   8.086  0.3367 -1.7936 -1.3528
   91CHL1   C22 9196   3.198   3.730   8.242  0.6072 -0.5873  0.5479
   91CHL1  H22A 9197   3.224   3.623   8.231 -2.6751 -1.4283  0.0977
   91CHL1  H22B 9198   3.294   3.779   8.268  1.9448 -2.3942 -0.7050
   91CHL1   C23 9199   3.100   3.741   8.357 -0.4093  0.4710  0.6414
   91CHL1  H23A 9200   3.058   3.843   8.369  1.8165  1.6709 -0.9742
   91CHL1  H23B 9201   3.018   3.677   8.320  1.4641 -1.1172 -0.9500
   91CHL1   C24 9202   3.148   3.692   8.492 -0.1026 -0.4045  0.1011
   91CHL1  H24A 9203   3.071   3.702   8.572 -0.1198  4.1473 -0.2492
   91CHL1  H24B 9204   3.179   3.585   8.484 -0.6211 -0.6587  1.1864
   91CHL1   C25 9205   3.280   3.760   8.547  0.4293  0.2125 -0.7861
   91CHL1   H25 9206   3.363   3.736   8.477 -0.5046 -0.6066 -1.6585
   91CHL1   C26 9207   3.259   3.908   8.569  0.5553 -0.2276 -0.3820
   91CHL1  H26A 9208   3.349   3.961   8.608 -0.2819  2.4032 -1.8105
   91CHL1  H26B 9209   3.237   3.960   8.473  1.3663  2.1693  0.6574
   91CHL1  H26C 9210   3.178   3.913   8.644  1.4822  0.6470  0.6017
   91CHL1   C27 9211   3.308   3.690   8.684 -0.0454 -0.0940  0.2065
   91CHL1  H27A 9212   3.319   3.580   8.671 -0.1971 -0.1773  0.7620
   91CHL1  H27B 9213   3.407   3.718   8.725  0.5708 -4.3739  2.2483
   91CHL1  H27C 9214   3.217   3.699   8.747 -1.9304  1.7284 -2.5330
   92CHL1    C3 9215   0.571   5.284   7.112  0.1637 -0.6150 -0.1240
   92CHL1    H3 9216   0.622   5.382   7.114 -0.3354 -0.3600  1.2457
   92CHL1    O3 9217   0.546   5.235   6.981 -0.2466  0.2380  0.1089
   92CHL1   H3' 9218   0.472   5.290   6.953 -0.0980  0.3778 -0.0072
   92CHL1    C4 9219   0.675   5.188   7.164 -0.0161  0.1919 -0.5161
   92CHL1   H4A 9220   0.630   5.090   7.138 -0.2330  0.7930 -2.6025
   92CHL1   H4B 9221   0.763   5.183   7.097 -0.2510 -2.0853 -0.7279
   92CHL1    C5 9222   0.711   5.207   7.310  0.7921  0.4213 -0.0401
   92CHL1    C6 9223   0.842   5.217   7.343  0.3643  0.5041  1.1502
   92CHL1    H6 9224   0.926   5.193   7.277 -1.9326 -2.2726 -1.0460
   92CHL1    C7 9225   0.881   5.231   7.484 -0.5710 -0.2215 -0.2165
   92CHL1   H7A 9226   0.961   5.155   7.498 -0.3070 -0.7185 -3.5426
   92CHL1   H7B 9227   0.927   5.331   7.500  0.2349 -0.6978  0.5307
   92CHL1    C8 9228   0.776   5.210   7.589  0.0311 -0.2922  0.6497
   92CHL1    H8 9229   0.759   5.100   7.600  1.0310 -0.3036  2.3231
   92CHL1   C14 9230   0.812   5.259   7.724 -0.5619 -1.3022 -0.2651
   92CHL1   H14 9231   0.828   5.369   7.716  0.0753 -1.3935 -0.2794
   92CHL1   C15 9232   0.935   5.196   7.783 -0.3539  0.1040 -0.2415
   92CHL1  H15A 9233   0.938   5.087   7.762 -2.2302 -0.0050 -0.1133
   92CHL1  H15B 9234   1.024   5.254   7.749  1.3259  0.1026  3.6141
   92CHL1   C16 9235   0.924   5.217   7.935  0.2396  0.5872  0.3898
   92CHL1  H16A 9236   0.922   5.119   7.987 -1.0692 -0.3004 -1.2041
   92CHL1  H16B 9237   1.013   5.268   7.976  1.2198 -0.4251 -0.4249
   92CHL1   C17 9238   0.782   5.286   7.961  0.0356 -0.2909  0.0272
   92CHL1   H17 9239   0.788   5.397   7.955 -1.2060 -0.1360  1.2139
   92CHL1   C13 9240   0.703   5.246   7.832  0.1101  0.4159  0.2374
   92CHL1   C18 9241   0.669   5.092   7.857 -0.0814  0.2001 -1.0488
   92CHL1  H18A 9242   0.620   5.043   7.770 -1.3962 -1.8152  0.7185
   92CHL1  H18B 9243   0.758   5.035   7.892 -0.1494  0.4844 -0.4085
   92CHL1  H18C 9244   0.595   5.074   7.938  1.7965 -2.0819  0.2726
   92CHL1   C12 9245   0.581   5.330   7.784  0.3531 -0.2599  0.5845
   92CHL1  H12A 9246   0.492   5.325   7.850 -0.4115  0.8999 -0.3321
   92CHL1  H12B 9247   0.597   5.439   7.772 -1.6513 -0.1573 -1.8896
   92CHL1   C11 9248   0.538   5.279   7.646  0.9403 -0.3660  0.1711
   92CHL1  H11A 9249   0.487   5.183   7.672  1.2158 -0.2966  1.0004
   92CHL1  H11B 9250   0.451   5.331   7.603  0.1200 -1.3409  0.6136
   92CHL1    C9 9251   0.643   5.267   7.534 -0.0728  0.0318 -0.0684
   92CHL1    H9 9252   0.671   5.374   7.522  0.2009  0.3780  2.7739
   92CHL1   C10 9253   0.584   5.218   7.399  0.3502  0.6276 -0.7267
   92CHL1   C19 9254   0.523   5.080   7.429 -0.1166  0.8561 -0.6939
   92CHL1  H19A 9255   0.507   5.026   7.333  0.3389  1.6448 -1.2273
   92CHL1  H19B 9256   0.582   5.019   7.500 -0.0844  0.1944 -1.2757
   92CHL1  H19C 9257   0.421   5.091   7.472 -0.1361 -1.9697  0.1970
   92CHL1    C1 9258   0.476   5.317   7.345  0.4285  0.2432 -0.4457
   92CHL1   H1A 9259   0.392   5.299   7.416  1.4702 -2.0016  0.3358
   92CHL1   H1B 9260   0.517   5.419   7.357 -1.8501  1.0257  1.4281
   92CHL1    C2 9261   0.447   5.293   7.197 -0.0261  0.0266 -0.1353
   92CHL1   H2A 9262   0.381   5.380   7.176 -0.7582 -0.5457 -0.2665
   92CHL1   H2B 9263   0.385   5.201   7.182  1.7388 -1.0401 -1.1757
   92CHL1   C20 9264   0.731   5.248   8.098  0.1499  0.3111  0.4169
   92CHL1   H20 9265   0.723   5.137   8.096  0.7501  0.2560 -1.7704
   92CHL1   C21 9266   0.581   5.293   8.129 -0.3704 -0.5344  0.1599
   92CHL1  H21A 9267   0.538   5.255   8.224 -1.6470 -0.5878 -0.4133
   92CHL1  H21B 9268   0.526   5.238   8.049  2.0543 -1.9753 -0.6169
   92CHL1  H21C 9269   0.573   5.403   8.114  0.8365 -0.3453  0.8060
   92CHL1   C22 9270   0.822   5.306   8.208 -0.6207  0.0202  0.1327
   92CHL1  H22A 9271   0.928   5.283   8.185  0.0775  2.2708  0.8416
   92CHL1  H22B 9272   0.801   5.415   8.203 -1.4015  0.0432  2.5967
   92CHL1   C23 9273   0.791   5.251   8.350 -0.2527 -0.7237  0.6346
   92CHL1  H23A 9274   0.692   5.298   8.371 -0.2868  1.8963 -4.1013
   92CHL1  H23B 9275   0.772   5.141   8.345  0.2578 -0.7445 -1.9166
   92CHL1   C24 9276   0.900   5.279   8.454 -0.8359  0.3827 -0.6138
   92CHL1  H24A 9277   0.997   5.277   8.399 -0.9114 -0.0743 -0.7385
   92CHL1  H24B 9278   0.886   5.383   8.489 -0.6505 -0.1880  1.2391
   92CHL1   C25 9279   0.899   5.183   8.581 -0.6331  0.5750  0.2488
   92CHL1   H25 9280   0.799   5.195   8.629  0.6521  1.6791  2.8821
   92CHL1   C26 9281   0.937   5.033   8.562  0.0582 -0.3076  0.1949
   92CHL1  H26A 9282   0.932   4.975   8.657  0.1091  0.5196  0.7128
   92CHL1  H26B 9283   0.884   4.979   8.481 -0.4725 -0.1223  0.4178
   92CHL1  H26C 9284   1.042   5.042   8.527 -0.2147 -1.6265 -1.0263
   92CHL1   C27 9285   1.001   5.233   8.692  0.6203  0.0961  0.0945
   92CHL1  H27A 9286   0.997   5.342   8.714 -1.7622  0.1196 -0.1656
   92CHL1  H27B 9287   0.978   5.195   8.794  2.0053  2.0268  1.1860
   92CHL1  H27C 9288   1.104   5.205   8.663  0.1939 -1.5019  0.0101
   93CHL1    C3 9289   5.618   1.614   7.052  0.3825  0.6307  0.6441
   93CHL1    H3 9290   5.639   1.508   7.077  0.7687  0.8428  1.2153
   93CHL1    O3 9291   5.619   1.617   6.908  0.3010  0.2804 -0.5247
   93CHL1   H3' 9292   5.697   1.568   6.881  0.9405  1.1848 -0.3399
   93CHL1    C4 9293   5.475   1.640   7.105 -0.7599 -0.1944  0.8350
   93CHL1   H4A 9294   5.452   1.739   7.061 -2.8396 -0.3006  1.5673
   93CHL1   H4B 9295   5.417   1.561   7.052 -0.8323  0.5694 -0.2359
   93CHL1    C5 9296   5.476   1.640   7.259 -0.4945  0.1538 -0.3953
   93CHL1    C6 9297   5.402   1.555   7.323 -0.1431  0.1719 -0.1991
   93CHL1    H6 9298   5.343   1.489   7.257 -0.7024  0.7602 -0.3008
   93CHL1    C7 9299   5.381   1.553   7.473 -0.5205  0.1308 -0.2634
   93CHL1   H7A 9300   5.274   1.531   7.491 -0.6036  0.6244 -0.1390
   93CHL1   H7B 9301   5.446   1.470   7.508  0.6493  1.5292  1.0174
   93CHL1    C8 9302   5.441   1.685   7.542 -0.2237 -0.2005 -1.4135
   93CHL1    H8 9303   5.374   1.770   7.520 -1.4799 -1.3078 -1.9614
   93CHL1   C14 9304   5.457   1.659   7.691 -1.0945 -0.0929  0.3017
   93CHL1   H14 9305   5.516   1.567   7.713 -2.8363 -1.3472 -0.0548
   93CHL1   C15 9306   5.329   1.621   7.767 -0.1920 -0.1236  0.6717
   93CHL1  H15A 9307   5.247   1.686   7.729 -1.7431 -3.3124 -1.8674
   93CHL1  H15B 9308   5.288   1.518   7.766  1.4904 -0.8209 -0.0347
   93CHL1   C16 9309   5.359   1.661   7.913 -0.0887  0.3842  0.6064
   93CHL1  H16A 9310   5.285   1.736   7.949 -1.2837 -0.4504 -0.0633
   93CHL1  H16B 9311   5.344   1.566   7.968 -1.9566  1.0382  1.3204
   93CHL1   C17 9312   5.506   1.724   7.919 -0.3172 -0.2067  0.7440
   93CHL1   H17 9313   5.580   1.643   7.932 -0.5750 -0.6758 -0.5251
   93CHL1   C13 9314   5.528   1.771   7.768  0.0207  0.3409  0.2485
   93CHL1   C18 9315   5.455   1.910   7.739 -0.4151 -0.2389  0.0590
   93CHL1  H18A 9316   5.354   1.917   7.785  0.3914  1.3119  1.6700
   93CHL1  H18B 9317   5.512   1.997   7.777 -0.7075 -0.3778  0.8224
   93CHL1  H18C 9318   5.444   1.925   7.629 -1.2846 -0.3492  0.1235
   93CHL1   C12 9319   5.674   1.778   7.713  0.1362  0.3490 -0.3753
   93CHL1  H12A 9320   5.728   1.862   7.761  2.3023  0.0035 -2.0428
   93CHL1  H12B 9321   5.729   1.685   7.737 -0.6604 -0.7255 -2.4617
   93CHL1   C11 9322   5.678   1.804   7.566 -0.2713 -0.0029 -0.3284
   93CHL1  H11A 9323   5.664   1.913   7.550  2.4855  0.3791 -0.5655
   93CHL1  H11B 9324   5.779   1.775   7.530  0.4403  0.5764  1.1166
   93CHL1    C9 9325   5.574   1.716   7.482 -0.8459 -0.2059  0.4881
   93CHL1    H9 9326   5.632   1.622   7.488 -0.6966 -0.2783 -1.4852
   93CHL1   C10 9327   5.574   1.736   7.324  0.0259  0.2155 -0.6523
   93CHL1   C19 9328   5.530   1.882   7.301  0.8483  0.3221  0.3977
   93CHL1  H19A 9329   5.434   1.906   7.351  0.2120  0.8772 -1.0585
   93CHL1  H19B 9330   5.610   1.937   7.354  0.4772 -0.2051  1.5373
   93CHL1  H19C 9331   5.506   1.895   7.194 -5.2283 -0.7935  1.2436
   93CHL1    C1 9332   5.711   1.713   7.262  0.1108 -0.5175  0.3725
   93CHL1   H1A 9333   5.778   1.797   7.289  1.2324 -1.3062  0.1148
   93CHL1   H1B 9334   5.761   1.623   7.304 -0.5636 -0.7866  0.6030
   93CHL1    C2 9335   5.718   1.703   7.111 -0.4580  1.0100 -0.1762
   93CHL1   H2A 9336   5.823   1.682   7.083 -0.8097  0.4485 -1.1532
   93CHL1   H2B 9337   5.689   1.807   7.083  1.3261  1.4935 -0.3261
   93CHL1   C20 9338   5.512   1.829   8.034 -0.5426  0.0400 -0.0765
   93CHL1   H20 9339   5.439   1.908   8.006  0.3305  0.1157 -2.4014
   93CHL1   C21 9340   5.651   1.895   8.032  0.4519 -0.7864  1.0719
   93CHL1  H21A 9341   5.667   1.956   7.941  1.3065 -1.2844  0.8739
   93CHL1  H21B 9342   5.726   1.814   8.015  0.2331 -0.7612 -0.0566
   93CHL1  H21C 9343   5.669   1.958   8.122  1.7787  0.8241 -0.2569
   93CHL1   C22 9344   5.486   1.770   8.173  0.0928  0.0770 -0.6560
   93CHL1  H22A 9345   5.387   1.721   8.185  0.3911 -0.2961  0.4187
   93CHL1  H22B 9346   5.560   1.688   8.187 -1.3804 -1.0240  1.1037
   93CHL1   C23 9347   5.494   1.863   8.292 -0.5304  0.2262 -0.2066
   93CHL1  H23A 9348   5.604   1.877   8.302 -0.4167 -0.1460 -0.9529
   93CHL1  H23B 9349   5.438   1.957   8.270  1.5227  1.1827 -1.5649
   93CHL1   C24 9350   5.431   1.813   8.421 -0.7501 -0.7235 -0.3374
   93CHL1  H24A 9351   5.321   1.799   8.415 -0.7061 -1.2946  0.0667
   93CHL1  H24B 9352   5.476   1.712   8.439  0.7105 -0.1441 -0.6046
   93CHL1   C25 9353   5.474   1.912   8.535 -0.4720  0.1819  0.1759
   93CHL1   H25 9354   5.576   1.947   8.508 -0.6198 -0.2970 -1.1023
   93CHL1   C26 9355   5.394   2.038   8.533  0.3158  0.2295  0.7335
   93CHL1  H26A 9356   5.401   2.115   8.612 -1.7103  1.6616 -0.3800
   93CHL1  H26B 9357   5.419   2.098   8.442  1.7410 -0.6160  0.5345
   93CHL1  H26C 9358   5.287   2.009   8.520  0.2199  0.4893  0.9365
   93CHL1   C27 9359   5.465   1.845   8.670 -0.0990  0.0836 -0.5801
   93CHL1  H27A 9360   5.556   1.783   8.683  0.3452  0.9123  0.4679
   93CHL1  H27B 9361   5.480   1.921   8.749 -0.8480  1.7871 -2.0058
   93CHL1  H27C 9362   5.373   1.783   8.679  1.0644 -1.4576  1.7756
   94CHL1    C3 9363   1.809   5.903   7.083 -0.7618 -0.5173 -0.2179
   94CHL1    H3 9364   1.861   5.808   7.108 -1.8816 -0.7264  1.5136
   94CHL1    O3 9365   1.817   5.924   6.947 -0.2289  0.3621 -0.3796
   94CHL1   H3' 9366   1.881   5.995   6.939  0.5120 -0.0921  1.0999
   94CHL1    C4 9367   1.664   5.903   7.119  1.0614 -0.3195  0.1492
   94CHL1   H4A 9368   1.613   5.995   7.083 -1.9670 -1.5038  1.1580
   94CHL1   H4B 9369   1.612   5.823   7.061 -1.4675  1.3249 -0.0020
   94CHL1    C5 9370   1.637   5.901   7.263  0.3750  0.1124  0.7753
   94CHL1    C6 9371   1.548   5.811   7.315  0.0681  0.0184 -0.2122
   94CHL1    H6 9372   1.505   5.738   7.244 -0.5725  1.4000 -1.3084
   94CHL1    C7 9373   1.509   5.824   7.462  0.1971 -1.0212 -0.2669
   94CHL1   H7A 9374   1.398   5.828   7.468  0.1843 -0.8677 -0.5655
   94CHL1   H7B 9375   1.548   5.732   7.511 -0.4718 -1.8131 -1.1718
   94CHL1    C8 9376   1.570   5.944   7.539 -0.4216  0.2843 -0.5913
   94CHL1    H8 9377   1.502   6.031   7.525 -0.9563  0.0583  0.4898
   94CHL1   C14 9378   1.591   5.908   7.687 -0.1031  0.3659  0.0464
   94CHL1   H14 9379   1.660   5.821   7.693  0.0115  0.4281 -0.3802
   94CHL1   C15 9380   1.463   5.861   7.762  0.3477 -0.1397  0.2400
   94CHL1  H15A 9381   1.367   5.914   7.743  1.4438  1.7917 -0.1888
   94CHL1  H15B 9382   1.444   5.754   7.737  1.3705 -0.7035  1.7185
   94CHL1   C16 9383   1.508   5.869   7.908 -0.3375 -0.2371  0.0772
   94CHL1  H16A 9384   1.425   5.931   7.949 -1.0389  0.6006 -2.4177
   94CHL1  H16B 9385   1.518   5.771   7.961 -0.9699 -0.7948 -0.8000
   94CHL1   C17 9386   1.639   5.955   7.921 -0.0555  0.1754 -0.4976
   94CHL1   H17 9387   1.724   5.883   7.920  0.0386  0.2401 -2.5447
   94CHL1   C13 9388   1.643   6.020   7.780  0.0461 -0.0578  0.2340
   94CHL1   C18 9389   1.544   6.139   7.784  0.2783  0.3809  0.0476
   94CHL1  H18A 9390   1.600   6.228   7.822 -1.3195  1.9334 -1.1104
   94CHL1  H18B 9391   1.504   6.161   7.683  0.4400 -1.3095 -0.4076
   94CHL1  H18C 9392   1.459   6.125   7.854  0.8477  0.2477  0.7317
   94CHL1   C12 9393   1.780   6.061   7.729 -0.7796  0.0163 -0.5943
   94CHL1  H12A 9394   1.831   6.145   7.782  1.8226 -1.8629  0.0431
   94CHL1  H12B 9395   1.849   5.976   7.746 -0.9625  0.1163  0.7494
   94CHL1   C11 9396   1.769   6.099   7.580 -0.1821 -0.8148  0.4820
   94CHL1  H11A 9397   1.703   6.188   7.581 -0.2909 -0.8866  1.9392
   94CHL1  H11B 9398   1.873   6.118   7.546 -0.1513  1.6554  1.7455
   94CHL1    C9 9399   1.710   5.986   7.493  0.0049  0.5796  0.4251
   94CHL1    H9 9400   1.783   5.904   7.510 -0.3465 -0.5625 -2.8550
   94CHL1   C10 9401   1.709   6.010   7.343 -0.0854 -0.1632 -0.4132
   94CHL1   C19 9402   1.664   6.149   7.309  0.0578 -1.2699  0.0950
   94CHL1  H19A 9403   1.659   6.171   7.200 -0.3303 -0.0657  0.3412
   94CHL1  H19B 9404   1.563   6.177   7.347  0.3706 -1.5788  1.2000
   94CHL1  H19C 9405   1.735   6.223   7.351 -3.1852 -0.0500  4.0697
   94CHL1    C1 9406   1.862   6.009   7.301  0.0109  0.0291  0.3840
   94CHL1   H1A 9407   1.922   6.086   7.353 -0.0577 -0.8031  1.7545
   94CHL1   H1B 9408   1.900   5.908   7.327  1.3694  0.3613 -0.1948
   94CHL1    C2 9409   1.886   6.019   7.152  0.9264  0.1166 -0.3119
   94CHL1   H2A 9410   1.997   6.022   7.146  0.9023  1.5117 -0.2974
   94CHL1   H2B 9411   1.846   6.113   7.108  2.3228  0.2621 -1.3139
   94CHL1   C20 9412   1.640   6.043   8.043  0.8230 -0.4376  0.1990
   94CHL1   H20 9413   1.568   6.127   8.029 -1.6388 -2.4665 -0.1152
   94CHL1   C21 9414   1.770   6.118   8.069 -0.0805 -0.6447  0.3760
   94CHL1  H21A 9415   1.775   6.152   8.175  0.4445 -1.9493  0.7846
   94CHL1  H21B 9416   1.788   6.208   8.006  0.7878 -0.0654  1.4199
   94CHL1  H21C 9417   1.858   6.053   8.050 -0.7753 -1.7269  0.7608
   94CHL1   C22 9418   1.593   5.972   8.170  0.2302 -0.2046  0.4597
   94CHL1  H22A 9419   1.491   5.928   8.158  0.5406 -0.6682 -0.7265
   94CHL1  H22B 9420   1.662   5.886   8.178 -1.7595 -2.1242 -1.4301
   94CHL1   C23 9421   1.595   6.047   8.305  0.2231  0.4383 -0.6629
   94CHL1  H23A 9422   1.689   6.101   8.331  0.5403 -0.7966  0.9121
   94CHL1  H23B 9423   1.520   6.127   8.294  0.7850  1.0023 -0.4532
   94CHL1   C24 9424   1.561   5.954   8.423  0.3579  0.1829  0.0006
   94CHL1  H24A 9425   1.469   5.892   8.414  1.2650 -0.9477 -2.5033
   94CHL1  H24B 9426   1.640   5.875   8.419 -1.9087 -2.2305 -0.0541
   94CHL1   C25 9427   1.565   6.010   8.567 -0.3599  0.3045 -0.1874
   94CHL1   H25 9428   1.666   6.051   8.591  0.0768 -0.7286 -0.2089
   94CHL1   C26 9429   1.457   6.114   8.593  0.6278  0.7241 -0.0988
   94CHL1  H26A 9430   1.436   6.109   8.702 -0.2530  1.3422 -0.2317
   94CHL1  H26B 9431   1.479   6.219   8.566  2.1409  0.6834  0.8515
   94CHL1  H26C 9432   1.360   6.081   8.550 -0.0560  0.1144  1.7952
   94CHL1   C27 9433   1.543   5.888   8.655 -0.0609  0.0771 -0.3234
   94CHL1  H27A 9434   1.434   5.868   8.657  0.0867 -0.9071 -1.1097
   94CHL1  H27B 9435   1.583   5.789   8.625 -1.9824 -1.3420  1.4908
   94CHL1  H27C 9436   1.572   5.906   8.761 -2.1911  0.4058  0.2526
   95CHL1    C3 9437   1.082   4.651   6.797 -0.2678  0.8995  0.5234
   95CHL1    H3 9438   0.974   4.665   6.773 -0.8588 -0.5508  2.1661
   95CHL1    O3 9439   1.160   4.652   6.680 -0.2563  0.8986  0.4398
   95CHL1   H3' 9440   1.110   4.594   6.621  0.8072  0.8908 -0.4877
   95CHL1    C4 9441   1.143   4.759   6.886  0.0528 -0.3781 -0.0710
   95CHL1   H4A 9442   1.253   4.739   6.891  0.4101  1.4301 -0.0731
   95CHL1   H4B 9443   1.140   4.864   6.849 -0.3402 -0.1797  0.5212
   95CHL1    C5 9444   1.088   4.753   7.033  1.0322  0.2713 -0.0426
   95CHL1    C6 9445   1.028   4.863   7.088 -0.0803 -0.0178  0.0189
   95CHL1    H6 9446   1.032   4.963   7.041  2.0345 -0.2160 -0.3247
   95CHL1    C7 9447   0.988   4.870   7.230  0.5982  0.4830 -0.2975
   95CHL1   H7A 9448   1.044   4.957   7.271  0.5197 -0.2779  1.5503
   95CHL1   H7B 9449   0.877   4.871   7.234  0.4362 -3.8481  1.2916
   95CHL1    C8 9450   1.033   4.744   7.318  0.0081  0.0500  0.4508
   95CHL1    H8 9451   1.143   4.761   7.323  0.1881  0.7245 -3.0621
   95CHL1   C14 9452   0.958   4.738   7.447 -0.3967 -0.2263 -0.7300
   95CHL1   H14 9453   0.858   4.705   7.413  0.2490 -3.8285  0.3933
   95CHL1   C15 9454   0.957   4.865   7.537  0.0691 -0.8346  0.0729
   95CHL1  H15A 9455   1.057   4.913   7.526 -0.2451 -0.0256  0.6159
   95CHL1  H15B 9456   0.876   4.937   7.511  0.1769 -0.5947  0.3950
   95CHL1   C16 9457   0.929   4.812   7.677 -0.7176 -0.0621 -0.3012
   95CHL1  H16A 9458   1.015   4.836   7.743 -0.6916 -3.2301  0.9907
   95CHL1  H16B 9459   0.839   4.860   7.721 -1.4127 -0.9202 -0.7575
   95CHL1   C17 9460   0.916   4.658   7.663  0.4725 -0.3936  0.3317
   95CHL1   H17 9461   0.810   4.635   7.636  1.1245  0.2565 -3.2594
   95CHL1   C13 9462   1.000   4.617   7.540  0.7101 -0.0734  0.3402
   95CHL1   C18 9463   1.158   4.627   7.568  0.2817  0.2002 -0.0912
   95CHL1  H18A 9464   1.193   4.543   7.632  1.2134 -0.6058 -1.5715
   95CHL1  H18B 9465   1.218   4.609   7.476 -0.8391 -2.2719 -0.4181
   95CHL1  H18C 9466   1.196   4.717   7.621  1.3859 -1.2767  1.7470
   95CHL1   C12 9467   0.968   4.488   7.459 -0.0392 -0.7011 -0.0586
   95CHL1  H12A 9468   1.002   4.394   7.507  1.8714  0.6244  1.3198
   95CHL1  H12B 9469   0.857   4.483   7.447 -0.2520  1.4176  0.5570
   95CHL1   C11 9470   1.029   4.485   7.313  0.5755 -0.2677 -0.1812
   95CHL1  H11A 9471   1.137   4.470   7.331  1.7653  3.9916 -2.4666
   95CHL1  H11B 9472   0.981   4.400   7.259  2.0699 -1.5023  0.3772
   95CHL1    C9 9473   1.010   4.615   7.237  0.0806  0.1418  0.1668
   95CHL1    H9 9474   0.905   4.615   7.202  0.0993  0.8913  0.0974
   95CHL1   C10 9475   1.094   4.612   7.105 -0.2748  0.0129 -0.4013
   95CHL1   C19 9476   1.245   4.581   7.125 -0.3129  0.1366 -0.3349
   95CHL1  H19A 9477   1.248   4.475   7.156  0.8927 -0.0997 -1.1746
   95CHL1  H19B 9478   1.300   4.582   7.028 -0.2487 -2.0786 -0.3728
   95CHL1  H19C 9479   1.292   4.647   7.201 -2.2035  1.1220  0.0482
   95CHL1    C1 9480   1.033   4.504   7.010  0.0001 -0.4152  0.0048
   95CHL1   H1A 9481   1.057   4.399   7.038  0.6101  0.0543  1.3141
   95CHL1   H1B 9482   0.923   4.515   7.008 -0.1372 -1.4515  0.8731
   95CHL1    C2 9483   1.088   4.515   6.865 -0.6038  0.0053  0.6525
   95CHL1   H2A 9484   1.033   4.438   6.807 -1.6054  0.1787  1.3451
   95CHL1   H2B 9485   1.197   4.494   6.870 -0.7583 -0.9158  0.2479
   95CHL1   C20 9486   0.950   4.584   7.793  0.2389  0.1181 -0.1653
   95CHL1   H20 9487   1.052   4.622   7.816 -0.2037  1.7096 -0.6803
   95CHL1   C21 9488   0.946   4.428   7.771  0.4725  0.2850  0.6206
   95CHL1  H21A 9489   0.945   4.385   7.873 -2.1703 -0.1824  0.4755
   95CHL1  H21B 9490   1.034   4.402   7.709  1.1145 -0.1530  1.6906
   95CHL1  H21C 9491   0.848   4.400   7.726  0.9291 -1.8176  0.8121
   95CHL1   C22 9492   0.867   4.626   7.913  0.6177  0.8862  0.2877
   95CHL1  H22A 9493   0.850   4.735   7.907 -1.8815  0.6326  1.4249
   95CHL1  H22B 9494   0.763   4.587   7.913  0.7769  0.4258  1.3683
   95CHL1   C23 9495   0.926   4.594   8.049 -0.6442  0.3419  0.1327
   95CHL1  H23A 9496   0.953   4.487   8.056 -3.1086 -0.4165 -0.9038
   95CHL1  H23B 9497   1.021   4.647   8.071 -0.1106 -0.6211  0.2017
   95CHL1   C24 9498   0.832   4.631   8.169  0.4501  0.0291  0.4011
   95CHL1  H24A 9499   0.793   4.732   8.145  0.3386 -0.3432 -1.1059
   95CHL1  H24B 9500   0.745   4.563   8.173 -1.6018  2.3048 -2.0831
   95CHL1   C25 9501   0.908   4.628   8.302  0.6700 -0.5570 -0.2610
   95CHL1   H25 9502   1.003   4.679   8.276 -0.5603  1.8232 -0.4137
   95CHL1   C26 9503   0.830   4.691   8.417  0.0456 -0.3852  0.1212
   95CHL1  H26A 9504   0.879   4.688   8.517 -1.3310  1.6680  0.9199
   95CHL1  H26B 9505   0.820   4.798   8.388 -0.5648 -0.3195  0.5454
   95CHL1  H26C 9506   0.721   4.668   8.425 -0.9497  3.7586  0.6572
   95CHL1   C27 9507   0.934   4.483   8.341  0.5768 -0.5998 -0.0816
   95CHL1  H27A 9508   0.979   4.494   8.442  0.0836 -1.3244  0.2261
   95CHL1  H27B 9509   0.836   4.431   8.347  1.6449 -2.5252  2.0911
   95CHL1  H27C 9510   1.004   4.432   8.272  2.1165  1.4334 -0.1182
   96CHL1    C3 9511   1.396   4.096   6.937  0.1731 -0.5764 -0.3070
   96CHL1    H3 9512   1.486   4.154   6.967 -0.9393  1.0172  0.0312
   96CHL1    O3 9513   1.394   4.095   6.796 -0.5995 -0.0644  0.4230
   96CHL1   H3' 9514   1.365   4.185   6.780  3.0158  1.1810 -0.0461
   96CHL1    C4 9515   1.392   3.952   6.981 -0.3194 -0.0020 -0.2205
   96CHL1   H4A 9516   1.315   3.899   6.920  1.0249 -1.0957 -1.0168
   96CHL1   H4B 9517   1.481   3.900   6.940 -1.1585 -2.2248  0.6021
   96CHL1    C5 9518   1.387   3.936   7.131  0.0688 -0.3991 -1.3566
   96CHL1    C6 9519   1.483   3.873   7.201 -0.3639 -0.6693  0.6725
   96CHL1    H6 9520   1.564   3.819   7.151 -1.9504 -0.2593 -2.5966
   96CHL1    C7 9521   1.471   3.854   7.350 -0.0649  0.4072 -0.0214
   96CHL1   H7A 9522   1.506   3.754   7.384 -1.1444 -0.0084 -0.0966
   96CHL1   H7B 9523   1.545   3.925   7.394  3.8567 -2.6221 -1.0626
   96CHL1    C8 9524   1.328   3.881   7.409  0.4282  0.5866 -0.2850
   96CHL1    H8 9525   1.259   3.804   7.369 -1.3625  1.7182  0.4780
   96CHL1   C14 9526   1.331   3.886   7.559 -0.1912 -0.0055 -0.1588
   96CHL1   H14 9527   1.403   3.967   7.583  0.8617 -0.8047 -0.5073
   96CHL1   C15 9528   1.369   3.758   7.638  0.0283 -0.1707  0.0935
   96CHL1  H15A 9529   1.329   3.661   7.601 -0.6506  0.1290  0.0401
   96CHL1  H15B 9530   1.480   3.751   7.629  0.0982 -1.9446  1.7741
   96CHL1   C16 9531   1.332   3.794   7.787  0.1463  0.4053  0.7130
   96CHL1  H16A 9532   1.273   3.708   7.825 -3.5940  1.0575 -2.9149
   96CHL1  H16B 9533   1.427   3.812   7.841  1.4292 -0.5245 -1.0978
   96CHL1   C17 9534   1.246   3.922   7.776  0.9122  0.1031 -0.6867
   96CHL1   H17 9535   1.316   4.007   7.788  0.5623  0.2080  0.6986
   96CHL1   C13 9536   1.203   3.927   7.627  0.4694  0.4041 -0.9045
   96CHL1   C18 9537   1.087   3.828   7.618  0.9337 -0.1271  0.6114
   96CHL1  H18A 9538   1.102   3.735   7.676 -2.8858 -0.5154  1.2751
   96CHL1  H18B 9539   0.985   3.864   7.645 -0.7370 -1.7681 -2.8840
   96CHL1  H18C 9540   1.073   3.788   7.515 -1.4329  4.0783 -0.9550
   96CHL1   C12 9541   1.165   4.061   7.567  0.1281 -0.6163  0.0043
   96CHL1  H12A 9542   1.070   4.088   7.618  0.4369 -0.1627  0.3567
   96CHL1  H12B 9543   1.242   4.135   7.598  0.7169 -1.6779  1.2087
   96CHL1   C11 9544   1.143   4.053   7.415 -0.3914  0.5217  0.0283
   96CHL1  H11A 9545   1.057   3.984   7.399  0.4530 -0.4385 -0.4872
   96CHL1  H11B 9546   1.106   4.145   7.365  1.0855  0.4730 -1.2390
   96CHL1    C9 9547   1.276   4.011   7.352  0.4509 -0.2127  0.7861
   96CHL1    H9 9548   1.349   4.087   7.385  0.6713 -0.1936  0.2700
   96CHL1   C10 9549   1.266   4.011   7.194 -0.2271  0.3405  0.6151
   96CHL1   C19 9550   1.137   3.938   7.149  0.3597  0.1496 -0.0277
   96CHL1  H19A 9551   1.141   3.829   7.173  1.9038 -0.4952 -2.7536
   96CHL1  H19B 9552   1.046   3.993   7.180  0.0495 -1.5646  2.3608
   96CHL1  H19C 9553   1.134   3.931   7.038  0.2494 -0.3007  0.0014
   96CHL1    C1 9554   1.260   4.155   7.147 -0.4080 -0.5603  0.3284
   96CHL1   H1A 9555   1.162   4.194   7.184 -0.2806  0.1480 -0.0751
   96CHL1   H1B 9556   1.344   4.214   7.187  0.3561 -0.0636 -1.8766
   96CHL1    C2 9557   1.271   4.168   6.987  0.1651  0.4432  1.2245
   96CHL1   H2A 9558   1.274   4.273   6.949 -1.3290  0.2362  0.4770
   96CHL1   H2B 9559   1.178   4.124   6.947 -0.6266  0.5503  2.8999
   96CHL1   C20 9560   1.140   3.933   7.888 -0.7631  0.0128  0.1381
   96CHL1   H20 9561   1.066   3.851   7.876 -0.4810 -0.1808 -0.3362
   96CHL1   C21 9562   1.078   4.074   7.885 -0.4792 -0.3236  0.3078
   96CHL1  H21A 9563   1.163   4.138   7.853  0.0418 -0.9870  0.3431
   96CHL1  H21B 9564   1.034   4.111   7.981  1.4046 -0.2292  1.1862
   96CHL1  H21C 9565   0.994   4.082   7.813  0.6908 -1.7434 -1.2858
   96CHL1   C22 9566   1.201   3.897   8.027  0.6005  0.3003 -0.3252
   96CHL1  H22A 9567   1.226   3.790   8.044  0.2478  0.4265  1.1905
   96CHL1  H22B 9568   1.293   3.957   8.044  0.4134  1.0975 -1.9091
   96CHL1   C23 9569   1.117   3.937   8.150  0.0968 -0.3278  0.0010
   96CHL1  H23A 9570   1.137   4.042   8.180  0.8213 -0.1701 -0.9997
   96CHL1  H23B 9571   1.010   3.923   8.123  0.1405 -1.5029  0.3682
   96CHL1   C24 9572   1.136   3.853   8.279  0.0249  0.4340  0.2234
   96CHL1  H24A 9573   1.141   3.746   8.250  0.3882  1.1809 -2.8038
   96CHL1  H24B 9574   1.232   3.876   8.329 -0.6055  0.9745  1.2162
   96CHL1   C25 9575   1.022   3.861   8.381 -0.1422 -0.2039  0.3710
   96CHL1   H25 9576   0.934   3.848   8.315  0.1106 -2.9061  0.4482
   96CHL1   C26 9577   1.005   3.755   8.494 -0.3106  0.8328  1.1445
   96CHL1  H26A 9578   0.994   3.657   8.442 -0.0113  1.1531  0.4581
   96CHL1  H26B 9579   1.104   3.736   8.541  0.1953 -3.2226 -1.0684
   96CHL1  H26C 9580   0.930   3.781   8.571  0.6591 -0.7757  2.6987
   96CHL1   C27 9581   1.020   3.994   8.462 -0.0921  0.1649  0.2936
   96CHL1  H27A 9582   1.022   4.080   8.392 -0.6186 -0.8862 -1.0613
   96CHL1  H27B 9583   0.918   3.993   8.506 -1.2188 -1.5199 -2.1612
   96CHL1  H27C 9584   1.093   4.004   8.545 -2.3225  0.6172  2.3379
   97OSM      N 9585   5.506   5.268  11.399  0.5391 -0.8749  0.0251
   97OSM    C15 9586   5.461   5.136  11.449 -0.1125  0.3933 -0.4448
   97OSM   H15A 9587   5.506   5.110  11.544 -2.2288 -1.1005  0.2136
   97OSM   H15B 9588   5.474   5.058  11.375 -1.8241  0.3106 -0.7062
   97OSM   H15C 9589   5.356   5.133  11.473  0.1870 -0.5337  0.8845
   97OSM    C14 9590   5.426   5.375  11.472  0.1441  0.2946 -0.3418
   97OSM   H14A 9591   5.324   5.341  11.467  0.1398  0.0652  1.0598
   97OSM   H14B 9592   5.420   5.471  11.422 -0.0555  0.1275 -0.6474
   97OSM   H14C 9593   5.453   5.387  11.575 -1.4315  2.4573 -0.1297
   97OSM    C13 9594   5.654   5.286  11.414 -0.2618 -0.4359  0.0391
   97OSM   H13A 9595   5.692   5.272  11.514 -1.2710 -0.1978  0.4716
   97OSM   H13B 9596   5.691   5.382  11.383  2.3527 -1.1110  0.8684
   97OSM   H13C 9597   5.702   5.209  11.355  0.9475 -1.1093  1.8503
   97OSM    C12 9598   5.469   5.284  11.255  0.1729  0.0747  0.1297
   97OSM   H12A 9599   5.504   5.383  11.230  2.1415 -0.2190  1.4502
   97OSM   H12B 9600   5.362   5.275  11.248  0.0160 -1.2699  2.9408
   97OSM    C11 9601   5.525   5.179  11.151 -0.7731  0.1587 -0.1818
   97OSM   H11A 9602   5.626   5.211  11.116 -0.2267 -1.4654 -0.1778
   97OSM   H11B 9603   5.465   5.187  11.058  0.7271  1.7757 -1.0722
   97OSM      P 9604   5.648   4.949  11.190  0.2537  0.1529  0.0064
   97OSM    O13 9605   5.764   5.013  11.259 -0.4710  0.4641 -0.2705
   97OSM    O14 9606   5.608   4.811  11.228  0.0097 -0.1520  0.3844
   97OSM    O11 9607   5.681   4.940  11.038 -0.4882 -0.1259  0.8064
   97OSM    O12 9608   5.520   5.042  11.187  0.5843 -0.2476 -0.3278
   97OSM    C1S 9609   5.591   4.937  10.925 -0.0558  0.5326 -0.6223
   97OSM    H1S 9610   5.539   5.035  10.916  1.1031  1.2162 -0.1318
   97OSM    H1T 9611   5.511   4.861  10.941 -1.2719  2.0479  0.8805
   97OSM     NF 9612   5.555   4.888  10.686 -0.4138 -0.5652 -0.0023
   97OSM    HNF 9613   5.553   4.801  10.637  1.1135 -1.6079  1.6539
   97OSM    C2S 9614   5.655   4.911  10.789  0.4189 -0.3885  0.4600
   97OSM    H2S 9615   5.716   5.001  10.766 -2.4391  1.7683  0.6831
   97OSM    C3S 9616   5.752   4.792  10.796  0.3938  0.1289  0.0159
   97OSM    H3S 9617   5.694   4.700  10.817 -0.1318  0.6586  0.9487
   97OSM     O3 9618   5.836   4.799  10.911  0.7562 -0.0889  0.4984
   97OSM    HO3 9619   5.775   4.843  10.971  0.9727  1.2843 -0.2650
   97OSM    C4S 9620   5.843   4.785  10.671 -0.1890  0.5772 -0.2434
   97OSM    H4S 9621   5.789   4.732  10.591 -0.8410  0.7365  0.0825
   97OSM    C5S 9622   5.959   4.849  10.646 -0.2203 -0.3636 -0.0541
   97OSM    H5S 9623   5.997   4.918  10.722 -0.6847 -0.1218 -0.0359
   97OSM    C6S 9624   6.029   4.833  10.514 -0.3222 -0.2910 -0.1446
   97OSM    H6S 9625   6.125   4.778  10.522  0.4001  0.8036 -1.0224
   97OSM    H6T 9626   6.054   4.936  10.482 -5.1006  1.6814  1.4556
   97OSM    C7S 9627   5.967   4.769  10.393  0.0106  0.1918 -0.5363
   97OSM    H7S 9628   5.879   4.823  10.353  0.0476  0.4096 -0.3247
   97OSM    H7T 9629   5.932   4.670  10.429  1.7378 -0.0690  0.5505
   97OSM    C8S 9630   6.066   4.764  10.272 -0.6384 -0.7601 -0.1586
   97OSM    H8S 9631   6.151   4.696  10.293 -0.6492 -0.5039  0.8036
   97OSM    H8T 9632   6.114   4.865  10.275  1.1269 -1.5798  0.5813
   97OSM    C9S 9633   5.995   4.719  10.139  0.5345  0.8828 -0.8549
   97OSM    H9S 9634   5.906   4.783  10.122  1.7489  3.0779  0.6199
   97OSM    H9T 9635   5.964   4.613  10.157 -1.5267  1.6259  0.3333
   97OSM   C10S 9636   6.092   4.731  10.026  0.7670  0.6315  0.7109
   97OSM   H10S 9637   6.187   4.673  10.028  0.7999  0.4247 -2.1870
   97OSM   H10T 9638   6.129   4.835  10.020 -0.8454  1.5124  3.9134
   97OSM   C11S 9639   6.036   4.668   9.892  0.3771  0.0722 -1.1723
   97OSM   H11S 9640   6.011   4.561   9.908 -0.8921  0.7460  2.2510
   97OSM   H11T 9641   6.123   4.671   9.824  2.2226 -1.3898  1.0020
   97OSM   C12S 9642   5.919   4.737   9.820  0.3093 -0.9471  0.0594
   97OSM   H12S 9643   5.944   4.845   9.811 -0.4046 -0.5108  2.5831
   97OSM   H12T 9644   5.825   4.734   9.879  1.3467  1.2384  1.9735
   97OSM   C13S 9645   5.899   4.697   9.670 -0.0245  0.7192 -0.3037
   97OSM   H13S 9646   5.869   4.590   9.666  1.1031  0.4159 -1.2094
   97OSM   H13T 9647   5.996   4.699   9.616  0.0004 -1.2314 -0.4126
   97OSM   C14S 9648   5.780   4.768   9.607 -0.3371  0.0731 -0.2132
   97OSM   H14S 9649   5.789   4.877   9.623 -0.2585 -0.1746  1.7022
   97OSM   H14T 9650   5.686   4.733   9.655  0.3170 -1.1925  0.1944
   97OSM   C15S 9651   5.781   4.735   9.455  0.2336 -0.2301  0.9336
   97OSM   H15S 9652   5.774   4.624   9.443 -1.4397  0.1161 -2.4352
   97OSM   H15T 9653   5.881   4.749   9.410 -0.9414 -0.8342 -2.1020
   97OSM   C16S 9654   5.680   4.809   9.362  0.9764 -0.1010  0.0204
   97OSM   H16S 9655   5.710   4.810   9.255  0.3916 -1.8485 -0.1959
   97OSM   H16T 9656   5.678   4.913   9.399  1.5237 -0.2768  0.5664
   97OSM   C17S 9657   5.535   4.749   9.366 -0.2654  0.2664 -0.5037
   97OSM   H17S 9658   5.483   4.793   9.454 -0.8358  1.4761 -1.4105
   97OSM   H17T 9659   5.535   4.638   9.367 -2.0431  0.2276  0.9426
   97OSM   C18S 9660   5.450   4.790   9.247 -0.1130 -0.2869  0.4434
   97OSM   H18S 9661   5.474   4.730   9.157  1.8993  2.8832 -1.3131
   97OSM   H18T 9662   5.464   4.897   9.224 -2.4724  0.4237  1.9279
   97OSM   H18U 9663   5.339   4.787   9.255 -0.2151  2.5219  1.2630
   97OSM    C1F 9664   5.473   4.983  10.645 -0.1888 -0.0420  0.3360
   97OSM     OF 9665   5.494   5.092  10.693 -0.3401 -0.5436  0.3770
   97OSM    C2F 9666   5.372   4.943  10.533  0.5421  0.6519  0.6878
   97OSM    H2F 9667   5.329   4.843  10.553  1.3300  0.0146 -0.7251
   97OSM    H2G 9668   5.412   4.946  10.429 -3.2271 -2.7007 -1.1024
   97OSM    C3F 9669   5.246   5.038  10.529  0.0859 -0.1985 -1.1471
   97OSM    H3F 9670   5.280   5.141  10.503  0.8297 -0.3230 -0.6847
   97OSM    H3G 9671   5.198   5.031  10.628  3.3636 -0.8207  0.5287
   97OSM    C4F 9672   5.140   5.006  10.424  0.7477  0.0682 -0.5215
   97OSM    H4F 9673   5.067   5.089  10.414  2.4260  1.3192 -3.3661
   97OSM    H4G 9674   5.079   4.920  10.459 -1.5172  0.9845 -2.0087
   97OSM    C5F 9675   5.205   4.974  10.291  0.0470 -0.1242 -0.1186
   97OSM    H5F 9676   5.296   5.036  10.274 -0.2470 -0.0491 -1.5436
   97OSM    H5G 9677   5.146   5.015  10.207 -0.9306  0.3363  0.7695
   97OSM    C6F 9678   5.226   4.823  10.246 -0.1112 -0.5697  0.2257
   97OSM    H6F 9679   5.127   4.781  10.219 -1.0424  0.5366  1.7678
   97OSM    H6G 9680   5.257   4.761  10.333 -0.3482 -1.8121 -0.5532
   97OSM    C7F 9681   5.336   4.810  10.137  0.3530 -0.3760 -1.3090
   97OSM    H7F 9682   5.376   4.707  10.151  3.6066  1.0594  1.6501
   97OSM    H7G 9683   5.424   4.871  10.168  0.2167 -0.5078 -0.6627
   97OSM    C8F 9684   5.282   4.825  10.001 -0.6066 -0.1856  0.1514
   97OSM    H8F 9685   5.232   4.923   9.989 -0.4264 -0.0916  0.1662
   97OSM    H8G 9686   5.200   4.750  10.000 -2.6837  1.9111  2.1012
   97OSM    C9F 9687   5.400   4.809   9.907  0.1828  0.1598 -0.1896
   97OSM    H9F 9688   5.498   4.773   9.943  0.2943  0.4797 -0.1730
   97OSM   C10F 9689   5.392   4.832   9.774 -0.0856 -0.1947  0.2052
   97OSM   H10F 9690   5.475   4.795   9.711 -0.4257 -1.6504  0.5625
   97OSM   C11F 9691   5.276   4.869   9.685  0.3342  0.1870 -0.1773
   97OSM   H11F 9692   5.178   4.878   9.737 -0.0203  2.7096 -1.1606
   97OSM   H11G 9693   5.259   4.795   9.604 -1.8719  1.6979 -1.1790
   97OSM   C12F 9694   5.297   4.997   9.602 -0.1640 -1.1918 -0.0576
   97OSM   H12F 9695   5.372   4.975   9.524 -0.7703 -1.1990 -0.6518
   97OSM   H12G 9696   5.338   5.074   9.670 -1.7681 -2.4757  2.5376
   97OSM   C13F 9697   5.168   5.043   9.523  0.3184  0.0301 -0.0462
   97OSM   H13F 9698   5.209   5.126   9.463  1.0319  0.4688  1.0121
   97OSM   H13G 9699   5.088   5.087   9.587  0.2019  1.3802 -1.0832
   97OSM   C14F 9700   5.109   4.932   9.432  0.3207 -0.2825  0.1240
   97OSM   H14F 9701   5.036   4.859   9.475 -1.0970  1.8063  1.4620
   97OSM   H14G 9702   5.191   4.869   9.391  0.4077  0.3356 -0.6823
   97OSM   C15F 9703   5.024   4.990   9.313 -0.0918  0.3582  0.0889
   97OSM   H15F 9704   4.938   5.049   9.350 -0.7488 -1.1138  1.0297
   97OSM   H15G 9705   4.982   4.905   9.255 -0.4057  0.3056  0.3887
   97OSM   C16F 9706   5.112   5.066   9.216  0.6173  0.2390  0.6804
   97OSM   H16F 9707   5.204   5.006   9.197 -0.3702 -0.9906 -0.3974
   97OSM   H16G 9708   5.156   5.162   9.248 -0.6835  0.8415  0.7043
   97OSM   C17F 9709   5.056   5.093   9.078  0.3137 -0.0903 -0.2286
   97OSM   H17F 9710   5.083   5.004   9.017  0.2252 -0.3234  0.0699
   97OSM   H17G 9711   5.107   5.182   9.036 -2.0781  1.9602  0.9344
   97OSM   C18F 9712   4.905   5.120   9.060  0.0163  0.5683  0.0292
   97OSM   H18F 9713   4.862   5.211   9.108  0.6079  0.2150  1.2872
   97OSM   H18G 9714   4.850   5.029   9.094  0.0290  0.5131 -0.1006
   97OSM   H18H 9715   4.883   5.129   8.952  0.1825 -0.8364 -0.1356
   98OSM      N 9716   4.424   5.599  11.064  0.1684  0.5197 -0.1159
   98OSM    C15 9717   4.547   5.561  11.139 -0.3872 -0.2146 -1.0934
   98OSM   H15A 9718   4.642   5.576  11.089  0.2854 -0.5584  0.0415
   98OSM   H15B 9719   4.531   5.457  11.161 -3.3290  0.5107  0.8446
   98OSM   H15C 9720   4.556   5.616  11.232  2.3356  0.4527 -1.6562
   98OSM    C14 9721   4.419   5.740  11.036  0.0560 -0.7915  1.0795
   98OSM   H14A 9722   4.324   5.742  10.983 -0.0769 -1.6868  1.2712
   98OSM   H14B 9723   4.497   5.773  10.970 -0.0347 -2.3133  0.1634
   98OSM   H14C 9724   4.424   5.800  11.126 -1.4357 -1.4879  1.6665
   98OSM    C13 9725   4.426   5.522  10.929 -0.6379 -0.9095  0.0980
   98OSM   H13A 9726   4.324   5.529  10.893 -0.4935  1.2232  0.0047
   98OSM   H13B 9727   4.455   5.419  10.941  2.2818 -0.6583 -3.2609
   98OSM   H13C 9728   4.502   5.563  10.864 -0.6833 -2.0697 -0.7246
   98OSM    C12 9729   4.311   5.549  11.151 -0.2640  0.2318 -0.5462
   98OSM   H12A 9730   4.324   5.579  11.255 -0.2849 -1.5424  0.0002
   98OSM   H12B 9731   4.297   5.442  11.146  1.7980 -0.0157 -3.0559
   98OSM    C11 9732   4.180   5.600  11.093 -0.1108 -0.2393 -0.4843
   98OSM   H11A 9733   4.175   5.706  11.126  2.7813  0.8112 -2.9797
   98OSM   H11B 9734   4.104   5.543  11.151  1.0822 -1.4040 -0.0119
   98OSM      P 9735   4.031   5.683  10.894 -0.1215 -0.1489 -0.0169
   98OSM    O13 9736   3.900   5.618  10.924 -0.2016 -0.1087 -0.4223
   98OSM    O14 9737   4.060   5.816  10.944  0.3348 -0.1329 -1.0036
   98OSM    O11 9738   4.056   5.683  10.740 -0.4872 -0.4044  0.3782
   98OSM    O12 9739   4.153   5.592  10.950  0.3559 -0.0243  0.1659
   98OSM    C1S 9740   4.186   5.645  10.684  0.5802  0.3342 -0.8088
   98OSM    H1S 9741   4.197   5.535  10.698  0.0594  0.1772 -1.5681
   98OSM    H1T 9742   4.273   5.692  10.736  0.4140 -0.4896  0.2484
   98OSM     NF 9743   4.289   5.605  10.465 -1.0337 -0.4536  0.1427
   98OSM    HNF 9744   4.371   5.659  10.446 -1.5857  0.4420  0.2264
   98OSM    C2S 9745   4.184   5.679  10.531  0.0628  0.5359 -0.0512
   98OSM    H2S 9746   4.094   5.628  10.491  1.0477 -0.8087 -0.6210
   98OSM    C3S 9747   4.172   5.828  10.501  0.5754 -0.4182  0.1642
   98OSM    H3S 9748   4.257   5.878  10.552  1.9906  0.1949 -2.6080
   98OSM     O3 9749   4.058   5.902  10.552 -0.0795  0.3872 -0.2215
   98OSM    HO3 9750   4.011   5.842  10.610  0.6235 -1.6334 -1.6265
   98OSM    C4S 9751   4.183   5.852  10.350 -0.0554 -0.4316 -0.2405
   98OSM    H4S 9752   4.134   5.774  10.288 -0.2734 -0.1945 -0.3675
   98OSM    C5S 9753   4.254   5.958  10.303  0.0848  0.3998  0.0758
   98OSM    H5S 9754   4.308   6.025  10.372  1.5120 -0.4066 -0.2038
   98OSM    C6S 9755   4.280   5.988  10.160 -0.1298 -0.2973  1.0265
   98OSM    H6S 9756   4.390   6.002  10.153  0.0327 -1.4036  1.1409
   98OSM    H6T 9757   4.239   6.089  10.139  1.0109  0.1523  0.8825
   98OSM    C7S 9758   4.221   5.888  10.058 -1.2530  0.6538  0.3605
   98OSM    H7S 9759   4.231   5.933   9.957  1.1644 -0.5032  0.0168
   98OSM    H7T 9760   4.111   5.873  10.063 -1.1888 -0.6427 -1.1945
   98OSM    C8S 9761   4.302   5.756  10.053 -0.7347 -0.6223 -0.3998
   98OSM    H8S 9762   4.289   5.697  10.146  1.2309 -2.6545 -1.3488
   98OSM    H8T 9763   4.409   5.783  10.049 -0.1792 -2.6413 -0.0298
   98OSM    C9S 9764   4.258   5.658   9.938  0.1922  0.1440 -0.1938
   98OSM    H9S 9765   4.293   5.700   9.841 -0.3999  0.3691 -0.3121
   98OSM    H9T 9766   4.148   5.664   9.939  0.2399  1.1441  0.1988
   98OSM   C10S 9767   4.318   5.520   9.955  0.3197 -0.0076 -0.2075
   98OSM   H10S 9768   4.283   5.477  10.051  1.4457 -0.2782  0.0886
   98OSM   H10T 9769   4.428   5.531   9.951  0.3125 -0.1058 -2.7825
   98OSM   C11S 9770   4.281   5.434   9.833 -0.1321 -0.1435  0.5793
   98OSM   H11S 9771   4.346   5.465   9.749 -0.0572  1.1909  1.1031
   98OSM   H11T 9772   4.179   5.458   9.796  0.0221  0.8980  0.8066
   98OSM   C12S 9773   4.301   5.284   9.867  0.0058 -0.7438  0.3738
   98OSM   H12S 9774   4.242   5.265   9.959 -1.1455 -2.6474 -0.7025
   98OSM   H12T 9775   4.406   5.254   9.886  0.0761 -1.9532 -1.5973
   98OSM   C13S 9776   4.263   5.191   9.752  0.1584  0.0531  0.2244
   98OSM   H13S 9777   4.158   5.215   9.726  0.6954  2.7686  0.3068
   98OSM   H13T 9778   4.275   5.086   9.788 -3.6656 -0.9926 -1.1210
   98OSM   C14S 9779   4.356   5.210   9.627  0.7628 -0.1524  0.0462
   98OSM   H14S 9780   4.463   5.203   9.656  0.4817  1.0094  1.4547
   98OSM   H14T 9781   4.346   5.315   9.592 -2.0968 -0.6222 -0.8333
   98OSM   C15S 9782   4.328   5.112   9.507 -0.0771 -0.9018  0.3895
   98OSM   H15S 9783   4.217   5.108   9.495  0.1396 -0.9462 -2.0812
   98OSM   H15T 9784   4.369   5.014   9.538  0.1826 -0.7722  0.4553
   98OSM   C16S 9785   4.379   5.170   9.374  0.1245  0.1248 -0.1552
   98OSM   H16S 9786   4.487   5.193   9.386  0.5254 -1.1079 -1.1680
   98OSM   H16T 9787   4.329   5.266   9.349  1.1616 -0.0195 -3.1664
   98OSM   C17S 9788   4.364   5.069   9.262 -0.7086  0.2527  0.6376
   98OSM   H17S 9789   4.408   4.972   9.293  1.1369  0.1592 -1.9149
   98OSM   H17T 9790   4.431   5.101   9.178  1.1430 -3.3337  0.5765
   98OSM   C18S 9791   4.225   5.051   9.223 -0.3268 -0.0141  0.4695
   98OSM   H18S 9792   4.156   5.005   9.296 -0.2242  1.4279  1.5289
   98OSM   H18T 9793   4.216   4.995   9.127  0.0147  1.0913 -0.2333
   98OSM   H18U 9794   4.177   5.151   9.211 -0.8806 -0.1146  1.7169
   98OSM    C1F 9795   4.285   5.473  10.442  0.8851  0.2363 -0.1078
   98OSM     OF 9796   4.180   5.414  10.476  1.0093  0.9632  0.2758
   98OSM    C2F 9797   4.399   5.403  10.374 -0.3609 -0.2685 -0.0342
   98OSM    H2F 9798   4.492   5.419  10.432  1.2369  0.5727 -2.6464
   98OSM    H2G 9799   4.400   5.448  10.273 -1.7966  1.8759  0.8387
   98OSM    C3F 9800   4.368   5.253  10.367 -0.3385 -0.5602 -0.2014
   98OSM    H3F 9801   4.286   5.245  10.292 -0.1482 -1.6387 -0.3087
   98OSM    H3G 9802   4.340   5.222  10.470  1.8802 -2.8505 -0.1988
   98OSM    C4F 9803   4.489   5.172  10.331  0.2259  0.1432 -0.2798
   98OSM    H4F 9804   4.561   5.182  10.415 -0.0784  0.4883 -0.0606
   98OSM    H4G 9805   4.538   5.227  10.248  2.1155 -0.1511  0.5914
   98OSM    C5F 9806   4.456   5.026  10.302  0.2702 -0.9259 -0.1498
   98OSM    H5F 9807   4.394   4.977  10.381 -2.7609 -1.6377 -2.7700
   98OSM    H5G 9808   4.548   4.967  10.279  0.5161 -0.6513  0.1248
   98OSM    C6F 9809   4.363   5.016  10.181  0.0844 -0.4560 -0.1819
   98OSM    H6F 9810   4.404   5.073  10.095  0.7595  0.0905  0.4936
   98OSM    H6G 9811   4.268   5.057  10.221  0.6588  1.1173 -0.3713
   98OSM    C7F 9812   4.330   4.866  10.149  0.1582  0.9021 -0.5813
   98OSM    H7F 9813   4.269   4.827  10.233  0.6231 -0.3812 -0.8136
   98OSM    H7G 9814   4.428   4.815  10.156  0.3928  1.2863 -1.0233
   98OSM    C8F 9815   4.263   4.854  10.011  0.4018 -0.3585 -0.1444
   98OSM    H8F 9816   4.339   4.884   9.935  1.0718 -2.1824 -0.2369
   98OSM    H8G 9817   4.170   4.914  10.002 -0.6883 -1.8602  0.6477
   98OSM    C9F 9818   4.221   4.711   9.979 -0.8644 -0.1653 -0.1669
   98OSM    H9F 9819   4.184   4.664  10.071  0.9158 -1.2848  0.0270
   98OSM   C10F 9820   4.220   4.646   9.863 -0.4383  0.7758  0.7644
   98OSM   H10F 9821   4.177   4.545   9.861 -1.1078  1.0651  0.4798
   98OSM   C11F 9822   4.253   4.712   9.731  0.5202 -0.3865  0.9604
   98OSM   H11F 9823   4.332   4.663   9.671 -0.0603  0.7858 -0.8649
   98OSM   H11G 9824   4.276   4.820   9.738  0.7763 -0.5238  2.5557
   98OSM   C12F 9825   4.143   4.695   9.620 -0.3339 -0.6311 -0.3431
   98OSM   H12F 9826   4.069   4.776   9.637 -0.8810 -0.7872 -1.8086
   98OSM   H12G 9827   4.103   4.592   9.631 -0.7899 -0.5580 -1.2299
   98OSM   C13F 9828   4.201   4.728   9.488 -0.8225 -0.3624  0.2906
   98OSM   H13F 9829   4.273   4.648   9.459 -0.2056  0.3146 -0.0720
   98OSM   H13G 9830   4.256   4.824   9.493 -0.4265 -0.5639 -0.0983
   98OSM   C14F 9831   4.089   4.744   9.382 -0.1679  0.1223  0.2183
   98OSM   H14F 9832   4.129   4.792   9.290  0.7921 -0.9925  0.0325
   98OSM   H14G 9833   4.013   4.820   9.410  0.7158  1.3530 -0.6327
   98OSM   C15F 9834   4.025   4.611   9.344  0.1601  0.7562  0.5188
   98OSM   H15F 9835   3.960   4.576   9.426 -2.1006  1.2631 -0.9574
   98OSM   H15G 9836   4.097   4.534   9.309  0.8297  1.5291  0.1516
   98OSM   C16F 9837   3.912   4.622   9.240  0.3980  0.0260 -0.0570
   98OSM   H16F 9838   3.945   4.657   9.140 -1.1959 -0.2824 -0.7314
   98OSM   H16G 9839   3.846   4.702   9.279  0.8235  0.2349  0.2405
   98OSM   C17F 9840   3.850   4.488   9.219  0.6248  0.2105 -0.0827
   98OSM   H17F 9841   3.811   4.446   9.315 -1.7360  1.7235 -0.2745
   98OSM   H17G 9842   3.933   4.421   9.188  1.1641  0.5036  0.7091
   98OSM   C18F 9843   3.740   4.485   9.112  0.4158 -0.6498  0.0202
   98OSM   H18F 9844   3.716   4.379   9.090 -0.3382 -0.5732  0.4574
   98OSM   H18G 9845   3.763   4.547   9.023 -1.7153  0.6958  0.3228
   98OSM   H18H 9846   3.649   4.537   9.150  0.4877 -1.2271  0.9992
   99OSM      N 9847   0.378   6.446  11.072  0.6066  0.4788  0.3288
   99OSM    C15 9848   0.253   6.522  11.047 -1.1074 -0.5993  0.3392
   99OSM   H15A 9849   0.267   6.580  10.956  3.9130 -1.0759  0.5614
   99OSM   H15B 9850   0.235   6.573  11.140  0.8961  0.0493  0.4164
   99OSM   H15C 9851   0.172   6.453  11.030  0.2730 -1.8327 -1.7501
   99OSM    C14 9852   0.416   6.370  10.952  0.2362 -0.9755  0.6801
   99OSM   H14A 9853   0.343   6.294  10.932 -0.5935  0.1550 -0.7452
   99OSM   H14B 9854   0.514   6.327  10.964  1.0779  0.2597 -1.2707
   99OSM   H14C 9855   0.428   6.437  10.868 -1.3202  1.0846  1.9847
   99OSM    C13 9856   0.484   6.538  11.110 -0.2665  0.4566 -0.6044
   99OSM   H13A 9857   0.579   6.491  11.130  0.0352  0.1187 -2.5904
   99OSM   H13B 9858   0.459   6.593  11.200 -0.3244  3.2766 -2.2404
   99OSM   H13C 9859   0.504   6.613  11.036  1.8611  1.4945  0.9150
   99OSM    C12 9860   0.361   6.348  11.189  0.1549  0.9450 -1.0544
   99OSM   H12A 9861   0.303   6.262  11.160  1.1550 -0.7231  1.5383
   99OSM   H12B 9862   0.301   6.393  11.266  0.6639 -0.1699  0.0373
   99OSM    C11 9863   0.493   6.280  11.256  0.3816  0.0880  0.2039
   99OSM   H11A 9864   0.462   6.209  11.337  0.6641 -0.8663 -0.5106
   99OSM   H11B 9865   0.562   6.359  11.290 -0.4291  1.4286 -1.1503
   99OSM      P 9866   0.644   6.071  11.199  0.0225  0.2182  0.3978
   99OSM    O13 9867   0.776   6.102  11.264  0.2580 -0.3880  0.2636
   99OSM    O14 9868   0.553   5.977  11.266  0.4081  1.3586  0.2250
   99OSM    O11 9869   0.673   6.016  11.063  0.2791  0.1775 -0.2358
   99OSM    O12 9870   0.567   6.212  11.151  0.2012  0.5021  0.4010
   99OSM    C1S 9871   0.559   5.999  10.974  0.6280 -0.1025  0.7642
   99OSM    H1S 9872   0.512   6.097  10.950  1.4325  0.5442  1.7732
   99OSM    H1T 9873   0.479   5.943  11.027 -0.5434 -1.0047 -1.7753
   99OSM     NF 9874   0.479   5.952  10.739  0.0385 -0.0680 -0.6280
   99OSM    HNF 9875   0.424   5.870  10.725 -0.5559 -0.1520  1.7294
   99OSM    C2S 9876   0.594   5.934  10.836  0.6560 -0.8794  0.0724
   99OSM    H2S 9877   0.684   5.990  10.802  0.2317 -0.1459  0.1223
   99OSM    C3S 9878   0.631   5.778  10.856 -0.9304  0.2425 -0.2783
   99OSM    H3S 9879   0.540   5.735  10.904 -0.7935  0.1685 -0.0840
   99OSM     O3 9880   0.736   5.751  10.950  0.3336  0.7912 -0.6679
   99OSM    HO3 9881   0.739   5.837  10.993 -2.3708  0.4725  0.3554
   99OSM    C4S 9882   0.677   5.716  10.727 -0.5929  0.5042  0.7935
   99OSM    H4S 9883   0.617   5.637  10.677  2.9304 -0.1153 -3.0141
   99OSM    C5S 9884   0.780   5.739  10.649  0.1566  0.4697 -0.3404
   99OSM    H5S 9885   0.833   5.834  10.667 -0.1934  0.3125  1.6737
   99OSM    C6S 9886   0.812   5.670  10.516 -0.1049 -0.6532 -0.4970
   99OSM    H6S 9887   0.865   5.578  10.546  1.5240  0.8802  1.6745
   99OSM    H6T 9888   0.879   5.735  10.456 -0.3983 -0.0378 -0.1723
   99OSM    C7S 9889   0.693   5.644  10.424  0.6572  0.4553  0.9102
   99OSM    H7S 9890   0.631   5.569  10.478 -0.5192 -0.3909 -1.4825
   99OSM    H7T 9891   0.728   5.590  10.333  2.0062  2.1109  0.3891
   99OSM    C8S 9892   0.607   5.765  10.380  0.0301  0.0718 -0.1116
   99OSM    H8S 9893   0.677   5.843  10.344  1.8932 -2.2574 -1.8129
   99OSM    H8T 9894   0.554   5.785  10.476  0.1894 -2.0167  0.4571
   99OSM    C9S 9895   0.493   5.736  10.285 -0.2944 -0.3345 -0.4930
   99OSM    H9S 9896   0.435   5.830  10.276 -0.4828 -0.4218 -0.2075
   99OSM    H9T 9897   0.429   5.655  10.325 -1.0279  0.0604 -0.8478
   99OSM   C10S 9898   0.528   5.700  10.135  0.1836  0.0321 -0.5646
   99OSM   H10S 9899   0.446   5.651  10.077  1.1411 -1.2959 -0.8424
   99OSM   H10T 9900   0.615   5.632  10.140  1.4480  1.1269 -4.3421
   99OSM   C11S 9901   0.595   5.816  10.065  1.2139  0.5360 -0.1065
   99OSM   H11S 9902   0.675   5.839  10.138  0.3424 -0.6056  1.2609
   99OSM   H11T 9903   0.521   5.899  10.072 -1.6072 -1.8916  1.5840
   99OSM   C12S 9904   0.636   5.776   9.925 -0.3511  0.1898  0.5594
   99OSM   H12S 9905   0.747   5.777   9.922 -0.2685  1.7008 -3.7784
   99OSM   H12T 9906   0.598   5.678   9.888  3.2721 -1.2245  0.1459
   99OSM   C13S 9907   0.610   5.886   9.816 -0.2367 -0.1433  0.1915
   99OSM   H13S 9908   0.651   5.985   9.844 -2.8985  0.9334  0.6115
   99OSM   H13T 9909   0.502   5.914   9.817 -0.3718 -0.5998  1.5567
   99OSM   C14S 9910   0.669   5.850   9.678 -0.5648 -0.4886 -0.7618
   99OSM   H14S 9911   0.675   5.739   9.672  1.3253 -0.3675 -1.9864
   99OSM   H14T 9912   0.776   5.878   9.671 -0.7547  0.1301 -1.2763
   99OSM   C15S 9913   0.586   5.925   9.572  0.5857  0.3698  0.3061
   99OSM   H15S 9914   0.535   6.012   9.618 -2.3054 -1.6503  1.3086
   99OSM   H15T 9915   0.502   5.855   9.549  0.0003  1.0655  0.3078
   99OSM   C16S 9916   0.639   5.957   9.436 -0.2226 -0.0846  0.0264
   99OSM   H16S 9917   0.549   5.959   9.371  0.1589  0.5633 -0.5076
   99OSM   H16T 9918   0.701   5.873   9.397 -3.2254 -1.2494 -2.6385
   99OSM   C17S 9919   0.709   6.085   9.426 -0.3276  0.0294 -0.2910
   99OSM   H17S 9920   0.651   6.170   9.467  1.5334  1.8847 -1.3485
   99OSM   H17T 9921   0.737   6.097   9.319 -2.5739  3.3557 -0.6497
   99OSM   C18S 9922   0.833   6.095   9.512 -0.0487  0.2881  0.3029
   99OSM   H18S 9923   0.894   6.002   9.511  0.0672  0.3604  0.4961
   99OSM   H18T 9924   0.807   6.108   9.620 -1.1853 -2.5335  0.4495
   99OSM   H18U 9925   0.897   6.174   9.468  1.8438 -0.6410  1.2589
   99OSM    C1F 9926   0.452   6.073  10.685  0.0066 -0.4887 -0.2666
   99OSM     OF 9927   0.527   6.166  10.710 -0.5809 -0.1270  0.0765
   99OSM    C2F 9928   0.335   6.073  10.595  0.5237 -0.0833  0.0444
   99OSM    H2F 9929   0.245   6.022  10.634 -0.0615  0.5072 -0.5075
   99OSM    H2G 9930   0.363   6.007  10.509 -1.9527  2.3412 -2.8546
   99OSM    C3F 9931   0.300   6.222  10.553  0.2175 -0.1806  0.0344
   99OSM    H3F 9932   0.274   6.274  10.648  1.5674  0.0281  0.3139
   99OSM    H3G 9933   0.392   6.267  10.511  0.5419 -1.4707 -0.7051
   99OSM    C4F 9934   0.185   6.230  10.452  0.1698 -0.5055  0.2359
   99OSM    H4F 9935   0.170   6.337  10.424 -1.7770 -1.0447 -0.9287
   99OSM    H4G 9936   0.093   6.200  10.506 -1.0099 -0.4516 -1.6367
   99OSM    C5F 9937   0.208   6.145  10.328 -0.3749  0.0197  0.2548
   99OSM    H5F 9938   0.171   6.041  10.341 -1.8595  0.8184  3.4930
   99OSM    H5G 9939   0.318   6.137  10.313 -0.0571  1.6500  1.3518
   99OSM    C6F 9940   0.162   6.218  10.199 -0.1616 -0.4053  0.4726
   99OSM    H6F 9941   0.188   6.325  10.212 -1.1196  0.0804 -1.2740
   99OSM    H6G 9942   0.055   6.192  10.185  0.2986 -1.6327 -1.1077
   99OSM    C7F 9943   0.224   6.172  10.066 -0.1783 -0.9402 -0.6538
   99OSM    H7F 9944   0.212   6.064  10.047  0.0774 -1.2546  0.8429
   99OSM    H7G 9945   0.333   6.197  10.062 -0.2150 -0.9076 -2.2034
   99OSM    C8F 9946   0.167   6.247   9.947  0.3390 -0.2663  1.1867
   99OSM    H8F 9947   0.187   6.356   9.954 -1.7282  0.1428  1.4680
   99OSM    H8G 9948   0.057   6.233   9.940  0.2206  1.2357 -1.2831
   99OSM    C9F 9949   0.235   6.216   9.821 -0.5661  0.0788 -0.0819
   99OSM    H9F 9950   0.321   6.280   9.795 -1.0188  0.9184  0.4400
   99OSM   C10F 9951   0.211   6.118   9.729  0.1570  0.3180  0.4309
   99OSM   H10F 9952   0.270   6.112   9.636 -0.5233 -0.0821  0.0168
   99OSM   C11F 9953   0.105   6.011   9.730 -0.0694 -0.4584 -0.3476
   99OSM   H11F 9954   0.042   6.019   9.821  0.4819 -1.3573  0.1238
   99OSM   H11G 9955   0.161   5.916   9.744  0.5499 -0.2162 -1.0910
   99OSM   C12F 9956   0.013   6.006   9.606 -0.3994 -0.2801  0.5632
   99OSM   H12F 9957  -0.051   6.097   9.609  0.5525  0.3786  1.5226
   99OSM   H12G 9958  -0.056   5.919   9.599  0.2734 -0.7542 -0.3587
   99OSM   C13F 9959   0.083   6.011   9.471 -0.5930  0.1973 -0.0539
   99OSM   H13F 9960   0.151   5.924   9.459  0.9025  1.3703 -0.3232
   99OSM   H13G 9961   0.142   6.105   9.474 -0.6581  0.2265  0.3635
   99OSM   C14F 9962  -0.013   6.018   9.347  0.1533  0.1448  0.7333
   99OSM   H14F 9963   0.056   6.023   9.261  0.8180 -1.7170  1.1102
   99OSM   H14G 9964  -0.079   6.107   9.361 -2.0135 -1.5050  1.6489
   99OSM   C15F 9965  -0.117   5.909   9.338 -0.7109 -0.3777 -0.5967
   99OSM   H15F 9966  -0.169   5.892   9.435 -0.5703  1.8736 -0.0620
   99OSM   H15G 9967  -0.054   5.821   9.317  1.1087  0.8981 -0.6741
   99OSM   C16F 9968  -0.231   5.940   9.245 -0.5790 -0.0191  0.3796
   99OSM   H16F 9969  -0.271   6.038   9.276 -2.3756 -0.5134 -0.2500
   99OSM   H16G 9970  -0.308   5.864   9.269 -0.0004 -0.7940 -0.1361
   99OSM   C17F 9971  -0.192   5.936   9.095  0.5672 -0.4143 -0.5214
   99OSM   H17F 9972  -0.156   5.831   9.094  2.0949  0.0865 -0.6266
   99OSM   H17G 9973  -0.114   6.008   9.066 -1.1346  1.3437 -0.9607
   99OSM   C18F 9974  -0.317   5.968   9.003 -0.7148 -0.0431 -0.0273
   99OSM   H18F 9975  -0.389   5.886   9.023  0.1225 -0.9704 -0.7130
   99OSM   H18G 9976  -0.294   5.983   8.896 -1.3642  2.1458  0.0815
   99OSM   H18H 9977  -0.358   6.061   9.048  0.8605  1.5797 -1.7557
  100OSM      N 9978   1.877   0.184  11.115  0.5021  0.3406 -0.0865
  100OSM    C15 9979   1.893   0.036  11.124 -0.2642  0.7509  0.1957
  100OSM   H15A 9980   1.830  -0.020  11.057 -0.4292 -0.2209  1.1319
  100OSM   H15B 9981   1.863  -0.001  11.221 -0.5403  0.5381  0.0294
  100OSM   H15C 9982   1.994   0.008  11.096 -0.2016  2.1895 -1.1490
  100OSM    C14 9983   1.734   0.210  11.137  1.3128 -0.5792 -0.1225
  100OSM   H14A 9984   1.701   0.193  11.238 -1.3557 -1.3172 -1.0520
  100OSM   H14B 9985   1.663   0.159  11.074 -3.1813  0.7451  3.4216
  100OSM   H14C 9986   1.707   0.315  11.132  0.6562 -0.6710  1.1435
  100OSM    C13 9987   1.957   0.244  11.224  0.0366 -0.8372  0.6826
  100OSM   H13A 9988   1.952   0.352  11.223 -1.6408 -0.8885 -0.3613
  100OSM   H13B 9989   2.058   0.205  11.227 -0.6523 -2.9322 -0.8147
  100OSM   H13C 9990   1.916   0.220  11.321 -0.1030 -2.2580  0.2982
  100OSM    C12 9991   1.912   0.246  10.982 -0.2918 -0.2418  0.5009
  100OSM   H12A 9992   1.837   0.206  10.916 -2.5271  2.6291  1.0862
  100OSM   H12B 9993   2.009   0.218  10.943  0.1631  2.0686 -0.2219
  100OSM    C11 9994   1.920   0.404  10.980  0.3052 -0.0557 -0.1485
  100OSM   H11A 9995   1.844   0.436  11.054  0.2427 -0.0153 -0.2300
  100OSM   H11B 9996   1.889   0.446  10.882  1.6681 -1.5783 -1.3040
  100OSM      P 9997   2.176   0.406  10.923  0.0559 -0.1436 -0.0499
  100OSM    O13 9998   2.277   0.514  10.928 -0.2598  0.7890  0.4866
  100OSM    O14 9999   2.225   0.270  10.958  0.2083 -0.0994  0.1084
  100OSM    O1110000   2.113   0.405  10.780  0.3712 -0.8470  0.3837
  100OSM    O1210001   2.057   0.444  11.015  0.8662  0.0906 -0.1711
  100OSM    C1S10002   2.195   0.381  10.661  0.2521  0.3215  0.1404
  100OSM    H1S10003   2.294   0.333  10.678  0.3358  1.4330  3.5637
  100OSM    H1T10004   2.219   0.478  10.613  1.3855 -1.0244 -2.2243
  100OSM     NF10005   2.192   0.224  10.465 -0.3081  0.3780 -0.6185
  100OSM    HNF10006   2.199   0.256  10.371 -0.3136 -1.1148 -1.1563
  100OSM    C2S10007   2.111   0.296  10.561  0.3580  0.1923 -0.0967
  100OSM    H2S10008   2.059   0.218  10.620 -2.7296  3.5694  2.0594
  100OSM    C3S10009   2.007   0.379  10.490  0.4342  0.4521 -0.5998
  100OSM    H3S10010   2.072   0.456  10.442  0.9436 -0.2160 -0.9940
  100OSM     O310011   1.910   0.441  10.572  0.2413  0.6081  0.1771
  100OSM    HO310012   1.968   0.453  10.647  2.0382  2.3491 -1.3854
  100OSM    C4S10013   1.926   0.308  10.376  0.7885  0.0501 -0.2649
  100OSM    H4S10014   1.880   0.211  10.403  1.8602 -0.4918 -0.3617
  100OSM    C5S10015   1.902   0.364  10.249 -0.3369  0.6674 -0.8228
  100OSM    H5S10016   1.963   0.448  10.214  0.4781 -0.4241 -2.1239
  100OSM    C6S10017   1.815   0.294  10.145  0.3546 -0.0754 -0.4093
  100OSM    H6S10018   1.722   0.353  10.128  0.0375 -1.1500 -2.7275
  100OSM    H6T10019   1.778   0.200  10.191  0.7903  1.1418  2.6690
  100OSM    C7S10020   1.885   0.265  10.014  0.4532  0.5014  0.1563
  100OSM    H7S10021   1.977   0.207  10.037 -0.0875  0.2518  1.8739
  100OSM    H7T10022   1.930   0.353   9.964  0.2675  0.8830  0.6604
  100OSM    C8S10023   1.784   0.204   9.923  0.4629  0.1579  0.4871
  100OSM    H8S10024   1.690   0.263   9.913 -0.3942 -1.3909 -1.1038
  100OSM    H8T10025   1.752   0.106   9.965 -2.0431 -0.1331 -1.8136
  100OSM    C9S10026   1.843   0.175   9.783 -0.4171 -0.3735 -0.6900
  100OSM    H9S10027   1.872   0.069   9.775 -1.5602 -0.9101  1.5012
  100OSM    H9T10028   1.929   0.244   9.770  0.6691 -1.1827  1.7197
  100OSM   C10S10029   1.752   0.216   9.665  0.4336  0.5118  0.0041
  100OSM   H10S10030   1.722   0.322   9.678  0.4459  0.3707  1.3303
  100OSM   H10T10031   1.660   0.153   9.658  0.2262  0.8871 -0.7449
  100OSM   C11S10032   1.838   0.205   9.535 -0.4440 -0.0234  0.1196
  100OSM   H11S10033   1.870   0.098   9.533 -1.1433 -0.2776  1.2728
  100OSM   H11T10034   1.927   0.270   9.529  1.2881 -2.3664 -1.2032
  100OSM   C12S10035   1.738   0.225   9.408  0.4351  0.3735 -0.3126
  100OSM   H12S10036   1.665   0.305   9.427  0.7404  0.7069 -0.5347
  100OSM   H12T10037   1.687   0.127   9.392  1.2524  0.3045 -2.8431
  100OSM   C13S10038   1.808   0.273   9.288 -0.2574 -0.0492  0.4724
  100OSM   H13S10039   1.909   0.231   9.268  0.6485  1.5727  1.4512
  100OSM   H13T10040   1.837   0.380   9.297 -1.4121  0.5600 -1.9814
  100OSM   C14S10041   1.715   0.265   9.160  0.2728 -0.1582 -0.3402
  100OSM   H14S10042   1.765   0.305   9.069  1.5611  1.1162  0.8729
  100OSM   H14T10043   1.621   0.321   9.181 -0.5543 -1.3999 -0.6746
  100OSM   C15S10044   1.680   0.123   9.120 -0.1945  0.6888  0.1883
  100OSM   H15S10045   1.639   0.059   9.202 -2.0496  0.9031 -0.5224
  100OSM   H15T10046   1.770   0.081   9.072 -1.5535 -0.1142 -1.7908
  100OSM   C16S10047   1.579   0.126   9.011 -0.3837  0.1028 -0.3751
  100OSM   H16S10048   1.575   0.226   8.962  1.1118  0.5419  0.3282
  100OSM   H16T10049   1.478   0.122   9.056 -0.5600  1.6078 -0.5687
  100OSM   C17S10050   1.594   0.018   8.904 -0.5615 -0.3260 -0.6138
  100OSM   H17S10051   1.566  -0.071   8.963  0.4776 -0.4630 -0.2987
  100OSM   H17T10052   1.699   0.010   8.869  0.0881  0.7010  0.9872
  100OSM   C18S10053   1.495   0.027   8.785 -0.1985 -0.2822 -0.6803
  100OSM   H18S10054   1.524   0.115   8.723 -0.8387  1.3405  1.2295
  100OSM   H18T10055   1.393   0.037   8.827 -0.9339 -2.8417 -1.6657
  100OSM   H18U10056   1.493  -0.067   8.725  0.1398  0.1367 -1.3659
  100OSM    C1F10057   2.275   0.125  10.499  0.6892 -0.1221 -0.0091
  100OSM     OF10058   2.277   0.080  10.612 -0.0188 -0.4535 -0.4472
  100OSM    C2F10059   2.375   0.092  10.395 -0.3179 -0.5783 -0.5700
  100OSM    H2F10060   2.441   0.181  10.402  0.1144 -0.9546  0.1818
  100OSM    H2G10061   2.332   0.082  10.293 -2.1347 -0.5952  0.1465
  100OSM    C3F10062   2.457  -0.036  10.420 -0.3410  0.0171  0.6950
  100OSM    H3F10063   2.395  -0.127  10.429  3.0353 -2.3243  2.9024
  100OSM    H3G10064   2.509  -0.018  10.517  3.9711 -0.8728 -1.2194
  100OSM    C4F10065   2.556  -0.073  10.305 -0.2444  0.3693  0.6701
  100OSM    H4F10066   2.489  -0.091  10.217 -0.7665  1.3863  0.8417
  100OSM    H4G10067   2.608  -0.169  10.327 -0.1784  0.1086 -0.5038
  100OSM    C5F10068   2.668   0.038  10.285  0.6604  0.5264  0.3266
  100OSM    H5F10069   2.722   0.051  10.382  0.1958 -2.1854  1.0394
  100OSM    H5G10070   2.610   0.131  10.269 -1.3683 -0.7374 -0.0056
  100OSM    C6F10071   2.753  -0.003  10.171  0.3447 -0.2447 -0.5883
  100OSM    H6F10072   2.698   0.006  10.075  0.5809 -0.0746 -0.7087
  100OSM    H6G10073   2.769  -0.113  10.171 -1.1117 -0.4704 -0.7610
  100OSM    C7F10074   2.884   0.079  10.165  0.5173 -0.4960 -0.1567
  100OSM    H7F10075   2.952   0.080  10.253  1.0794  4.2023 -0.4340
  100OSM    H7G10076   2.848   0.184  10.166 -2.4451 -1.2930  3.5218
  100OSM    C8F10077   2.967   0.069  10.038  0.1310 -0.1684  0.4498
  100OSM    H8F10078   3.055   0.135  10.057  2.0525 -2.4934  0.0336
  100OSM    H8G10079   2.906   0.107   9.954  0.4040 -0.5376  0.0808
  100OSM    C9F10080   3.024  -0.072  10.021 -0.0090 -0.2291  0.1642
  100OSM    H9F10081   3.096  -0.105  10.097  1.3056  1.8415 -0.1211
  100OSM   C10F10082   2.968  -0.154   9.929  1.1590  0.5236  0.0211
  100OSM   H10F10083   2.993  -0.261   9.934  1.8406  0.5639 -1.8401
  100OSM   C11F10084   2.844  -0.129   9.830 -0.7614 -0.2351 -0.8003
  100OSM   H11F10085   2.764  -0.076   9.885  0.5256  0.5503  0.4029
  100OSM   H11G10086   2.798  -0.227   9.810  1.0953 -0.9976 -1.6001
  100OSM   C12F10087   2.868  -0.070   9.689  0.2319  0.6701 -0.9216
  100OSM   H12F10088   2.876   0.040   9.703 -1.3469  0.6781  0.1811
  100OSM   H12G10089   2.776  -0.073   9.627 -0.2506 -0.1830 -0.1815
  100OSM   C13F10090   2.990  -0.133   9.611  0.4649 -0.1294 -0.6747
  100OSM   H13F10091   2.984  -0.244   9.609 -3.3187 -0.1019  0.4184
  100OSM   H13G10092   3.088  -0.096   9.648  0.4359  0.6977 -1.4096
  100OSM   C14F10093   2.996  -0.092   9.467 -0.0257  0.1600 -0.2070
  100OSM   H14F10094   2.993   0.019   9.462 -3.0052  0.1221 -1.6309
  100OSM   H14G10095   2.900  -0.131   9.426  1.4481 -2.4204 -1.4248
  100OSM   C15F10096   3.119  -0.160   9.395  0.4322  0.8230  0.0305
  100OSM   H15F10097   3.117  -0.270   9.410  1.4984  0.6590 -0.8593
  100OSM   H15G10098   3.216  -0.114   9.422  1.6036 -0.6355 -1.4828
  100OSM   C16F10099   3.101  -0.135   9.244 -0.2092  0.1334  0.6902
  100OSM   H16F10100   3.085  -0.026   9.228 -0.3258 -0.0382 -0.4495
  100OSM   H16G10101   3.007  -0.182   9.207  1.2419 -1.2139 -1.4482
  100OSM   C17F10102   3.211  -0.182   9.147 -0.2726  0.7452 -0.5638
  100OSM   H17F10103   3.186  -0.160   9.041 -0.3106 -2.4290 -1.3242
  100OSM   H17G10104   3.226  -0.292   9.149 -0.4673  0.7162 -0.6303
  100OSM   C18F10105   3.344  -0.110   9.175 -0.0732  0.1667  1.1947
  100OSM   H18F10106   3.382  -0.140   9.275 -1.9788  3.0189  2.9349
  100OSM   H18G10107   3.325  -0.000   9.171 -0.2275  0.0950 -1.8614
  100OSM   H18H10108   3.425  -0.138   9.105  1.3497 -0.7476  3.1083
  101OSM      N10109   5.540   0.521  11.251 -0.2881 -0.1899 -0.2455
  101OSM    C1510110   5.464   0.525  11.381  0.7663  0.4226 -0.1515
  101OSM   H15A10111   5.369   0.576  11.372  0.2278 -0.6954 -1.0728
  101OSM   H15B10112   5.530   0.577  11.449 -0.0134  0.9273  0.2451
  101OSM   H15C10113   5.452   0.427  11.424 -0.1355  0.1277 -1.0524
  101OSM    C1410114   5.604   0.654  11.221  0.2634  0.4678  0.4165
  101OSM   H14A10115   5.684   0.685  11.287  0.2000 -2.2928  1.8964
  101OSM   H14B10116   5.532   0.735  11.219 -1.1898 -0.7972 -0.4918
  101OSM   H14C10117   5.652   0.645  11.124  0.3489 -1.1240  0.5865
  101OSM    C1310118   5.658   0.427  11.265 -1.0983  0.0471  0.1473
  101OSM   H13A10119   5.615   0.329  11.277  1.5925 -1.5947 -2.2944
  101OSM   H13B10120   5.727   0.458  11.342  0.0635 -0.6072 -0.5970
  101OSM   H13C10121   5.714   0.420  11.173  1.2222 -2.4547  1.5898
  101OSM    C1210122   5.447   0.471  11.137  0.5623  0.1117  0.1248
  101OSM   H12A10123   5.436   0.365  11.154  0.7748  0.3821  2.1728
  101OSM   H12B10124   5.510   0.485  11.050  0.8753  1.8120  0.5845
  101OSM    C1110125   5.318   0.548  11.114 -0.5200  0.0769  0.4295
  101OSM   H11A10126   5.277   0.533  11.012 -1.2932 -0.8875  0.8653
  101OSM   H11B10127   5.342   0.656  11.125  1.9480 -0.2528 -0.9428
  101OSM      P10128   5.139   0.377  11.194  0.3801 -0.6324  0.1871
  101OSM    O1310129   5.238   0.273  11.166 -0.4710 -0.1173 -0.1568
  101OSM    O1410130   5.037   0.357  11.304  0.3269 -0.4676  0.9569
  101OSM    O1110131   5.059   0.425  11.067  0.5417  0.2374 -0.5921
  101OSM    O1210132   5.224   0.506  11.219 -0.1499 -0.3542  0.0644
  101OSM    C1S10133   4.979   0.317  10.997  0.6691 -0.3957  0.9423
  101OSM    H1S10134   4.891   0.310  11.065 -0.0054  0.9481  0.2327
  101OSM    H1T10135   5.029   0.218  10.999 -0.5136 -1.0317  0.4104
  101OSM     NF10136   4.806   0.253  10.819 -0.6672  0.0365  0.2976
  101OSM    HNF10137   4.843   0.187  10.754 -0.9129 -0.3498  0.5489
  101OSM    C2S10138   4.918   0.348  10.857 -0.0893  0.9362 -0.1488
  101OSM    H2S10139   4.872   0.449  10.868  0.7776  1.3350 -0.0796
  101OSM    C3S10140   5.020   0.362  10.754 -0.2946  0.1817  0.5996
  101OSM    H3S10141   5.061   0.263  10.727 -0.9170 -0.0833  0.6183
  101OSM     O310142   5.126   0.455  10.786 -0.1694 -0.0743  0.5091
  101OSM    HO310143   5.124   0.475  10.880 -2.0369  0.8346  0.3192
  101OSM    C4S10144   4.960   0.405  10.625  0.1081  0.0759 -0.3887
  101OSM    H4S10145   4.977   0.340  10.538  1.4558  0.3732 -0.3767
  101OSM    C5S10146   4.894   0.525  10.610 -0.0267 -0.3340 -0.0833
  101OSM    H5S10147   4.895   0.597  10.694 -0.5742  0.9994 -1.1941
  101OSM    C6S10148   4.833   0.588  10.491  0.2960  0.0351 -0.0260
  101OSM    H6S10149   4.832   0.697  10.509 -1.5959  0.0697 -0.1004
  101OSM    H6T10150   4.725   0.562  10.477 -0.0593  1.8668 -0.8728
  101OSM    C7S10151   4.900   0.546  10.357  0.2853 -0.1621  0.3555
  101OSM    H7S10152   4.901   0.435  10.355  3.7606 -0.2871  1.4702
  101OSM    H7T10153   5.004   0.586  10.351  0.0420  0.5574  0.7985
  101OSM    C8S10154   4.817   0.598  10.239  0.0362  0.5598 -0.0531
  101OSM    H8S10155   4.820   0.709  10.241  1.6921  0.5351 -0.2020
  101OSM    H8T10156   4.712   0.563  10.254  0.6716 -1.2224  0.4648
  101OSM    C9S10157   4.859   0.555  10.095 -0.7794  0.5772  0.0216
  101OSM    H9S10158   4.866   0.444  10.088  1.4677  0.7049 -0.6055
  101OSM    H9T10159   4.963   0.592  10.083  0.0491 -0.9952  1.8751
  101OSM   C10S10160   4.765   0.608   9.987 -0.4621  0.6793  0.6773
  101OSM   H10S10161   4.807   0.708   9.964 -0.1555  0.5564  0.6981
  101OSM   H10T10162   4.661   0.618  10.027 -1.1896  0.5892 -1.1211
  101OSM   C11S10163   4.764   0.522   9.860 -0.9805  0.6139 -0.3845
  101OSM   H11S10164   4.742   0.413   9.866  1.8289 -0.0812 -1.2468
  101OSM   H11T10165   4.867   0.521   9.818 -1.1571  2.4523 -0.9293
  101OSM   C12S10166   4.673   0.583   9.755 -0.2365  0.4980 -0.1338
  101OSM   H12S10167   4.691   0.692   9.763 -1.1327  0.6107  0.5100
  101OSM   H12T10168   4.563   0.566   9.763 -0.1077 -1.2308 -1.3957
  101OSM   C13S10169   4.720   0.545   9.608  0.2584  0.2002 -0.3677
  101OSM   H13S10170   4.827   0.514   9.613  0.4148  0.6575 -0.7810
  101OSM   H13T10171   4.716   0.629   9.535 -1.7163  0.4599 -0.0165
  101OSM   C14S10172   4.644   0.419   9.561 -0.7168 -0.0597  0.7218
  101OSM   H14S10173   4.536   0.441   9.565 -0.5957  1.0242 -0.8314
  101OSM   H14T10174   4.674   0.335   9.627  0.5853  0.2019  0.4988
  101OSM   C15S10175   4.678   0.380   9.414 -0.1343  0.4002 -0.0294
  101OSM   H15S10176   4.788   0.370   9.403 -0.2429 -0.5147 -0.3789
  101OSM   H15T10177   4.647   0.456   9.338  0.6468  1.0806  0.3182
  101OSM   C16S10178   4.617   0.240   9.383 -0.4495 -0.2052  0.3379
  101OSM   H16S10179   4.508   0.252   9.401 -0.3179  1.1360  0.3784
  101OSM   H16T10180   4.650   0.156   9.447  0.1201 -0.1626  0.1036
  101OSM   C17S10181   4.642   0.198   9.239  0.1588 -0.0403  0.2191
  101OSM   H17S10182   4.595   0.282   9.184  0.3905 -0.0737 -0.0352
  101OSM   H17T10183   4.592   0.101   9.221  0.8180 -0.1897 -0.9054
  101OSM   C18S10184   4.787   0.172   9.196 -0.0446  0.5471 -0.2586
  101OSM   H18S10185   4.796   0.159   9.086  1.1508 -0.4482 -0.0705
  101OSM   H18T10186   4.809   0.073   9.244 -0.0172  1.2121  1.1572
  101OSM   H18U10187   4.862   0.238   9.244  0.9003  0.1255 -1.1111
  101OSM    C1F10188   4.688   0.236  10.876  0.5788  0.1866 -0.0554
  101OSM     OF10189   4.657   0.303  10.971  0.0115 -0.6358  0.0614
  101OSM    C2F10190   4.599   0.136  10.806  0.0785 -0.4630 -0.0994
  101OSM    H2F10191   4.569   0.049  10.868 -0.0347 -0.1790  0.2515
  101OSM    H2G10192   4.646   0.104  10.711 -0.9996  0.2145 -0.8745
  101OSM    C3F10193   4.482   0.211  10.743  0.0723 -1.0676  0.0326
  101OSM    H3F10194   4.405   0.242  10.816  1.0658  3.1499 -0.4501
  101OSM    H3G10195   4.439   0.139  10.670 -0.0378  0.1311 -1.0948
  101OSM    C4F10196   4.515   0.357  10.679 -0.5034 -0.3455  1.0472
  101OSM    H4F10197   4.585   0.329  10.596 -0.7102  0.0470  0.7389
  101OSM    H4G10198   4.556   0.440  10.740  1.6743 -0.1768 -0.4996
  101OSM    C5F10199   4.391   0.401  10.596 -0.4674  0.0851 -0.1690
  101OSM    H5F10200   4.314   0.431  10.671 -1.6817 -1.7891 -0.6186
  101OSM    H5G10201   4.342   0.311  10.555 -0.5681 -0.1976  0.5530
  101OSM    C6F10202   4.415   0.501  10.483 -0.1830  0.3365  0.1954
  101OSM    H6F10203   4.462   0.590  10.530  0.1712  0.2152  0.0725
  101OSM    H6G10204   4.490   0.479  10.404  0.5978  3.6553 -0.1598
  101OSM    C7F10205   4.274   0.542  10.424  0.6086 -0.4151  0.4097
  101OSM    H7F10206   4.206   0.556  10.511  0.9440 -0.1184  0.6301
  101OSM    H7G10207   4.239   0.450  10.374  1.6302 -0.4748 -0.2276
  101OSM    C8F10208   4.279   0.657  10.318 -0.6129 -0.8890 -0.2433
  101OSM    H8F10209   4.315   0.751  10.366  0.5349 -1.0334 -0.7826
  101OSM    H8G10210   4.173   0.675  10.291 -1.1370 -1.2462  1.4393
  101OSM    C9F10211   4.357   0.629  10.191 -0.1769 -0.9039 -0.3394
  101OSM    H9F10212   4.459   0.671  10.194 -0.5058 -0.1223  0.9871
  101OSM   C10F10213   4.311   0.571  10.080 -0.1070  0.0238  0.3009
  101OSM   H10F10214   4.377   0.550   9.995  0.9400 -1.2726  1.3860
  101OSM   C11F10215   4.171   0.517  10.052 -0.9306 -0.2670 -0.2602
  101OSM   H11F10216   4.106   0.598  10.012 -0.2961  0.5857  0.3704
  101OSM   H11G10217   4.126   0.481  10.147 -1.9979  0.8109 -0.3330
  101OSM   C12F10218   4.190   0.403   9.952  0.5674  0.0250 -0.3938
  101OSM   H12F10219   4.088   0.361   9.942  1.1569 -1.3006 -1.1451
  101OSM   H12G10220   4.252   0.323  10.000  1.4904  0.2252 -1.2133
  101OSM   C13F10221   4.241   0.445   9.813  0.1702  0.6429  0.2794
  101OSM   H13F10222   4.352   0.451   9.822  0.0088  2.8802  1.5062
  101OSM   H13G10223   4.206   0.547   9.786  2.3604  1.0491 -1.3431
  101OSM   C14F10224   4.179   0.344   9.708 -0.5776 -0.2884 -0.1053
  101OSM   H14F10225   4.068   0.356   9.711 -0.4908  1.7494 -2.0838
  101OSM   H14G10226   4.210   0.239   9.726  0.1685 -0.0143  0.2318
  101OSM   C15F10227   4.222   0.382   9.565  0.2500  0.0696 -0.6193
  101OSM   H15F10228   4.330   0.364   9.549  0.5882  2.3319 -1.2427
  101OSM   H15G10229   4.205   0.491   9.549 -0.1848  0.2364  0.8492
  101OSM   C16F10230   4.149   0.299   9.463 -0.2377  0.5428  0.2015
  101OSM   H16F10231   4.039   0.309   9.475 -0.5230 -2.4205  0.7951
  101OSM   H16G10232   4.158   0.189   9.479 -2.0149  0.1743 -1.0716
  101OSM   C17F10233   4.190   0.342   9.325 -0.2447  0.1088  0.2694
  101OSM   H17F10234   4.289   0.392   9.332  0.4513 -0.0675 -4.6617
  101OSM   H17G10235   4.115   0.412   9.282  0.4831  1.5150  1.2366
  101OSM   C18F10236   4.203   0.218   9.237  0.8833 -0.2698  0.6268
  101OSM   H18F10237   4.248   0.251   9.140 -0.1711 -1.9389 -0.4734
  101OSM   H18G10238   4.103   0.174   9.216  1.9034 -2.0271 -0.9236
  101OSM   H18H10239   4.268   0.143   9.287 -1.1237 -2.7727 -0.3049
  102OSM      N10240   4.594   1.073  10.977  0.4995  0.0955  0.1601
  102OSM    C1510241   4.651   0.967  11.066  0.0862 -0.5792  0.4193
  102OSM   H15A10242   4.586   0.881  11.060 -1.1945  0.2204  2.0856
  102OSM   H15B10243   4.635   0.997  11.168 -2.1409 -1.9247  0.5308
  102OSM   H15C10244   4.749   0.936  11.032 -0.0620  1.0084 -1.6747
  102OSM    C1410245   4.598   1.035  10.831  0.5565  0.0047 -0.1689
  102OSM   H14A10246   4.698   1.006  10.804 -0.3032 -2.0501 -1.4460
  102OSM   H14B10247   4.576   1.118  10.764  0.1926 -0.4107 -0.5726
  102OSM   H14C10248   4.528   0.956  10.809  0.7214 -0.0073 -0.6793
  102OSM    C1310249   4.449   1.088  11.018  0.3431  0.4866 -0.7108
  102OSM   H13A10250   4.388   0.999  11.008  1.0760 -0.0866 -0.2224
  102OSM   H13B10251   4.409   1.165  10.954 -1.0620  1.6802  1.4792
  102OSM   H13C10252   4.435   1.122  11.119 -0.8674  1.2984 -1.1358
  102OSM    C1210253   4.663   1.208  11.000 -0.1286 -0.2779 -0.0096
  102OSM   H12A10254   4.675   1.213  11.107  0.5023  0.0592 -0.0886
  102OSM   H12B10255   4.596   1.282  10.958 -1.6993 -1.8060 -0.3180
  102OSM    C1110256   4.809   1.227  10.952  0.6563  0.6265 -1.0054
  102OSM   H11A10257   4.854   1.326  10.975  1.8694 -0.4030  1.4006
  102OSM   H11B10258   4.813   1.214  10.842 -2.1015  0.5217 -1.1745
  102OSM      P10259   5.006   1.049  10.966  0.1800 -0.5466 -0.1971
  102OSM    O1310260   5.083   1.004  11.085  0.5928 -0.4179 -0.9045
  102OSM    O1410261   4.939   0.946  10.877 -0.2224 -0.4437 -0.9100
  102OSM    O1110262   5.086   1.158  10.885 -0.3882  0.3993 -0.2669
  102OSM    O1210263   4.888   1.134  11.029  0.2054 -0.1114  0.3616
  102OSM    C1S10264   5.184   1.247  10.933  0.3231  1.0449  0.3515
  102OSM    H1S10265   5.259   1.196  10.996 -0.2205 -0.5795 -0.2547
  102OSM    H1T10266   5.141   1.317  11.007  1.2084  0.2067  1.6976
  102OSM     NF10267   5.328   1.453  10.875 -0.9354  0.2345  0.3101
  102OSM    HNF10268   5.275   1.537  10.884 -1.3262 -0.1342  1.7825
  102OSM    C2S10269   5.259   1.335  10.820 -0.2192 -0.3999  0.4251
  102OSM    H2S10270   5.334   1.264  10.780  0.2450  0.5225 -0.3708
  102OSM    C3S10271   5.152   1.369  10.720 -0.1587  0.0743  1.0089
  102OSM    H3S10272   5.070   1.416  10.779  0.3376  0.6893  1.2164
  102OSM     O310273   5.097   1.263  10.643 -0.4199  0.5809 -0.5139
  102OSM    HO310274   5.096   1.198  10.714  1.1306 -0.1290 -1.1071
  102OSM    C4S10275   5.203   1.465  10.619 -0.2715  0.0750  0.4926
  102OSM    H4S10276   5.299   1.445  10.571 -1.7196 -1.1191 -2.1312
  102OSM    C5S10277   5.159   1.582  10.584  0.4889 -0.2814 -0.2709
  102OSM    H5S10278   5.064   1.620  10.626  0.1741 -1.6476  0.3178
  102OSM    C6S10279   5.226   1.679  10.493  0.2094  0.0398 -0.0656
  102OSM    H6S10280   5.299   1.743  10.548 -1.3603  0.3192  1.7901
  102OSM    H6T10281   5.154   1.753  10.453 -0.6120 -1.7810 -2.1088
  102OSM    C7S10282   5.305   1.627  10.364 -0.1183  0.5197  0.1526
  102OSM    H7S10283   5.255   1.531  10.339 -1.2337  1.8716 -3.3735
  102OSM    H7T10284   5.405   1.599  10.405  0.6350 -0.3403 -2.1324
  102OSM    C8S10285   5.306   1.726  10.243 -0.2065 -0.1874 -0.0582
  102OSM    H8S10286   5.368   1.814  10.272  1.3510 -1.1716 -0.2779
  102OSM    H8T10287   5.202   1.762  10.227  0.7541  3.2459  0.5253
  102OSM    C9S10288   5.354   1.671  10.106 -0.0979  0.2269 -0.2489
  102OSM    H9S10289   5.313   1.569  10.093  1.4548 -0.5799  0.8366
  102OSM    H9T10290   5.465   1.670  10.102 -0.0750  0.4746  0.2413
  102OSM   C10S10291   5.302   1.758   9.988  0.1864 -0.4645  0.3797
  102OSM   H10S10292   5.321   1.861  10.025  1.3717 -1.2717  2.1801
  102OSM   H10T10293   5.193   1.739   9.983 -0.3282  2.1080  0.5955
  102OSM   C11S10294   5.358   1.738   9.847  0.1067 -0.1055  0.6198
  102OSM   H11S10295   5.326   1.636   9.819 -0.2628  0.7046 -2.2834
  102OSM   H11T10296   5.469   1.738   9.851  0.0753 -0.5873  2.2423
  102OSM   C12S10297   5.301   1.838   9.742  0.2956  0.2611  0.2777
  102OSM   H12S10298   5.322   1.946   9.750 -2.0876  0.9263 -1.2222
  102OSM   H12T10299   5.190   1.826   9.740  0.4746 -1.8021  0.8331
  102OSM   C13S10300   5.354   1.807   9.594 -0.2573 -1.2350 -0.1238
  102OSM   H13S10301   5.351   1.698   9.572  3.6269 -1.2377 -1.2684
  102OSM   H13T10302   5.459   1.840   9.581 -1.3683  2.2937 -1.2327
  102OSM   C14S10303   5.277   1.894   9.497  0.0828 -0.2724  0.1787
  102OSM   H14S10304   5.278   2.000   9.531  3.3262  0.5233 -1.9152
  102OSM   H14T10305   5.172   1.855   9.498 -0.4363  1.0856  0.4809
  102OSM   C15S10306   5.343   1.882   9.359 -0.8128  0.1669  0.3310
  102OSM   H15S10307   5.346   1.771   9.349 -0.0406 -0.2305  3.7687
  102OSM   H15T10308   5.438   1.939   9.358 -0.8756  0.2758  0.4811
  102OSM   C16S10309   5.250   1.950   9.256  0.0592  0.0687 -0.0670
  102OSM   H16S10310   5.253   2.061   9.258  1.7554  0.0411  1.6521
  102OSM   H16T10311   5.145   1.916   9.269 -0.1657  1.5615  2.4395
  102OSM   C17S10312   5.287   1.919   9.111 -0.0746  0.2861 -0.0018
  102OSM   H17S10313   5.294   1.809   9.098 -0.0152  0.3290 -0.3394
  102OSM   H17T10314   5.391   1.946   9.084  0.6287 -1.3217  0.9406
  102OSM   C18S10315   5.190   1.992   9.018 -0.2226 -0.2100  0.3460
  102OSM   H18S10316   5.224   1.957   8.918 -0.3816 -0.0810  0.2458
  102OSM   H18T10317   5.213   2.101   9.023  0.5014 -0.3956  1.2808
  102OSM   H18U10318   5.088   1.971   9.054  0.3809  2.8083  4.4684
  102OSM    C1F10319   5.435   1.445  10.956  0.7466  0.1461  0.0209
  102OSM     OF10320   5.490   1.336  10.977 -0.1788  0.0945 -0.2321
  102OSM    C2F10321   5.458   1.560  11.045 -0.2655  0.1455 -0.0487
  102OSM    H2F10322   5.398   1.535  11.135  0.8416 -1.9025  0.1977
  102OSM    H2G10323   5.422   1.656  11.004 -1.3945  0.3043  1.2328
  102OSM    C3F10324   5.612   1.584  11.067  0.0823 -0.4433 -0.2672
  102OSM    H3F10325   5.664   1.607  10.972 -0.4676  0.9168 -0.2652
  102OSM    H3G10326   5.653   1.484  11.095 -2.2921 -1.4967 -0.3297
  102OSM    C4F10327   5.654   1.699  11.162 -0.1846 -0.3543  0.9159
  102OSM    H4F10328   5.763   1.711  11.146  0.1450 -2.9751  0.8916
  102OSM    H4G10329   5.644   1.674  11.270 -2.5365  0.8136  1.0453
  102OSM    C5F10330   5.589   1.832  11.133 -0.0118 -0.4001 -0.0920
  102OSM    H5F10331   5.625   1.907  11.207  0.9368 -1.4702  0.5788
  102OSM    H5G10332   5.478   1.830  11.137 -0.0044 -2.4595  1.2206
  102OSM    C6F10333   5.636   1.893  10.993 -0.2702  0.3998  0.2099
  102OSM    H6F10334   5.562   1.857  10.918  0.8383  0.2782 -0.8564
  102OSM    H6G10335   5.739   1.875  10.956 -0.0337 -0.5205  1.2604
  102OSM    C7F10336   5.637   2.052  11.003  0.3625 -0.1234  0.2472
  102OSM    H7F10337   5.726   2.091  11.058  0.2146 -0.4270  0.7083
  102OSM    H7G10338   5.543   2.070  11.059 -0.8041 -0.1829 -1.6054
  102OSM    C8F10339   5.619   2.126  10.870 -0.0138 -0.0010 -0.4164
  102OSM    H8F10340   5.577   2.228  10.881  0.7879  0.2361  0.6275
  102OSM    H8G10341   5.544   2.062  10.818  1.8882 -2.7592  0.0141
  102OSM    C9F10342   5.749   2.134  10.784 -0.2725 -0.0166  0.0972
  102OSM    H9F10343   5.807   2.225  10.805 -1.5707  0.9948 -0.5679
  102OSM   C10F10344   5.779   2.054  10.677 -0.7810 -0.2126 -0.8648
  102OSM   H10F10345   5.877   2.064  10.629  0.7015 -0.3540  1.9205
  102OSM   C11F10346   5.695   1.938  10.637  0.4406  0.1284  0.5203
  102OSM   H11F10347   5.707   1.949  10.527  5.2833 -0.5560  0.7644
  102OSM   H11G10348   5.590   1.959  10.664  0.5830  2.0856 -0.2915
  102OSM   C12F10349   5.745   1.797  10.667 -0.1728  0.2906  0.3171
  102OSM   H12F10350   5.747   1.778  10.777  3.0949 -2.9502 -0.0967
  102OSM   H12G10351   5.852   1.784  10.638  0.5553 -0.0765  2.8456
  102OSM   C13F10352   5.658   1.701  10.590  0.0241 -0.3558  0.6795
  102OSM   H13F10353   5.650   1.705  10.479 -2.3945  0.4179  0.8115
  102OSM   H13G10354   5.551   1.712  10.618 -0.8061  3.1865 -2.9716
  102OSM   C14F10355   5.703   1.560  10.625 -0.1168 -0.6734 -0.3142
  102OSM   H14F10356   5.692   1.559  10.736  1.5529 -0.6822 -0.1265
  102OSM   H14G10357   5.810   1.556  10.597 -0.2649 -3.3611 -0.7707
  102OSM   C15F10358   5.616   1.449  10.569 -0.2214 -0.1702  0.4276
  102OSM   H15F10359   5.513   1.451  10.611 -0.1969 -0.7498  0.5306
  102OSM   H15G10360   5.663   1.358  10.611 -0.8066  0.3622  2.3400
  102OSM   C16F10361   5.630   1.444  10.416  0.4651  0.1509  0.6569
  102OSM   H16F10362   5.736   1.431  10.386  0.3374  0.5147  0.0343
  102OSM   H16G10363   5.597   1.544  10.381 -2.3107 -1.4323 -1.6272
  102OSM   C17F10364   5.538   1.333  10.357  0.1198  0.2660 -0.2262
  102OSM   H17F10365   5.446   1.344  10.419  1.1985  0.9279  1.3483
  102OSM   H17G10366   5.586   1.233  10.371  3.2238  1.7079  0.3079
  102OSM   C18F10367   5.513   1.351  10.209  0.5526 -0.1344 -0.7109
  102OSM   H18F10368   5.430   1.280  10.186 -0.7772 -0.3156  3.7543
  102OSM   H18G10369   5.604   1.337  10.148 -0.0013 -0.1566 -1.5569
  102OSM   H18H10370   5.467   1.451  10.192  0.3558 -0.3767 -1.6615
  103OSM      N10371   5.879   3.588  11.011  0.5134  0.3073  0.6669
  103OSM    C1510372   5.808   3.478  11.075 -0.0739  0.2554 -0.1887
  103OSM   H15A10373   5.727   3.438  11.017 -0.5147 -2.6964  2.2747
  103OSM   H15B10374   5.773   3.498  11.175 -2.2619  0.8805 -1.0259
  103OSM   H15C10375   5.885   3.403  11.087  0.5663  0.8179 -0.6344
  103OSM    C1410376   5.783   3.686  10.950 -0.0848  0.2777  0.2592
  103OSM   H14A10377   5.724   3.644  10.870 -0.7052 -0.5693  1.1402
  103OSM   H14B10378   5.828   3.780  10.919  1.6863 -0.2741  1.0132
  103OSM   H14C10379   5.711   3.718  11.024 -0.8585  3.5421 -1.6843
  103OSM    C1310380   5.970   3.654  11.109  0.1890 -0.5870 -1.0411
  103OSM   H13A10381   6.033   3.728  11.061 -0.9382  0.6397 -0.6830
  103OSM   H13B10382   6.034   3.579  11.154  0.7953 -0.5068 -1.7510
  103OSM   H13C10383   5.913   3.701  11.188 -0.0560 -1.7825 -0.4826
  103OSM    C1210384   5.965   3.527  10.897  0.5589  0.6717 -0.2981
  103OSM   H12A10385   6.004   3.612  10.842 -1.2990  2.9821  1.6995
  103OSM   H12B10386   5.905   3.469  10.829  0.7856  0.0367  0.0382
  103OSM    C1110387   6.093   3.432  10.923  0.5040  0.4296 -0.0605
  103OSM   H11A10388   6.174   3.498  10.963 -0.5583  2.7817 -1.6006
  103OSM   H11B10389   6.117   3.397  10.820 -2.7148 -0.7294 -0.5142
  103OSM      P10390   6.091   3.182  10.996 -0.4201  0.4480  0.0337
  103OSM    O1310391   6.215   3.165  11.080  0.5628  0.0440 -0.0308
  103OSM    O1410392   5.974   3.100  11.028 -0.7274  0.1047  0.1604
  103OSM    O1110393   6.124   3.154  10.840  0.1845 -0.1933 -0.0770
  103OSM    O1210394   6.057   3.328  11.008 -0.1030 -0.5564 -0.1363
  103OSM    C1S10395   6.260   3.143  10.798  0.4310  0.2770 -0.6654
  103OSM    H1S10396   6.304   3.057  10.852 -2.6127 -0.5648  0.7337
  103OSM    H1T10397   6.320   3.236  10.802  1.1862 -0.2439  0.2969
  103OSM     NF10398   6.406   3.089  10.619  0.7874  0.1207 -0.1132
  103OSM    HNF10399   6.437   3.166  10.563  0.8856  2.7706  3.1920
  103OSM    C2S10400   6.263   3.086  10.653 -0.7068  0.0237 -0.6157
  103OSM    H2S10401   6.223   2.983  10.651  1.3222 -0.7983 -1.0689
  103OSM    C3S10402   6.167   3.168  10.561 -0.7358 -0.6632 -0.0369
  103OSM    H3S10403   6.178   3.277  10.582  2.9334 -1.1914  1.6078
  103OSM     O310404   6.031   3.136  10.576 -0.3149  0.2467  0.6690
  103OSM    HO310405   6.020   3.060  10.633 -0.3709  0.2354  0.6432
  103OSM    C4S10406   6.200   3.144  10.412 -0.5090  0.1690  0.2360
  103OSM    H4S10407   6.164   3.045  10.382 -2.8585  0.9263  0.3627
  103OSM    C5S10408   6.274   3.215  10.327 -0.1575  0.0654 -0.8616
  103OSM    H5S10409   6.312   3.310  10.367  1.0376 -1.0565  0.8543
  103OSM    C6S10410   6.312   3.168  10.189 -0.3172  0.1898 -0.0094
  103OSM    H6S10411   6.422   3.154  10.184 -0.4597 -0.6201 -1.6429
  103OSM    H6T10412   6.288   3.251  10.119 -0.8272  0.9148  1.0127
  103OSM    C7S10413   6.260   3.032  10.137  0.5492  0.1000  0.1609
  103OSM    H7S10414   6.150   3.035  10.126  0.6807 -1.4045 -2.5934
  103OSM    H7T10415   6.279   2.959  10.219  2.1839 -0.8998 -1.0498
  103OSM    C8S10416   6.317   2.984  10.003  0.0529 -1.1185  0.1323
  103OSM    H8S10417   6.292   2.876   9.990 -1.5526 -1.1508  2.7573
  103OSM    H8T10418   6.425   3.008  10.012 -0.1935  0.5374 -0.8579
  103OSM    C9S10419   6.257   3.058   9.882 -0.4091 -0.2912  0.1182
  103OSM    H9S10420   6.268   3.167   9.903 -0.9360 -0.5131  1.7515
  103OSM    H9T10421   6.147   3.041   9.880 -0.5967  0.9133 -0.6560
  103OSM   C10S10422   6.312   2.999   9.758 -0.3337  0.1231  0.2440
  103OSM   H10S10423   6.252   2.906   9.755 -1.5678  0.6878  3.3420
  103OSM   H10T10424   6.421   2.978   9.757 -0.2630  0.3052  2.1068
  103OSM   C11S10425   6.284   3.077   9.625  0.3738 -0.0483 -0.1802
  103OSM   H11S10426   6.336   3.175   9.635  1.9051 -0.8954  0.5018
  103OSM   H11T10427   6.173   3.086   9.629  0.2155 -1.8312  0.3186
  103OSM   C12S10428   6.352   3.006   9.514 -0.2073  0.1687  0.5818
  103OSM   H12S10429   6.325   2.898   9.513  0.5555 -0.1013 -2.6745
  103OSM   H12T10430   6.462   3.006   9.532 -0.0274 -2.4833 -0.0367
  103OSM   C13S10431   6.312   3.076   9.384 -0.4484  0.7473 -0.2303
  103OSM   H13S10432   6.324   3.186   9.395  0.0499  0.8633 -1.7667
  103OSM   H13T10433   6.202   3.065   9.385 -0.4636  0.8977 -0.3520
  103OSM   C14S10434   6.385   3.013   9.263 -0.0332  0.0477  0.0715
  103OSM   H14S10435   6.350   2.908   9.271  0.5049 -0.5359 -3.6225
  103OSM   H14T10436   6.496   3.016   9.270  0.0735  3.3729 -1.0990
  103OSM   C15S10437   6.346   3.081   9.134  0.8127  0.0090  0.8601
  103OSM   H15S10438   6.373   3.187   9.151 -1.2223  0.4199  1.8489
  103OSM   H15T10439   6.237   3.076   9.114  1.2080 -1.6486 -1.2272
  103OSM   C16S10440   6.422   3.016   9.008  0.2378  0.0075 -0.3631
  103OSM   H16S10441   6.387   2.911   9.003 -0.2372  0.1913 -1.1739
  103OSM   H16T10442   6.531   3.015   9.030  0.1422  0.7845  0.2196
  103OSM   C17S10443   6.385   3.085   8.882  0.1875 -0.1461  0.7621
  103OSM   H17S10444   6.429   3.187   8.888 -0.1753  0.2528 -2.1498
  103OSM   H17T10445   6.275   3.087   8.868 -0.2861 -0.4241  3.7781
  103OSM   C18S10446   6.455   3.012   8.758  0.2574 -0.4721 -0.0183
  103OSM   H18S10447   6.407   3.059   8.669  3.1682  0.7343 -1.0614
  103OSM   H18T10448   6.419   2.907   8.758  1.5734 -1.0442 -3.6090
  103OSM   H18U10449   6.566   3.009   8.763  0.4253 -1.0008 -2.6743
  103OSM    C1F10450   6.486   2.998  10.671 -0.4815 -0.7060 -1.0358
  103OSM     OF10451   6.446   2.897  10.726 -0.7699 -0.0171  0.1177
  103OSM    C2F10452   6.631   3.035  10.683  0.2576  0.4138  0.7294
  103OSM    H2F10453   6.681   2.994  10.773 -0.1222 -0.6749  0.4570
  103OSM    H2G10454   6.643   3.144  10.667  0.4838  0.1221 -1.4889
  103OSM    C3F10455   6.714   2.966  10.571  0.0055 -0.0532 -0.0794
  103OSM    H3F10456   6.705   2.856  10.571  0.6709 -0.1229  0.7433
  103OSM    H3G10457   6.821   2.992  10.588 -0.5195  2.3612 -0.0449
  103OSM    C4F10458   6.694   3.027  10.434  0.1947  0.0316  0.3636
  103OSM    H4F10459   6.733   3.131  10.436  0.7045 -0.1609  0.6206
  103OSM    H4G10460   6.593   3.018  10.389  1.4913 -1.8350 -2.4481
  103OSM    C5F10461   6.767   2.945  10.324 -0.0695 -0.1682 -0.0738
  103OSM    H5F10462   6.733   2.840  10.314  0.0206 -0.3071  0.9174
  103OSM    H5G10463   6.875   2.951  10.348  0.0878  1.1413 -1.0160
  103OSM    C6F10464   6.749   3.012  10.186 -0.4358  0.9115  0.0385
  103OSM    H6F10465   6.782   3.117  10.199  1.3012  0.2143  1.5917
  103OSM    H6G10466   6.643   3.005  10.153  0.6398  0.8706 -3.9385
  103OSM    C7F10467   6.849   2.959  10.078  0.5448  0.1358 -0.7525
  103OSM    H7F10468   6.844   2.848  10.083 -0.9349  0.0453 -2.9317
  103OSM    H7G10469   6.954   2.985  10.101 -0.1036  0.2894  2.6506
  103OSM    C8F10470   6.822   3.003   9.935 -0.0465 -0.0559 -0.1710
  103OSM    H8F10471   6.920   3.008   9.883 -1.0375 -0.0965 -2.1621
  103OSM    H8G10472   6.775   3.103   9.926 -0.3351 -0.2936 -1.4941
  103OSM    C9F10473   6.727   2.913   9.858 -0.3150 -0.2006 -0.3156
  103OSM    H9F10474   6.624   2.914   9.896  0.4320 -2.1978  2.0955
  103OSM   C10F10475   6.750   2.832   9.756  0.5880 -0.3941 -0.7887
  103OSM   H10F10476   6.667   2.788   9.700  1.0806 -1.6327 -0.5612
  103OSM   C11F10477   6.889   2.819   9.691 -0.3659  0.2607  0.5436
  103OSM   H11F10478   6.901   2.710   9.669  0.8966  0.2734  1.0839
  103OSM   H11G10479   6.969   2.837   9.765  0.1774 -1.0343  0.2938
  103OSM   C12F10480   6.906   2.897   9.566  0.0862 -0.2006  0.2050
  103OSM   H12F10481   7.008   2.875   9.526 -0.9651 -1.7514 -1.7833
  103OSM   H12G10482   6.890   3.005   9.585 -2.8072 -0.0268 -2.5642
  103OSM   C13F10483   6.807   2.867   9.458 -0.6021  0.1986 -0.0111
  103OSM   H13F10484   6.701   2.893   9.475 -0.4377  0.6658  0.3282
  103OSM   H13G10485   6.813   2.756   9.454  2.3578  0.1272  2.7347
  103OSM   C14F10486   6.842   2.932   9.327 -0.8669 -0.1119 -0.4280
  103OSM   H14F10487   6.951   2.952   9.319 -0.6336 -1.0641  0.1418
  103OSM   H14G10488   6.787   3.027   9.310 -0.4147  0.4537  1.0996
  103OSM   C15F10489   6.801   2.838   9.210 -0.0056  0.6095 -0.1998
  103OSM   H15F10490   6.692   2.829   9.186  0.2867  1.4900 -2.0628
  103OSM   H15G10491   6.836   2.735   9.231  0.3614  0.6998 -0.3672
  103OSM   C16F10492   6.856   2.881   9.073  0.5970 -0.2234  0.1535
  103OSM   H16F10493   6.965   2.869   9.061  0.3182 -2.3606 -0.8378
  103OSM   H16G10494   6.822   2.986   9.060 -0.3046 -0.6725 -1.4048
  103OSM   C17F10495   6.793   2.804   8.964 -0.0728  0.2396  0.5610
  103OSM   H17F10496   6.685   2.828   8.968  0.1293  1.0105  2.7444
  103OSM   H17G10497   6.807   2.696   8.982 -0.9374 -0.0358 -0.3126
  103OSM   C18F10498   6.860   2.839   8.826 -0.7321  0.9041 -0.4739
  103OSM   H18F10499   6.867   2.950   8.822  0.0860  0.9120  0.5876
  103OSM   H18G10500   6.807   2.787   8.744  0.8570 -0.8902 -0.4503
  103OSM   H18H10501   6.968   2.814   8.818  0.0441  3.2812  1.3797
  104OSM      N10502   0.509   4.141  11.173  0.2904  0.1168  0.6548
  104OSM    C1510503   0.540   3.998  11.141 -0.9832 -0.3971  0.7424
  104OSM   H15A10504   0.632   3.999  11.083 -0.4856 -0.3559  1.5116
  104OSM   H15B10505   0.471   3.946  11.078 -1.3354 -0.9179  1.5467
  104OSM   H15C10506   0.560   3.941  11.231  3.2516 -0.3158  0.0527
  104OSM    C1410507   0.610   4.207  11.266  0.0262  0.1949 -0.1365
  104OSM   H14A10508   0.619   4.150  11.358  1.2974  3.2257  1.7799
  104OSM   H14B10509   0.588   4.310  11.287  0.4831 -0.0370  1.6492
  104OSM   H14C10510   0.704   4.216  11.213  0.2288  0.4030  0.2538
  104OSM    C1310511   0.515   4.227  11.045 -0.5963 -0.1648 -0.5797
  104OSM   H13A10512   0.476   4.171  10.961  1.2462 -2.3847 -0.0340
  104OSM   H13B10513   0.616   4.262  11.027 -0.9873  1.8127  0.7332
  104OSM   H13C10514   0.455   4.317  11.049  1.3683  1.1519  1.1830
  104OSM    C1210515   0.373   4.149  11.234  0.8352  0.0932 -0.1361
  104OSM   H12A10516   0.354   4.253  11.256  0.5976  0.3479 -1.4432
  104OSM   H12B10517   0.372   4.097  11.329 -0.0696 -1.0524 -0.7350
  104OSM    C1110518   0.251   4.115  11.140  0.2368 -0.2042 -0.0079
  104OSM   H11A10519   0.253   4.180  11.050 -0.5074  0.4928  0.4635
  104OSM   H11B10520   0.152   4.139  11.184 -0.5737 -1.5512 -1.0335
  104OSM      P10521   0.220   3.922  10.964 -0.5238 -0.5493  0.1480
  104OSM    O1310522   0.260   3.783  10.963  0.0450  0.2480  0.6567
  104OSM    O1410523   0.081   3.956  10.926  0.0423  0.1226 -0.5286
  104OSM    O1110524   0.325   4.013  10.883 -0.0316 -0.1306 -0.0435
  104OSM    O1210525   0.251   3.975  11.105 -0.3623  0.0746  0.1304
  104OSM    C1S10526   0.381   3.960  10.761  0.3121 -0.3002 -0.4098
  104OSM    H1S10527   0.365   3.852  10.741  3.6439 -1.0287  0.2668
  104OSM    H1T10528   0.490   3.975  10.778 -0.2177  1.7768  1.9194
  104OSM     NF10529   0.397   3.990  10.519  0.1287  0.4740 -0.0550
  104OSM    HNF10530   0.465   4.047  10.473  2.8294 -0.4784  2.4533
  104OSM    C2S10531   0.332   4.042  10.636  0.5903  0.1874  0.2863
  104OSM    H2S10532   0.222   4.025  10.637  0.3725  1.4801 -0.0506
  104OSM    C3S10533   0.352   4.201  10.652 -0.3393  0.2705  0.1116
  104OSM    H3S10534   0.460   4.220  10.641 -0.6791  1.9551 -0.5459
  104OSM     O310535   0.314   4.255  10.779 -0.4838 -0.0291 -0.8208
  104OSM    HO310536   0.312   4.180  10.838  0.3678  1.6870  1.5594
  104OSM    C4S10537   0.288   4.278  10.539  0.7467  0.3676 -0.0821
  104OSM    H4S10538   0.352   4.265  10.449 -0.7309 -1.1001 -0.9696
  104OSM    C5S10539   0.170   4.345  10.533  0.4125 -0.4679  0.1056
  104OSM    H5S10540   0.104   4.358  10.620 -0.2474 -0.4959 -0.3862
  104OSM    C6S10541   0.130   4.425  10.406  0.3759  0.2394  0.0151
  104OSM    H6S10542   0.153   4.532  10.423 -0.2673  0.1574  1.5350
  104OSM    H6T10543   0.020   4.418  10.397  0.2181  0.6131  1.4539
  104OSM    C7S10544   0.194   4.396  10.265 -0.3202 -0.1100 -0.2848
  104OSM    H7S10545   0.185   4.288  10.240  0.7864 -0.6900  1.6576
  104OSM    H7T10546   0.299   4.429  10.277 -0.8387  2.0497 -1.0620
  104OSM    C8S10547   0.134   4.483  10.155  0.4521 -1.0736  0.1910
  104OSM    H8S10548   0.136   4.589  10.188 -1.5405 -0.0965 -2.4972
  104OSM    H8T10549   0.026   4.465  10.139  0.7193 -2.0253 -0.7246
  104OSM    C9S10550   0.203   4.485  10.018 -0.8321  0.3527 -0.2763
  104OSM    H9S10551   0.308   4.511  10.044 -0.8074  1.1098 -1.0963
  104OSM    H9T10552   0.157   4.566   9.957 -2.1409 -0.2529 -0.1212
  104OSM   C10S10553   0.202   4.356   9.937  0.6113 -0.5426 -0.1840
  104OSM   H10S10554   0.104   4.309   9.911 -0.1427  0.2055  1.1790
  104OSM   H10T10555   0.247   4.286  10.011 -2.4250 -3.6958 -1.0008
  104OSM   C11S10556   0.279   4.359   9.809  0.4493  0.6610 -0.2259
  104OSM   H11S10557   0.287   4.254   9.774 -0.7306  1.1488 -2.0578
  104OSM   H11T10558   0.383   4.395   9.826  0.4576  0.0460  1.1384
  104OSM   C12S10559   0.213   4.455   9.698 -0.1474  0.4135 -0.0693
  104OSM   H12S10560   0.194   4.555   9.741  0.5398  0.2881  0.5461
  104OSM   H12T10561   0.116   4.406   9.673 -0.2667  1.4238 -1.7337
  104OSM   C13S10562   0.298   4.453   9.559  0.2270  0.5422 -0.9951
  104OSM   H13S10563   0.312   4.347   9.528  0.1692  0.6898 -1.5320
  104OSM   H13T10564   0.405   4.475   9.582  0.3263  0.1974 -1.1201
  104OSM   C14S10565   0.246   4.554   9.458 -0.5931  0.2560 -0.6615
  104OSM   H14S10566   0.247   4.655   9.504 -3.6340 -1.0871  2.9086
  104OSM   H14T10567   0.137   4.531   9.448 -0.5302  0.2199 -1.2966
  104OSM   C15S10568   0.328   4.556   9.339  0.8001 -0.2237  1.2921
  104OSM   H15S10569   0.334   4.456   9.291  1.2463  0.3105  0.1840
  104OSM   H15T10570   0.436   4.581   9.347  0.7198  1.0534 -0.8152
  104OSM   C16S10571   0.261   4.661   9.238 -0.8845 -0.0275  0.3450
  104OSM   H16S10572   0.266   4.767   9.271  1.1300  0.4011 -1.1228
  104OSM   H16T10573   0.156   4.625   9.238 -1.6936  2.0134 -1.9590
  104OSM   C17S10574   0.327   4.661   9.106  0.2803  0.3397  0.0997
  104OSM   H17S10575   0.309   4.562   9.059  0.7968  0.7535 -1.0013
  104OSM   H17T10576   0.437   4.676   9.118  0.0118  2.9665 -0.1703
  104OSM   C18S10577   0.265   4.762   9.010 -0.1414  0.1411 -0.0123
  104OSM   H18S10578   0.274   4.865   9.050  0.1653 -0.5389  1.7640
  104OSM   H18T10579   0.156   4.751   8.995 -0.7559  1.9170  2.6018
  104OSM   H18U10580   0.310   4.742   8.910 -1.2206 -0.4466 -0.4015
  104OSM    C1F10581   0.366   3.868  10.476 -0.5944  0.2776  0.4969
  104OSM     OF10582   0.281   3.800  10.532  0.3281  0.2803 -0.2886
  104OSM    C2F10583   0.425   3.824  10.345 -0.3114 -0.1322 -0.5606
  104OSM    H2F10584   0.443   3.715  10.350 -1.2314 -0.3081 -0.7996
  104OSM    H2G10585   0.525   3.869  10.331 -0.1512 -0.8613 -1.9333
  104OSM    C3F10586   0.333   3.860  10.238  0.4541 -1.3090 -0.8439
  104OSM    H3F10587   0.327   3.971  10.233  2.2567 -0.8321  3.2849
  104OSM    H3G10588   0.227   3.828  10.247  0.1369 -0.2810 -0.8505
  104OSM    C4F10589   0.385   3.808  10.100  0.1450 -0.1412 -0.3943
  104OSM    H4F10590   0.369   3.701  10.079  1.8271 -0.9803  2.1519
  104OSM    H4G10591   0.496   3.809  10.094  0.4233 -2.1422  2.6842
  104OSM    C5F10592   0.310   3.883   9.980 -0.0886  0.7907 -0.5617
  104OSM    H5F10593   0.332   3.989  10.003  1.6064  0.0756  1.3581
  104OSM    H5G10594   0.202   3.856   9.986  0.1676  0.0698  3.0320
  104OSM    C6F10595   0.363   3.842   9.848 -0.0604  0.2910 -0.0571
  104OSM    H6F10596   0.370   3.731   9.849 -0.1613  0.2292 -1.8915
  104OSM    H6G10597   0.466   3.879   9.828  0.0405 -0.3266 -0.7142
  104OSM    C7F10598   0.264   3.882   9.731 -0.5902 -0.0290  0.0975
  104OSM    H7F10599   0.232   3.987   9.748 -1.3488 -0.1842 -0.3094
  104OSM    H7G10600   0.168   3.835   9.759 -1.5001  1.3717 -0.5294
  104OSM    C8F10601   0.306   3.850   9.587  0.3150  0.6771  0.1460
  104OSM    H8F10602   0.219   3.864   9.519  1.1296  3.4042 -0.4610
  104OSM    H8G10603   0.330   3.741   9.593 -0.3256  0.4121 -1.6299
  104OSM    C9F10604   0.426   3.938   9.556 -0.9911  0.9212 -0.4032
  104OSM    H9F10605   0.493   3.953   9.642 -0.4049  2.1970 -1.0520
  104OSM   C10F10606   0.448   3.997   9.433 -0.5127 -0.3781  0.0319
  104OSM   H10F10607   0.531   4.069   9.434 -0.3531 -0.5383  1.8789
  104OSM   C11F10608   0.361   3.997   9.313  0.3810 -0.2977  0.1529
  104OSM   H11F10609   0.257   4.009   9.351  0.2486 -2.5314  0.6285
  104OSM   H11G10610   0.366   3.905   9.251 -1.0563  0.0687 -0.5489
  104OSM   C12F10611   0.383   4.113   9.204 -0.4307 -0.2755 -0.8752
  104OSM   H12F10612   0.398   4.200   9.272 -0.4102 -1.9333  1.3534
  104OSM   H12G10613   0.291   4.124   9.144 -2.3141 -2.7108  1.3647
  104OSM   C13F10614   0.511   4.089   9.120  0.0097 -0.6397 -0.2504
  104OSM   H13F10615   0.524   3.980   9.106 -1.6471 -0.9782  0.5785
  104OSM   H13G10616   0.591   4.143   9.175 -2.6840  2.5086  0.9055
  104OSM   C14F10617   0.500   4.170   8.984 -0.0488  0.3172  0.8299
  104OSM   H14F10618   0.487   4.275   9.016  2.1008  0.6939  0.6215
  104OSM   H14G10619   0.405   4.141   8.935 -0.7538 -4.1740  4.1513
  104OSM   C15F10620   0.628   4.159   8.900 -0.4112  0.3847 -0.5763
  104OSM   H15F10621   0.647   4.050   8.892  0.6420  0.4550  0.6408
  104OSM   H15G10622   0.709   4.197   8.965  0.6601  0.2812 -1.8135
  104OSM   C16F10623   0.616   4.206   8.765  0.1529 -0.5940  0.7868
  104OSM   H16F10624   0.514   4.185   8.727  0.3841 -1.2135  0.4903
  104OSM   H16G10625   0.700   4.173   8.699 -0.0244 -1.2629  0.8868
  104OSM   C17F10626   0.642   4.363   8.752 -0.3441  0.4352 -0.2078
  104OSM   H17F10627   0.728   4.391   8.817 -0.8428  0.8274  0.2990
  104OSM   H17G10628   0.561   4.424   8.798  1.1212  1.9435  0.5376
  104OSM   C18F10629   0.655   4.420   8.613  0.7715  0.2106 -0.2193
  104OSM   H18F10630   0.645   4.529   8.629 -1.5411  0.0630 -0.2550
  104OSM   H18G10631   0.562   4.393   8.558 -0.1416  0.2916  1.2044
  104OSM   H18H10632   0.749   4.397   8.560 -0.3115 -0.4597 -1.9416
  105OSM      N10633   3.635   0.160  10.916  0.4356 -0.2738  0.1075
  105OSM    C1510634   3.585   0.109  10.786 -0.1341  0.0521  1.0149
  105OSM   H15A10635   3.610   0.008  10.758 -2.4814  0.2584 -2.4932
  105OSM   H15B10636   3.640   0.161  10.710  3.4024 -3.2767  0.9976
  105OSM   H15C10637   3.481   0.131  10.767  0.0796 -0.7363 -1.3422
  105OSM    C1410638   3.610   0.057  11.019  0.8738 -0.6693  0.0817
  105OSM   H14A10639   3.669  -0.032  11.002  0.9475 -0.4316 -0.9270
  105OSM   H14B10640   3.506   0.028  11.025  0.8828 -0.9572 -0.9640
  105OSM   H14C10641   3.644   0.082  11.119  0.1625  1.5640 -0.1867
  105OSM    C1310642   3.782   0.192  10.919 -0.5570  0.8082  0.1026
  105OSM   H13A10643   3.821   0.202  11.019  0.2733 -2.1018  0.1409
  105OSM   H13B10644   3.806   0.276  10.855  1.6047 -0.7048 -1.1950
  105OSM   H13C10645   3.839   0.108  10.884 -0.4115 -0.0469  2.2789
  105OSM    C1210646   3.556   0.290  10.948 -0.2602  0.3950  0.1319
  105OSM   H12A10647   3.569   0.353  10.861 -0.5471 -0.2570 -0.3960
  105OSM   H12B10648   3.610   0.341  11.026 -0.2591  0.7946 -0.1270
  105OSM    C1110649   3.405   0.285  10.983  0.3098 -0.1832  1.1563
  105OSM   H11A10650   3.375   0.390  11.004 -0.6174  0.6831 -3.4857
  105OSM   H11B10651   3.396   0.235  11.082 -0.3093  0.5384  1.4822
  105OSM      P10652   3.194   0.140  10.892  0.0792 -0.0291  0.0488
  105OSM    O1310653   3.247   0.014  10.950  0.3248  0.2165  0.5530
  105OSM    O1410654   3.090   0.215  10.965  0.2820  0.7590  0.3112
  105OSM    O1110655   3.142   0.111  10.748 -0.3357 -0.5133 -0.1106
  105OSM    O1210656   3.321   0.235  10.875 -0.1176 -0.1231 -0.1893
  105OSM    C1S10657   3.219   0.135  10.627 -0.0968 -0.5367  0.1212
  105OSM    H1S10658   3.277   0.043  10.606 -0.2291 -1.1878  2.3492
  105OSM    H1T10659   3.290   0.220  10.637 -0.5502  0.2025 -2.3816
  105OSM     NF10660   3.219   0.192  10.383  0.2677  0.1949  0.3325
  105OSM    HNF10661   3.225   0.284  10.346  0.6978  0.2619  0.5689
  105OSM    C2S10662   3.133   0.183  10.504 -0.6268 -0.0091  0.4018
  105OSM    H2S10663   3.049   0.112  10.492 -0.9427  0.4006  0.1758
  105OSM    C3S10664   3.058   0.323  10.534  0.1324  0.0802  0.3102
  105OSM    H3S10665   3.134   0.400  10.509  1.6344 -1.4467 -0.0770
  105OSM     O310666   3.009   0.332  10.665  0.3494 -0.5380 -0.2930
  105OSM    HO310667   3.048   0.256  10.708  1.0154  0.4142  0.8351
  105OSM    C4S10668   2.940   0.343  10.437  0.0981  0.7273  0.2940
  105OSM    H4S10669   2.842   0.303  10.467  0.7088 -0.7953  0.3387
  105OSM    C5S10670   2.950   0.415  10.321 -0.1246  0.7002  0.6070
  105OSM    H5S10671   3.044   0.468  10.302  0.2597 -0.0956  0.2494
  105OSM    C6S10672   2.825   0.442  10.233 -0.8831  0.8457 -0.3178
  105OSM    H6S10673   2.739   0.377  10.262  0.6928 -0.4929  1.5800
  105OSM    H6T10674   2.862   0.410  10.133  1.5752  1.4786  0.3289
  105OSM    C7S10675   2.797   0.592  10.229  0.6974 -0.0212 -0.4805
  105OSM    H7S10676   2.887   0.658  10.237  0.8217 -0.2286 -0.1039
  105OSM    H7T10677   2.733   0.607  10.319 -0.8218 -1.7415 -1.2311
  105OSM    C8S10678   2.717   0.651  10.110 -0.3260  0.5506  0.1012
  105OSM    H8S10679   2.685   0.756  10.125  0.9904  1.5198 -3.1053
  105OSM    H8T10680   2.626   0.588  10.095  1.0446 -1.3591 -0.7744
  105OSM    C9S10681   2.800   0.653   9.975  0.0459 -0.2166  0.0614
  105OSM    H9S10682   2.830   0.547   9.955  2.3312  0.4216 -0.2103
  105OSM    H9T10683   2.889   0.719   9.983  0.6198 -1.0203  0.4883
  105OSM   C10S10684   2.709   0.684   9.855 -0.4011 -0.4513 -0.2702
  105OSM   H10S10685   2.674   0.789   9.851  0.0306 -0.3106 -0.4414
  105OSM   H10T10686   2.621   0.617   9.867 -0.6213 -0.5601 -2.2687
  105OSM   C11S10687   2.778   0.638   9.722  0.2859  0.2936  0.1125
  105OSM   H11S10688   2.765   0.530   9.695  0.1959  0.3712 -0.1638
  105OSM   H11T10689   2.888   0.653   9.722  0.3514 -0.1597  0.2975
  105OSM   C12S10690   2.724   0.725   9.601 -0.4413 -0.4414 -0.3105
  105OSM   H12S10691   2.747   0.829   9.632 -0.4446 -0.6263  0.3236
  105OSM   H12T10692   2.613   0.715   9.602 -0.4630 -0.2188 -0.4981
  105OSM   C13S10693   2.785   0.715   9.464  0.3245 -0.3029  0.9139
  105OSM   H13S10694   2.775   0.612   9.421 -1.7305  0.1841  0.0981
  105OSM   H13T10695   2.893   0.740   9.466  0.1749  0.3213  1.3139
  105OSM   C14S10696   2.707   0.802   9.350 -0.0314  0.3599 -0.1059
  105OSM   H14S10697   2.769   0.795   9.258  0.2348  2.1656 -0.0863
  105OSM   H14T10698   2.694   0.908   9.378 -2.9558  0.1396 -0.2839
  105OSM   C15S10699   2.564   0.759   9.304 -0.3824  0.0022 -0.1515
  105OSM   H15S10700   2.491   0.787   9.383 -0.9679  2.6294 -1.4869
  105OSM   H15T10701   2.562   0.649   9.290 -1.4271 -0.1069  0.7125
  105OSM   C16S10702   2.514   0.835   9.181  0.1018  0.1488  0.4167
  105OSM   H16S10703   2.596   0.843   9.107  0.0861 -0.9275  0.2698
  105OSM   H16T10704   2.470   0.935   9.199 -0.8421 -0.4156  1.4099
  105OSM   C17S10705   2.410   0.761   9.105 -0.1216 -0.6455  0.1345
  105OSM   H17S10706   2.310   0.772   9.153 -0.4255  1.4711 -0.8782
  105OSM   H17T10707   2.448   0.658   9.087  1.2462 -0.2114  0.4038
  105OSM   C18S10708   2.406   0.819   8.963  0.2330  0.0900 -0.1635
  105OSM   H18S10709   2.336   0.765   8.896 -1.7978  1.2331  0.9460
  105OSM   H18T10710   2.507   0.826   8.918  1.1819  2.2038  2.0846
  105OSM   H18U10711   2.356   0.918   8.954 -2.0257 -1.1695 -3.3893
  105OSM    C1F10712   3.270   0.087  10.313  0.2222  0.0882  0.0028
  105OSM     OF10713   3.238  -0.024  10.349  0.3408  0.4042 -0.1962
  105OSM    C2F10714   3.369   0.118  10.202 -0.2713 -0.0471  0.3610
  105OSM    H2F10715   3.449   0.172  10.257  0.5281 -0.6140 -0.2265
  105OSM    H2G10716   3.341   0.202  10.136  0.2140 -1.6102 -1.9327
  105OSM    C3F10717   3.429  -0.003  10.124  0.2109  0.2139 -0.2579
  105OSM    H3F10718   3.349  -0.040  10.056  0.2350 -2.1602  0.9028
  105OSM    H3G10719   3.462  -0.077  10.199  1.7425  1.2855  0.1620
  105OSM    C4F10720   3.563   0.051  10.060  0.6126  0.2198  0.1704
  105OSM    H4F10721   3.631   0.061  10.147 -1.4392 -0.3502  1.9324
  105OSM    H4G10722   3.542   0.148  10.009 -2.5252 -0.3851  0.1089
  105OSM    C5F10723   3.621  -0.049   9.952 -0.8170 -0.4538 -0.1962
  105OSM    H5F10724   3.647  -0.143  10.005 -0.9070  0.6056  1.7962
  105OSM    H5G10725   3.724  -0.016   9.927 -1.5360 -0.3308 -3.5774
  105OSM    C6F10726   3.545  -0.071   9.821  0.1030  0.2274  0.6999
  105OSM    H6F10727   3.464   0.004   9.810 -0.2673 -0.2315  0.2568
  105OSM    H6G10728   3.500  -0.172   9.814  0.8879 -0.2712  2.2754
  105OSM    C7F10729   3.637  -0.037   9.708 -0.0866 -0.9073  0.4187
  105OSM    H7F10730   3.591  -0.073   9.613  1.5483 -3.2600  0.4147
  105OSM    H7G10731   3.722  -0.110   9.715  0.1381 -0.5693  1.2521
  105OSM    C8F10732   3.680   0.107   9.688 -0.3654  0.4319 -1.1825
  105OSM    H8F10733   3.736   0.137   9.780 -1.6410 -2.1665  0.5921
  105OSM    H8G10734   3.595   0.175   9.669 -1.6023 -1.2030 -1.7427
  105OSM    C9F10735   3.777   0.105   9.573 -0.0632 -0.5264  0.0053
  105OSM    H9F10736   3.877   0.064   9.589  1.3815  2.5972 -0.3191
  105OSM   C10F10737   3.757   0.148   9.443 -0.4844 -0.5580 -0.2600
  105OSM   H10F10738   3.834   0.133   9.366 -1.3242  0.6245 -1.3640
  105OSM   C11F10739   3.630   0.211   9.398 -0.0298  0.5853 -0.1187
  105OSM   H11F10740   3.545   0.188   9.467  1.5496 -1.0748  1.3664
  105OSM   H11G10741   3.598   0.172   9.299 -2.1936  1.6727  0.0931
  105OSM   C12F10742   3.625   0.363   9.386  0.8708 -0.0826  0.2524
  105OSM   H12F10743   3.647   0.431   9.472 -3.0347 -0.3712  1.7067
  105OSM   H12G10744   3.518   0.388   9.370  1.7092  2.2931 -2.2878
  105OSM   C13F10745   3.693   0.422   9.254  0.5069  0.5999 -0.0806
  105OSM   H13F10746   3.651   0.369   9.166 -0.5983  1.7060 -0.2509
  105OSM   H13G10747   3.803   0.407   9.259  0.1941 -1.9469  1.8564
  105OSM   C14F10748   3.654   0.572   9.238  0.3079  0.5887  0.0353
  105OSM   H14F10749   3.545   0.582   9.256  0.6783 -1.5066  5.5668
  105OSM   H14G10750   3.675   0.597   9.132 -1.3609  2.5672  0.1184
  105OSM   C15F10751   3.733   0.667   9.324  0.3747  0.0879 -0.4311
  105OSM   H15F10752   3.710   0.635   9.428  1.3546  1.3251  0.1970
  105OSM   H15G10753   3.715   0.775   9.309  0.2556  0.2219  0.6319
  105OSM   C16F10754   3.891   0.664   9.323  0.2405 -0.0459 -0.4902
  105OSM   H16F10755   3.935   0.581   9.382  1.2011  1.5597  1.1927
  105OSM   H16G10756   3.919   0.756   9.380 -1.1036 -0.5925  1.1448
  105OSM   C17F10757   3.955   0.666   9.187 -0.4190 -0.2750 -0.4900
  105OSM   H17F10758   3.918   0.591   9.114  0.2295  0.6423 -1.8036
  105OSM   H17G10759   4.066   0.666   9.193 -0.4227  1.3230  0.0798
  105OSM   C18F10760   3.935   0.809   9.128  0.3170  0.8216  0.2271
  105OSM   H18F10761   3.987   0.825   9.031 -1.3959 -0.1102 -0.9011
  105OSM   H18G10762   3.947   0.887   9.207  0.9875 -0.1099  1.0592
  105OSM   H18H10763   3.827   0.815   9.101 -0.3582 -1.1781  2.2436
  106OSM      N10764   1.972   1.847  11.148  0.5181  0.5518  0.1050
  106OSM    C1510765   1.865   1.934  11.201  0.5098 -0.4076 -0.3044
  106OSM   H15A10766   1.889   1.968  11.300 -0.1024  0.0225 -0.2999
  106OSM   H15B10767   1.778   1.874  11.224 -0.5146  0.4557 -1.7499
  106OSM   H15C10768   1.840   2.022  11.144  1.5089  1.5081  2.0882
  106OSM    C1410769   2.096   1.919  11.159 -0.5376  0.3506  0.2125
  106OSM   H14A10770   2.118   1.935  11.264 -1.6713  1.2276  0.3330
  106OSM   H14B10771   2.080   2.019  11.120  2.2172  1.6372  1.9804
  106OSM   H14C10772   2.184   1.879  11.110  0.4176  2.1077  0.3777
  106OSM    C1310773   1.983   1.722  11.219  0.2067 -0.4172 -0.1200
  106OSM   H13A10774   2.003   1.744  11.323  0.2835 -2.5900  0.3741
  106OSM   H13B10775   2.059   1.661  11.173  1.3805  1.4302 -0.7208
  106OSM   H13C10776   1.885   1.675  11.223  0.5877 -1.1715  0.8921
  106OSM    C1210777   1.949   1.812  11.001 -0.1214 -0.4896 -0.2399
  106OSM   H12A10778   1.918   1.898  10.943 -1.4679 -1.1591 -0.5496
  106OSM   H12B10779   1.861   1.751  10.988  0.0532 -0.3678 -2.3715
  106OSM    C1110780   2.063   1.756  10.913  0.5600 -0.2181 -0.5882
  106OSM   H11A10781   2.143   1.833  10.910  1.3637 -0.9894  0.2723
  106OSM   H11B10782   2.033   1.740  10.807 -1.1608  1.5818 -0.4276
  106OSM      P10783   2.089   1.495  10.914  0.2231  0.3335  0.4363
  106OSM    O1310784   2.172   1.397  10.988 -0.8728  0.0728  0.3631
  106OSM    O1410785   1.941   1.480  10.921  0.0384 -0.8032 -0.6611
  106OSM    O1110786   2.130   1.500  10.767 -0.2907 -0.0673  0.4631
  106OSM    O1210787   2.124   1.637  10.966 -0.3055  0.3353  0.4376
  106OSM    C1S10788   2.270   1.485  10.720  0.4785 -0.6776  0.4670
  106OSM    H1S10789   2.322   1.405  10.776  0.8610 -0.6248  0.1875
  106OSM    H1T10790   2.323   1.580  10.746  1.0774 -0.4788 -1.3781
  106OSM     NF10791   2.377   1.387  10.528  0.0483 -0.2243 -0.0748
  106OSM    HNF10792   2.445   1.441  10.479  0.0951 -1.0163 -0.9166
  106OSM    C2S10793   2.259   1.456  10.571 -0.4749  0.4602  0.0256
  106OSM    H2S10794   2.177   1.387  10.543  0.5009 -0.0797 -1.6305
  106OSM    C3S10795   2.212   1.585  10.497 -0.5409 -0.2197 -0.4619
  106OSM    H3S10796   2.303   1.648  10.507  1.9164 -3.2236 -2.1897
  106OSM     O310797   2.098   1.665  10.550 -0.2978  0.6389  0.0840
  106OSM    HO310798   2.080   1.627  10.636 -0.7924 -2.0298 -1.1026
  106OSM    C4S10799   2.186   1.561  10.351 -0.1380  0.0486 -0.4812
  106OSM    H4S10800   2.126   1.471  10.333  1.5469 -1.2295 -0.0571
  106OSM    C5S10801   2.243   1.630  10.245 -0.4101  0.2119 -0.1878
  106OSM    H5S10802   2.309   1.716  10.266 -2.4445  1.3640  1.9009
  106OSM    C6S10803   2.224   1.616  10.097  0.4612  0.9756 -0.1210
  106OSM    H6S10804   2.259   1.711  10.052 -1.8306  1.8398 -0.2435
  106OSM    H6T10805   2.116   1.604  10.075  0.6078  1.2935 -1.0558
  106OSM    C7S10806   2.288   1.491  10.032 -0.0757  0.0788 -0.3086
  106OSM    H7S10807   2.242   1.394  10.060  1.3099 -1.3539 -2.6247
  106OSM    H7T10808   2.397   1.492  10.054  0.2675  3.5608 -1.4549
  106OSM    C8S10809   2.280   1.503   9.876  0.5301 -0.4467 -0.6157
  106OSM    H8S10810   2.346   1.585   9.842 -0.1542  0.6070  0.5000
  106OSM    H8T10811   2.173   1.529   9.862  0.2036  0.1527  2.3877
  106OSM    C9S10812   2.308   1.370   9.807 -0.3532 -0.3194  0.4555
  106OSM    H9S10813   2.216   1.308   9.815  0.2241 -1.1272  1.0257
  106OSM    H9T10814   2.392   1.313   9.854  0.6218  1.1432  0.5259
  106OSM   C10S10815   2.354   1.390   9.664 -0.1093  0.1343  0.6511
  106OSM   H10S10816   2.388   1.292   9.622 -1.0558  0.2051 -0.3273
  106OSM   H10T10817   2.449   1.448   9.664  1.1574 -1.7352 -1.8845
  106OSM   C11S10818   2.246   1.450   9.581 -0.2711 -0.4979 -0.0187
  106OSM   H11S10819   2.202   1.533   9.640  0.1785 -0.2262 -0.0612
  106OSM   H11T10820   2.158   1.385   9.561 -0.2980 -0.3794 -0.2832
  106OSM   C12S10821   2.307   1.505   9.449 -0.4923  0.4624 -0.1201
  106OSM   H12S10822   2.360   1.431   9.386  2.2288  0.3970  2.0364
  106OSM   H12T10823   2.377   1.587   9.474  1.9388 -1.7988  0.9290
  106OSM   C13S10824   2.196   1.581   9.371 -0.1596  0.1905 -0.1436
  106OSM   H13S10825   2.160   1.652   9.449 -1.3274  0.7493 -1.1699
  106OSM   H13T10826   2.118   1.508   9.342  0.7910 -1.1703  0.6083
  106OSM   C14S10827   2.235   1.653   9.250  1.0418  0.3623 -0.5321
  106OSM   H14S10828   2.276   1.582   9.176 -1.4703 -2.2702  0.4092
  106OSM   H14T10829   2.311   1.731   9.273 -0.4329  1.4365  0.9163
  106OSM   C15S10830   2.115   1.733   9.189  0.1160  0.7684 -0.0437
  106OSM   H15S10831   2.070   1.783   9.278 -1.2114 -2.1921  1.0560
  106OSM   H15T10832   2.036   1.662   9.156  0.2014  0.4537  0.4312
  106OSM   C16S10833   2.157   1.832   9.079 -0.3095  0.7353 -0.4305
  106OSM   H16S10834   2.188   1.761   8.999  1.1561 -1.0118  1.5852
  106OSM   H16T10835   2.244   1.894   9.107  0.1040  0.2721 -0.6709
  106OSM   C17S10836   2.040   1.920   9.027  0.4527  0.4398  0.0176
  106OSM   H17S10837   2.004   1.978   9.114 -1.0570  0.4506 -0.5958
  106OSM   H17T10838   1.967   1.842   8.995  1.8661 -0.3414 -1.4630
  106OSM   C18S10839   2.071   2.021   8.923 -0.2882 -0.9579  0.4633
  106OSM   H18S10840   1.980   2.072   8.884  0.4143 -0.6028 -0.7610
  106OSM   H18T10841   2.138   1.984   8.843 -1.6245 -1.9833 -0.2319
  106OSM   H18U10842   2.133   2.104   8.965 -1.2687  0.2345 -0.3802
  106OSM    C1F10843   2.414   1.269  10.576 -0.6312  0.5855 -0.1397
  106OSM     OF10844   2.335   1.198  10.635 -0.5400 -0.1408 -0.1942
  106OSM    C2F10845   2.560   1.234  10.561 -0.5908 -0.9964 -0.1773
  106OSM    H2F10846   2.613   1.193  10.649  2.1964  1.0911 -0.7124
  106OSM    H2G10847   2.622   1.323  10.534 -1.6667  0.3876  1.6310
  106OSM    C3F10848   2.582   1.122  10.453  0.0408  0.4436  0.2898
  106OSM    H3F10849   2.526   1.036  10.494 -1.0676  0.9261 -0.1582
  106OSM    H3G10850   2.690   1.096  10.454 -0.2303 -0.7015  1.4444
  106OSM    C4F10851   2.535   1.153  10.304  0.3454  0.1676  0.2973
  106OSM    H4F10852   2.426   1.168  10.293  0.5342  2.2734  0.8962
  106OSM    H4G10853   2.548   1.059  10.245 -0.4725  0.2155  0.0416
  106OSM    C5F10854   2.611   1.277  10.255  0.2082 -0.3990  0.3511
  106OSM    H5F10855   2.715   1.273  10.295 -0.5858 -0.1474  2.5826
  106OSM    H5G10856   2.556   1.366  10.291  0.1826 -0.5147  0.6011
  106OSM    C6F10857   2.616   1.272  10.099 -0.3728 -0.3922  0.2344
  106OSM    H6F10858   2.650   1.371  10.061  1.4943 -0.4042  1.7196
  106OSM    H6G10859   2.513   1.260  10.058  0.5062  1.3834 -2.8496
  106OSM    C7F10860   2.709   1.172  10.031  0.3447 -0.7126  0.3095
  106OSM    H7F10861   2.667   1.071  10.050  0.1286 -0.8814 -0.9938
  106OSM    H7G10862   2.811   1.180  10.074  0.5797 -0.9863 -0.1898
  106OSM    C8F10863   2.716   1.197   9.881  0.2508  0.1213  0.1056
  106OSM    H8F10864   2.757   1.299   9.866 -0.5536  0.3633 -0.5191
  106OSM    H8G10865   2.613   1.189   9.840 -0.5160  0.7837  1.8137
  106OSM    C9F10866   2.800   1.101   9.801 -0.0680  0.4815  0.2293
  106OSM    H9F10867   2.844   1.014   9.852  1.3314  2.2200  2.1624
  106OSM   C10F10868   2.818   1.117   9.668 -0.0249  0.2300 -0.0104
  106OSM   H10F10869   2.895   1.051   9.624 -1.8352 -1.5169 -0.6806
  106OSM   C11F10870   2.768   1.231   9.573  0.0322  0.4048  0.9367
  106OSM   H11F10871   2.803   1.334   9.594  2.1271 -0.4780  2.0661
  106OSM   H11G10872   2.658   1.230   9.588 -0.1383  0.3069 -0.2433
  106OSM   C12F10873   2.792   1.195   9.421  0.0034 -1.0456 -0.0857
  106OSM   H12F10874   2.751   1.096   9.392  0.7415 -0.9990 -1.3667
  106OSM   H12G10875   2.900   1.192   9.397  0.3202 -2.8956  1.3036
  106OSM   C13F10876   2.713   1.293   9.327 -0.0170  0.5463 -0.1262
  106OSM   H13F10877   2.790   1.369   9.304  1.4705 -0.3459  1.6393
  106OSM   H13G10878   2.628   1.333   9.387 -1.1584  1.2503 -2.1505
  106OSM   C14F10879   2.651   1.227   9.203 -0.2239  0.0138  0.6330
  106OSM   H14F10880   2.589   1.136   9.217  2.0307 -1.9328 -1.0142
  106OSM   H14G10881   2.729   1.213   9.125 -0.5139 -2.2712  0.7035
  106OSM   C15F10882   2.553   1.326   9.124 -0.5563  0.1160  0.1190
  106OSM   H15F10883   2.455   1.344   9.173 -0.2109 -1.2794  1.4073
  106OSM   H15G10884   2.522   1.277   9.030 -0.7292  1.6246 -0.6452
  106OSM   C16F10885   2.613   1.466   9.093 -0.6650  0.1156  0.6579
  106OSM   H16F10886   2.717   1.459   9.054  0.0180  2.9343  1.7080
  106OSM   H16G10887   2.608   1.533   9.182  1.2030  0.9047  0.2222
  106OSM   C17F10888   2.530   1.542   8.978  0.1034  0.1107  0.1333
  106OSM   H17F10889   2.423   1.542   9.006  0.1371  0.3785  0.2663
  106OSM   H17G10890   2.556   1.473   8.895  3.7018 -0.5286  1.5682
  106OSM   C18F10891   2.580   1.682   8.964 -0.0603  0.1062 -0.4017
  106OSM   H18F10892   2.520   1.737   8.888 -1.6577 -1.4780 -0.3580
  106OSM   H18G10893   2.684   1.691   8.926 -0.0240  0.9887 -0.1037
  106OSM   H18H10894   2.578   1.735   9.062  2.6824 -0.7745  0.2041
  107OSM      N10895   6.644   3.158  11.134 -0.5230 -0.0317  0.6645
  107OSM    C1510896   6.551   3.122  11.027  0.0671  0.3992 -0.0955
  107OSM   H15A10897   6.547   3.014  11.023  2.9663  0.1850  1.0455
  107OSM   H15B10898   6.582   3.158  10.930  2.2246 -2.2061 -0.4843
  107OSM   H15C10899   6.452   3.166  11.038 -0.3784 -0.5967 -0.0014
  107OSM    C1410900   6.563   3.134  11.261  0.0462 -0.2911 -0.2857
  107OSM   H14A10901   6.507   3.043  11.277  1.8075 -1.1895  1.2847
  107OSM   H14B10902   6.496   3.217  11.276  0.6082 -0.1402  1.6732
  107OSM   H14C10903   6.634   3.140  11.343  0.2748  4.1723 -0.5946
  107OSM    C1310904   6.754   3.063  11.145 -0.0860 -0.3258 -0.0434
  107OSM   H13A10905   6.837   3.078  11.078  0.0376 -0.5026  0.0702
  107OSM   H13B10906   6.722   2.961  11.135 -0.4933 -0.1942 -0.0947
  107OSM   H13C10907   6.792   3.066  11.246  0.2682  3.5510 -0.1351
  107OSM    C1210908   6.683   3.309  11.124  0.3821  0.4652 -0.6858
  107OSM   H12A10909   6.741   3.331  11.211 -0.1568 -2.9139  0.6650
  107OSM   H12B10910   6.590   3.364  11.136 -0.6774 -1.2667 -0.5358
  107OSM    C1110911   6.752   3.354  11.000 -0.2020 -0.3710  0.4679
  107OSM   H11A10912   6.843   3.293  10.976  1.2254  1.4385  1.0525
  107OSM   H11B10913   6.792   3.456  11.016 -1.9969  0.2843  0.9014
  107OSM      P10914   6.553   3.450  10.863 -0.0583 -0.0237  0.1435
  107OSM    O1310915   6.479   3.413  10.742 -0.3971  0.3925 -0.8728
  107OSM    O1410916   6.471   3.456  10.982  0.0382  0.4715 -0.1636
  107OSM    O1110917   6.625   3.585  10.841  0.2545  0.2830 -0.2185
  107OSM    O1210918   6.670   3.347  10.886  0.5549  0.0275  0.5985
  107OSM    C1S10919   6.741   3.586  10.751 -0.0207 -0.3559  0.0625
  107OSM    H1S10920   6.790   3.487  10.740 -2.1305 -1.7193  2.0704
  107OSM    H1T10921   6.811   3.658  10.797  0.1661  0.5318 -1.5269
  107OSM     NF10922   6.832   3.616  10.518  0.7464 -0.8388  0.0422
  107OSM    HNF10923   6.896   3.692  10.506 -0.5803  0.3613  0.4080
  107OSM    C2S10924   6.721   3.649  10.611 -0.7098  0.5590 -0.0115
  107OSM    H2S10925   6.629   3.598  10.574 -1.9488 -0.2213  3.7248
  107OSM    C3S10926   6.696   3.802  10.636 -0.0373  0.6839 -0.4621
  107OSM    H3S10927   6.792   3.838  10.677  0.1613 -0.6653  0.3254
  107OSM     O310928   6.593   3.827  10.730  0.4093  0.4012  0.9080
  107OSM    HO310929   6.563   3.741  10.761  0.9155  0.3335  1.2366
  107OSM    C4S10930   6.671   3.892  10.516  0.3472 -0.6141  0.3066
  107OSM    H4S10931   6.568   3.895  10.479  0.9153 -1.9334 -1.5214
  107OSM    C5S10932   6.757   3.978  10.445 -0.1283 -0.0326 -0.0753
  107OSM    H5S10933   6.861   3.981  10.480  0.4785 -3.1692 -1.2565
  107OSM    C6S10934   6.700   4.068  10.337  1.2913 -0.2895  0.0360
  107OSM    H6S10935   6.769   4.056  10.251  0.9921 -0.4483 -0.1847
  107OSM    H6T10936   6.705   4.175  10.364 -2.1378  0.2391 -0.8499
  107OSM    C7S10937   6.560   4.057  10.269 -0.4550  0.1142 -0.4293
  107OSM    H7S10938   6.503   4.096  10.356  1.2052  1.3560  0.1618
  107OSM    H7T10939   6.520   3.956  10.246 -1.0638  0.2982 -0.1799
  107OSM    C8S10940   6.534   4.152  10.151  0.2083 -0.0182 -0.0435
  107OSM    H8S10941   6.557   4.257  10.180  0.2947 -0.2913  0.9097
  107OSM    H8T10942   6.434   4.144  10.103 -0.0210 -1.0948  0.5904
  107OSM    C9S10943   6.620   4.118  10.020 -0.6375  0.4029 -0.5959
  107OSM    H9S10944   6.586   4.014  10.002  0.8316 -0.8253  2.7750
  107OSM    H9T10945   6.730   4.111  10.037 -0.6953 -1.2181 -0.7048
  107OSM   C10S10946   6.591   4.192   9.899 -0.6124 -0.8130 -0.6765
  107OSM   H10S10947   6.631   4.296   9.899  2.8194 -2.0052 -1.9720
  107OSM   H10T10948   6.484   4.189   9.871 -1.7394 -0.0596  2.9950
  107OSM   C11S10949   6.666   4.124   9.778 -0.1110 -0.4236 -0.2282
  107OSM   H11S10950   6.634   4.019   9.758 -1.8232  0.0606 -0.1865
  107OSM   H11T10951   6.765   4.128   9.829 -0.3446  0.1574  0.1890
  107OSM   C12S10952   6.648   4.213   9.652  0.0465  0.3767  0.0384
  107OSM   H12S10953   6.694   4.312   9.673  0.6782 -0.1315  1.1525
  107OSM   H12T10954   6.539   4.211   9.630  0.0714 -0.7146 -0.0374
  107OSM   C13S10955   6.734   4.153   9.543  1.0169 -0.3066  1.1881
  107OSM   H13S10956   6.692   4.056   9.510 -0.2533  0.6516 -0.1401
  107OSM   H13T10957   6.841   4.130   9.567  1.0209 -1.8143 -0.0846
  107OSM   C14S10958   6.732   4.242   9.414 -0.3579 -0.0492  0.0903
  107OSM   H14S10959   6.783   4.335   9.447 -1.2880  0.3234  0.5175
  107OSM   H14T10960   6.627   4.276   9.401 -0.3744  1.1688  2.7306
  107OSM   C15S10961   6.793   4.181   9.287 -0.1931 -0.2501  0.6622
  107OSM   H15S10962   6.774   4.073   9.306 -2.3786  0.3221  2.1609
  107OSM   H15T10963   6.902   4.201   9.293  0.3820 -3.2013  3.7612
  107OSM   C16S10964   6.742   4.242   9.155  0.4891  0.2171  0.1574
  107OSM   H16S10965   6.713   4.347   9.180  1.5374  0.8343 -1.0762
  107OSM   H16T10966   6.653   4.180   9.133  1.1835 -0.2161 -1.6143
  107OSM   C17S10967   6.839   4.244   9.046 -0.3093  1.1262 -0.4602
  107OSM   H17S10968   6.886   4.144   9.039  1.8069  1.9969  0.4126
  107OSM   H17T10969   6.919   4.313   9.080  0.3117  1.0087 -1.6513
  107OSM   C18S10970   6.782   4.286   8.914  0.8493 -0.3309 -0.6863
  107OSM   H18S10971   6.688   4.241   8.876 -1.2037  2.8073  0.3575
  107OSM   H18T10972   6.858   4.267   8.835  0.9250 -2.8152 -0.1106
  107OSM   H18U10973   6.766   4.395   8.926 -2.2124 -0.7136 -0.5745
  107OSM    C1F10974   6.856   3.499  10.465 -0.3749 -1.0136 -0.0760
  107OSM     OF10975   6.794   3.398  10.497  0.2122 -0.1547 -0.2520
  107OSM    C2F10976   6.963   3.486  10.363  0.1341  0.4900 -0.5858
  107OSM    H2F10977   7.056   3.537  10.396 -1.3986  2.6313  0.7102
  107OSM    H2G10978   6.928   3.544  10.276 -1.1305  0.7951  0.0923
  107OSM    C3F10979   6.991   3.339  10.324  0.3125 -0.6382  0.0263
  107OSM    H3F10980   6.899   3.284  10.293 -0.7419  1.4147 -0.7063
  107OSM    H3G10981   7.040   3.289  10.410  2.4106  3.6784  1.6224
  107OSM    C4F10982   7.075   3.324  10.199 -0.7990 -1.2100 -0.3170
  107OSM    H4F10983   7.104   3.218  10.183  0.3368 -0.5276 -3.5833
  107OSM    H4G10984   7.175   3.369  10.214 -0.2060 -2.8239  0.9146
  107OSM    C5F10985   6.996   3.378  10.087 -0.4864  0.0120  0.5480
  107OSM    H5F10986   7.001   3.489  10.077  0.0807  0.0122  0.8069
  107OSM    H5G10987   6.888   3.353  10.092 -0.8095  0.9696 -0.7790
  107OSM    C6F10988   7.047   3.314   9.955  0.1823  0.3666 -0.4881
  107OSM    H6F10989   6.993   3.217   9.944 -0.8085  0.4780  2.4618
  107OSM    H6G10990   7.152   3.281   9.965 -0.1831 -0.8605 -0.5838
  107OSM    C7F10991   7.036   3.407   9.830  0.0493 -0.0607  0.3181
  107OSM    H7F10992   7.108   3.490   9.844  0.2260 -0.2951  0.8605
  107OSM    H7G10993   6.936   3.454   9.817 -0.1590 -1.1056 -2.4542
  107OSM    C8F10994   7.071   3.343   9.692  0.0871 -0.1285  0.5649
  107OSM    H8F10995   7.071   3.409   9.603 -0.1089 -2.4442 -1.2247
  107OSM    H8G10996   7.002   3.258   9.673 -4.7948  3.6831 -0.6874
  107OSM    C9F10997   7.213   3.286   9.699 -0.5857  0.3119 -0.1343
  107OSM    H9F10998   7.252   3.250   9.796 -1.4995  1.8101  0.8360
  107OSM   C10F10999   7.304   3.308   9.604  0.5785  0.1048 -0.3028
  107OSM   H10F11000   7.397   3.260   9.639 -0.7155 -1.5997  1.0149
  107OSM   C11F11001   7.298   3.371   9.472  0.1286 -0.3071 -0.0755
  107OSM   H11F11002   7.405   3.392   9.449  0.2488  0.6310  1.2008
  107OSM   H11G11003   7.260   3.476   9.475  0.0993 -0.3233  0.1473
  107OSM   C12F11004   7.232   3.298   9.364  0.2992 -0.1691  0.4620
  107OSM   H12F11005   7.228   3.190   9.389 -1.0949 -0.2852 -0.1798
  107OSM   H12G11006   7.295   3.299   9.272  0.4656  0.0665  0.5769
  107OSM   C13F11007   7.095   3.360   9.330 -0.5669 -0.0864  0.0183
  107OSM   H13F11008   7.107   3.465   9.296  0.5775 -0.4817 -0.8578
  107OSM   H13G11009   7.043   3.367   9.429  0.1110  1.6623  0.2974
  107OSM   C14F11010   6.999   3.282   9.241 -0.1691  0.0543 -0.5799
  107OSM   H14F11011   6.910   3.346   9.219  0.5261  1.5792  0.8228
  107OSM   H14G11012   6.966   3.191   9.296  0.0141  1.9853  3.0146
  107OSM   C15F11013   7.047   3.243   9.106  0.1707 -0.1598  0.1588
  107OSM   H15F11014   6.968   3.176   9.065 -0.1401  0.7532 -0.7791
  107OSM   H15G11015   7.146   3.192   9.104 -0.2683 -1.0379 -1.6915
  107OSM   C16F11016   7.048   3.356   8.995  0.8680 -0.2589  0.1952
  107OSM   H16F11017   7.130   3.425   9.022  0.9824 -0.7694  1.2112
  107OSM   H16G11018   6.947   3.398   9.015  0.0271 -1.8154 -0.5489
  107OSM   C17F11019   7.074   3.312   8.848  0.9139  0.5052 -0.2513
  107OSM   H17F11020   7.183   3.298   8.839  1.1528  0.8379  1.5902
  107OSM   H17G11021   7.039   3.400   8.790  1.7433 -0.0244 -1.5749
  107OSM   C18F11022   6.998   3.186   8.807 -0.1943  0.1861 -0.2818
  107OSM   H18F11023   7.030   3.093   8.860  0.3050  0.2667 -0.4342
  107OSM   H18G11024   7.017   3.173   8.698  0.1436  1.3625 -0.3797
  107OSM   H18H11025   6.891   3.197   8.833 -0.2394 -3.0306  1.3505
  108OSM      N11026   2.910   6.664  11.140  1.1764  0.3615  0.0478
  108OSM    C1511027   2.868   6.579  11.246  0.7665 -0.6256 -0.1953
  108OSM   H15A11028   2.761   6.567  11.251  0.6284  0.9822  3.1258
  108OSM   H15B11029   2.894   6.638  11.332  2.9763  1.4133 -2.1208
  108OSM   H15C11030   2.902   6.476  11.241 -1.1641 -1.5783  3.0898
  108OSM    C1411031   2.844   6.798  11.157  0.0766 -0.1165 -0.3117
  108OSM   H14A11032   2.866   6.875  11.085 -0.8824 -0.8768 -1.4539
  108OSM   H14B11033   2.874   6.839  11.253 -0.0336  0.5627 -0.5652
  108OSM   H14C11034   2.737   6.789  11.153  0.0526  0.4250 -0.9485
  108OSM    C1311035   3.059   6.680  11.155  0.2839 -0.0376 -0.4223
  108OSM   H13A11036   3.090   6.731  11.245 -1.6979 -1.3513  1.0966
  108OSM   H13B11037   3.103   6.740  11.077 -1.5755  1.2752 -0.5458
  108OSM   H13C11038   3.097   6.579  11.160  1.4027  0.4252  1.9831
  108OSM    C1211039   2.872   6.619  11.000  0.4596  0.1656  0.0560
  108OSM   H12A11040   2.886   6.702  10.933  0.4925  1.2074  1.2957
  108OSM   H12B11041   2.766   6.599  11.006  0.3759  0.3814 -0.6591
  108OSM    C1111042   2.944   6.496  10.932  0.3270  0.8671  0.0672
  108OSM   H11A11043   3.051   6.524  10.926  0.3784  0.6912  0.1552
  108OSM   H11B11044   2.902   6.484  10.829 -1.4519 -0.1864  0.8546
  108OSM      P11045   2.809   6.284  10.994 -0.3474  0.0245 -0.1421
  108OSM    O1311046   2.789   6.186  11.105  1.0795  0.0225  0.5901
  108OSM    O1411047   2.698   6.360  10.940  0.0580 -0.0336  0.1037
  108OSM    O1111048   2.870   6.200  10.878  0.6451  0.2595  0.4816
  108OSM    O1211049   2.932   6.377  11.009  0.9276 -0.2677 -0.0424
  108OSM    C1S11050   2.795   6.110  10.791  0.1253  0.4448 -0.1466
  108OSM    H1S11051   2.702   6.083  10.844 -0.6715  2.7998 -0.2424
  108OSM    H1T11052   2.856   6.021  10.763  2.3515  0.7364  3.2084
  108OSM     NF11053   2.667   6.062  10.580  0.3611 -0.0757 -0.5354
  108OSM    HNF11054   2.712   6.004  10.512  0.7671 -1.5761  0.9712
  108OSM    C2S11055   2.754   6.164  10.652  1.1160 -0.2160  1.1015
  108OSM    H2S11056   2.699   6.260  10.657 -1.0932 -1.3006 -0.4232
  108OSM    C3S11057   2.883   6.194  10.570  0.4572 -0.3222  0.8223
  108OSM    H3S11058   2.951   6.106  10.572 -0.9622 -1.4406  1.4488
  108OSM     O311059   2.964   6.297  10.620  0.4317  0.1868 -0.2008
  108OSM    HO311060   2.910   6.312  10.698 -0.8475 -2.5565 -0.4518
  108OSM    C4S11061   2.845   6.227  10.417 -0.2076  0.4012 -0.5045
  108OSM    H4S11062   2.828   6.131  10.365 -2.6729  1.8208 -2.5500
  108OSM    C5S11063   2.830   6.343  10.352 -0.3007 -0.6572 -0.0958
  108OSM    H5S11064   2.864   6.433  10.405 -1.0674  0.7726 -1.9549
  108OSM    C6S11065   2.788   6.371  10.205 -0.4637  0.4102  0.4534
  108OSM    H6S11066   2.861   6.440  10.158  0.2563 -1.6270 -1.6203
  108OSM    H6T11067   2.683   6.408  10.200 -1.0602 -1.3460 -2.1607
  108OSM    C7S11068   2.783   6.244  10.121  0.2340 -0.1784 -0.1664
  108OSM    H7S11069   2.713   6.171  10.168  0.6534 -1.2333 -1.1140
  108OSM    H7T11070   2.887   6.207  10.117  1.2660  2.5518 -0.1932
  108OSM    C8S11071   2.739   6.270   9.975  0.0402  0.0047  0.1452
  108OSM    H8S11072   2.806   6.352   9.940  2.7165 -2.2369 -0.3126
  108OSM    H8T11073   2.637   6.308   9.997  0.9921  3.3301 -0.5259
  108OSM    C9S11074   2.742   6.156   9.873 -0.1805  0.2172 -0.0841
  108OSM    H9S11075   2.686   6.068   9.912  1.6463 -1.5678 -1.2578
  108OSM    H9T11076   2.850   6.137   9.856  0.2255  1.1441  1.2596
  108OSM   C10S11077   2.681   6.206   9.742 -0.3093 -0.1806  0.3233
  108OSM   H10S11078   2.724   6.306   9.716 -0.8832 -0.2484 -0.9569
  108OSM   H10T11079   2.575   6.229   9.766 -0.2016  0.5989  0.1093
  108OSM   C11S11080   2.699   6.100   9.635  0.2036  0.3758  0.0059
  108OSM   H11S11081   2.645   6.012   9.677 -0.1098 -1.0568 -3.1210
  108OSM   H11T11082   2.809   6.084   9.637 -0.2233 -3.6472  0.3642
  108OSM   C12S11083   2.638   6.124   9.504 -0.2872 -0.6448  1.1819
  108OSM   H12S11084   2.684   6.211   9.453  0.2146 -1.3014  0.4901
  108OSM   H12T11085   2.531   6.143   9.527 -1.1759 -1.0323 -2.1389
  108OSM   C13S11086   2.643   6.008   9.407 -0.5864 -0.2436  0.5384
  108OSM   H13S11087   2.594   5.914   9.439 -1.2533 -0.4252 -0.9312
  108OSM   H13T11088   2.747   5.983   9.378 -0.5674 -1.4327  1.5705
  108OSM   C14S11089   2.562   6.028   9.276  0.0439 -0.1466 -0.0565
  108OSM   H14S11090   2.572   5.940   9.209 -0.3320 -0.6408  0.5274
  108OSM   H14T11091   2.601   6.111   9.213  0.7648 -1.1535 -1.0019
  108OSM   C15S11092   2.412   6.053   9.292  0.3199  0.2910  0.0988
  108OSM   H15S11093   2.376   6.139   9.353  1.3352  0.2248  0.8143
  108OSM   H15T11094   2.372   5.970   9.355  1.9552  0.4347  1.3849
  108OSM   C16S11095   2.335   6.065   9.154 -0.6519  0.5922  0.3780
  108OSM   H16S11096   2.348   5.970   9.099 -1.0802  1.7301 -1.7919
  108OSM   H16T11097   2.391   6.147   9.104 -0.3498 -0.0393 -0.3213
  108OSM   C17S11098   2.185   6.099   9.161 -0.7184 -0.2450 -0.0942
  108OSM   H17S11099   2.183   6.209   9.172  0.0934 -0.0964 -1.2478
  108OSM   H17T11100   2.133   6.059   9.250 -0.2357 -0.1042  0.2526
  108OSM   C18S11101   2.109   6.070   9.036  0.0334  0.3596  0.5030
  108OSM   H18S11102   2.011   6.123   9.031  0.4331  0.9941 -2.6707
  108OSM   H18T11103   2.087   5.961   9.026 -0.6479  0.6083 -1.1399
  108OSM   H18U11104   2.149   6.102   8.938 -2.7264 -0.4661 -1.0006
  108OSM    C1F11105   2.536   6.026  10.600 -0.4012  0.1923 -0.2864
  108OSM     OF11106   2.468   6.069  10.690 -0.5266  0.5474 -0.3163
  108OSM    C2F11107   2.489   5.932  10.497 -0.6851  0.6658  0.2994
  108OSM    H2F11108   2.571   5.871  10.455 -0.0540  0.8333  1.2623
  108OSM    H2G11109   2.455   5.987  10.407 -2.5364 -0.8690 -0.0173
  108OSM    C3F11110   2.386   5.823  10.536  0.2291 -0.0345 -0.2084
  108OSM    H3F11111   2.281   5.858  10.539 -0.1816 -0.9061 -2.5895
  108OSM    H3G11112   2.404   5.793  10.641  1.0517  1.0416 -0.0158
  108OSM    C4F11113   2.391   5.696  10.450 -0.7369 -0.0242 -0.0042
  108OSM    H4F11114   2.318   5.630  10.501 -0.2923 -0.9556 -0.5472
  108OSM    H4G11115   2.485   5.637  10.459 -0.9244 -0.1405  1.4229
  108OSM    C5F11116   2.349   5.722  10.304  0.5547 -0.2525  0.7268
  108OSM    H5F11117   2.422   5.783  10.247 -1.1583  0.7902 -0.4166
  108OSM    H5G11118   2.244   5.757  10.305 -0.2428 -2.0117 -3.0827
  108OSM    C6F11119   2.327   5.589  10.231 -0.7396  0.4954  0.0782
  108OSM    H6F11120   2.283   5.523  10.309 -0.9380  1.7278  1.0355
  108OSM    H6G11121   2.428   5.547  10.207 -1.1004 -0.4933  0.2484
  108OSM    C7F11122   2.244   5.612  10.107 -0.0041  0.1850  0.8785
  108OSM    H7F11123   2.308   5.658  10.029 -0.5638 -2.2642 -1.1714
  108OSM    H7G11124   2.167   5.684  10.142  0.0467  1.2636 -1.0895
  108OSM    C8F11125   2.177   5.485  10.052 -0.1575 -0.8109  0.1980
  108OSM    H8F11126   2.112   5.524   9.970 -0.0724 -0.2252  0.4014
  108OSM    H8G11127   2.109   5.446  10.131 -0.7738  1.3226  0.8094
  108OSM    C9F11128   2.277   5.388  10.011 -0.4926 -0.4276  1.0425
  108OSM    H9F11129   2.313   5.311  10.081 -0.0006 -1.0270  0.1553
  108OSM   C10F11130   2.324   5.377   9.886  0.0142 -1.0348  0.0308
  108OSM   H10F11131   2.408   5.313   9.853  2.4369  2.5667 -1.5336
  108OSM   C11F11132   2.293   5.472   9.769 -0.0482 -0.1099 -0.3881
  108OSM   H11F11133   2.395   5.512   9.753  1.4774 -3.0824  1.2769
  108OSM   H11G11134   2.226   5.556   9.798  1.3336 -0.5853  5.4906
  108OSM   C12F11135   2.248   5.402   9.639  0.5277  0.5643  0.2098
  108OSM   H12F11136   2.314   5.318   9.610  0.5940  0.5255  0.4723
  108OSM   H12G11137   2.256   5.473   9.553  2.4453 -1.1155 -1.0940
  108OSM   C13F11138   2.098   5.356   9.635 -0.3685 -0.3479  0.2465
  108OSM   H13F11139   2.040   5.434   9.688  1.1067  1.4307 -0.6518
  108OSM   H13G11140   2.085   5.262   9.693 -1.1864  0.5621  1.5977
  108OSM   C14F11141   2.061   5.339   9.481 -0.4397 -0.4785 -0.4047
  108OSM   H14F11142   2.123   5.256   9.442 -2.1391 -1.5395 -0.9691
  108OSM   H14G11143   2.089   5.425   9.418  0.9779 -0.6751 -0.0838
  108OSM   C15F11144   1.908   5.333   9.459  0.1746  0.2302  0.0390
  108OSM   H15F11145   1.868   5.425   9.506  0.7932  0.6591 -0.2682
  108OSM   H15G11146   1.873   5.235   9.498  0.4301  0.3181  0.4924
  108OSM   C16F11147   1.863   5.342   9.310 -0.1066  0.5267  0.2963
  108OSM   H16F11148   1.892   5.444   9.274  1.8460 -0.2745 -0.5347
  108OSM   H16G11149   1.755   5.317   9.296  0.4124 -1.5247 -0.2826
  108OSM   C17F11150   1.939   5.233   9.221 -0.5989  0.1325 -0.5230
  108OSM   H17F11151   1.923   5.135   9.271 -0.3099 -1.4750 -3.4093
  108OSM   H17G11152   2.049   5.245   9.209 -0.4539 -1.1856 -0.6281
  108OSM   C18F11153   1.897   5.229   9.071 -0.2257 -0.3193 -0.2733
  108OSM   H18F11154   1.936   5.315   9.013  2.8245  0.1529  2.1978
  108OSM   H18G11155   1.786   5.220   9.061 -0.2448 -2.8394  1.2317
  108OSM   H18H11156   1.925   5.130   9.029 -0.9909 -1.2687  1.3353
  109OSM      N11157   0.816   1.558  10.959  0.8648  0.6090  0.0466
  109OSM    C1511158   0.876   1.483  10.841  0.5605 -0.5478 -0.1067
  109OSM   H15A11159   0.822   1.487  10.748 -0.8113 -2.1755  0.5727
  109OSM   H15B11160   0.881   1.380  10.873 -1.3760 -0.0950  1.8894
  109OSM   H15C11161   0.970   1.520  10.803 -0.3933 -0.0302 -2.1260
  109OSM    C1411162   0.820   1.701  10.931  0.6901 -0.1853 -0.2019
  109OSM   H14A11163   0.786   1.752  11.020  2.0929  1.9875 -0.8204
  109OSM   H14B11164   0.755   1.719  10.847  0.0776 -0.7867  0.1313
  109OSM   H14C11165   0.918   1.744  10.913  1.0917 -0.3730  1.3650
  109OSM    C1311166   0.681   1.507  10.975  0.4332 -0.1101  0.1436
  109OSM   H13A11167   0.630   1.566  11.050  0.2705  1.0723 -0.8689
  109OSM   H13B11168   0.682   1.403  11.004  2.9561  0.1078  1.0927
  109OSM   H13C11169   0.620   1.511  10.886 -1.4756 -0.4243  1.3565
  109OSM    C1211170   0.893   1.529  11.090  0.4745 -0.0994  0.1522
  109OSM   H12A11171   0.872   1.616  11.150  0.2601 -0.7117  0.9802
  109OSM   H12B11172   1.001   1.529  11.078  0.5846  0.1692  1.0734
  109OSM    C1111173   0.867   1.395  11.168  0.0200  0.0150  0.4774
  109OSM   H11A11174   0.759   1.372  11.181  0.3718 -1.9302  0.3378
  109OSM   H11B11175   0.908   1.403  11.271  0.3330 -2.2771  0.5914
  109OSM      P11176   1.065   1.252  11.077 -0.0119 -0.2144  0.0908
  109OSM    O1311177   1.091   1.156  10.972  0.2658 -0.1951  0.2409
  109OSM    O1411178   1.133   1.381  11.061  0.4437  0.4973 -0.1729
  109OSM    O1111179   1.121   1.187  11.205 -0.1584 -0.0754 -0.7252
  109OSM    O1211180   0.919   1.279  11.094 -0.0533 -0.7295  0.2317
  109OSM    C1S11181   1.041   1.127  11.308 -0.0482  0.0834 -0.2874
  109OSM    H1S11182   0.932   1.120  11.288 -0.0296 -0.5878 -0.1909
  109OSM    H1T11183   1.058   1.181  11.403  2.7753 -2.1196  0.6248
  109OSM     NF11184   0.999   0.910  11.422  0.1613  0.3153 -0.2442
  109OSM    HNF11185   1.033   0.912  11.515 -0.1679  4.3793 -0.0052
  109OSM    C2S11186   1.093   0.983  11.334  0.1090 -0.3783 -0.4607
  109OSM    H2S11187   1.098   0.926  11.238  0.8880  1.9970 -1.9199
  109OSM    C3S11188   1.247   0.985  11.384 -0.8255 -0.5773  0.4578
  109OSM    H3S11189   1.246   1.035  11.483 -2.1887  0.1739  0.0926
  109OSM     O311190   1.339   1.067  11.307  0.0676  0.6883 -0.4805
  109OSM    HO311191   1.278   1.111  11.247 -0.1757  2.9535  1.3238
  109OSM    C4S11192   1.303   0.841  11.392  0.0500  0.0637 -0.6294
  109OSM    H4S11193   1.308   0.796  11.292  2.0292 -0.0330 -0.5149
  109OSM    C5S11194   1.361   0.784  11.502 -0.7595 -0.1656  0.4003
  109OSM    H5S11195   1.389   0.844  11.589  0.9081  2.2396 -1.6520
  109OSM    C6S11196   1.424   0.645  11.504 -0.1221  0.1035 -0.2529
  109OSM    H6S11197   1.533   0.647  11.526 -0.2971 -2.8674  1.5922
  109OSM    H6T11198   1.419   0.601  11.402 -0.6794  2.0450 -1.0955
  109OSM    C7S11199   1.366   0.556  11.617 -0.1532 -0.5932  0.1836
  109OSM    H7S11200   1.384   0.612  11.711  1.8603  1.1565 -1.1456
  109OSM    H7T11201   1.418   0.459  11.629 -3.6659 -2.3571  3.0849
  109OSM    C8S11202   1.215   0.528  11.604  0.6294  0.0822  0.6623
  109OSM    H8S11203   1.195   0.454  11.524  0.7672 -1.7908  2.2873
  109OSM    H8T11204   1.151   0.616  11.582 -1.6118 -1.5026  0.5493
  109OSM    C9S11205   1.170   0.466  11.737 -0.0302  0.3639 -0.1285
  109OSM    H9S11206   1.237   0.505  11.816  1.6360 -1.1316 -0.7309
  109OSM    H9T11207   1.200   0.359  11.732 -0.3244  0.3006 -0.6919
  109OSM   C10S11208   1.028   0.487  11.773 -0.4323 -0.2031 -0.6982
  109OSM   H10S11209   0.967   0.484  11.680 -2.1277  2.6586  0.2120
  109OSM   H10T11210   1.017   0.595  11.795 -1.2091 -0.5512  0.6915
  109OSM   C11S11211   0.980   0.400  11.888 -0.1180 -0.5016  0.6063
  109OSM   H11S11212   1.059   0.409  11.965 -1.4807  1.2544  1.8930
  109OSM   H11T11213   0.973   0.295  11.855 -0.5931 -0.3089  0.0734
  109OSM   C12S11214   0.847   0.448  11.947  0.0519  0.1532  0.6860
  109OSM   H12S11215   0.815   0.372  12.022 -2.7126  1.0919  0.5436
  109OSM   H12T11216   0.777   0.449  11.861  0.2895  2.5462  0.4613
  109OSM   C13S11217   0.843   0.583  12.013  0.0723 -0.4743  0.1086
  109OSM   H13S11218   0.848   0.660  11.933  1.8264 -0.4884  0.1724
  109OSM   H13T11219   0.945   0.586  12.056  0.6114  0.6753 -1.1944
  109OSM   C14S11220   0.730   0.616  12.109  0.4025  0.3084 -0.1409
  109OSM   H14S11221   0.761   0.707  12.164 -0.2307  1.3118 -1.3881
  109OSM   H14T11222   0.730   0.523  12.169 -2.0923  0.1928 -0.2163
  109OSM   C15S11223   0.592   0.632  12.046 -0.2238 -0.2379 -0.8196
  109OSM   H15S11224   0.522   0.656  12.129  1.0237 -0.7487  0.4128
  109OSM   H15T11225   0.569   0.534  11.999 -1.1822  0.5927 -2.1609
  109OSM   C16S11226   0.593   0.747  11.944 -0.0635 -0.4276  0.5127
  109OSM   H16S11227   0.489   0.744  11.904 -0.5097  1.0699  1.4686
  109OSM   H16T11228   0.649   0.697  11.863 -0.4280 -0.5132  0.3109
  109OSM   C17S11229   0.623   0.893  11.998  0.1339  0.0954 -0.0223
  109OSM   H17S11230   0.724   0.902  12.044  0.4696 -2.1121 -0.2215
  109OSM   H17T11231   0.544   0.916  12.073  0.6789  0.8387  0.3396
  109OSM   C18S11232   0.621   1.018  11.898 -0.3166  0.2667  0.9093
  109OSM   H18S11233   0.527   1.025  11.839 -1.1732 -1.3479  1.9910
  109OSM   H18T11234   0.714   1.012  11.838 -0.4824  2.2345  0.3845
  109OSM   H18U11235   0.625   1.107  11.965 -1.9788 -0.1482  1.6187
  109OSM    C1F11236   0.877   0.860  11.388 -0.2861 -0.3150 -0.5773
  109OSM     OF11237   0.830   0.860  11.277 -0.1995  0.3223  0.2639
  109OSM    C2F11238   0.799   0.805  11.504 -0.4428 -0.1419 -0.4266
  109OSM    H2F11239   0.785   0.892  11.571  1.1286 -0.3439  0.2103
  109OSM    H2G11240   0.865   0.725  11.543  1.0966  1.5653  0.6414
  109OSM    C3F11241   0.665   0.745  11.466  0.1739 -0.0551  0.0203
  109OSM    H3F11242   0.674   0.699  11.365 -0.2409 -0.6078  0.2342
  109OSM    H3G11243   0.588   0.825  11.456  1.3834  1.0411 -0.7347
  109OSM    C4F11244   0.603   0.646  11.572  0.4280 -0.4619  0.4012
  109OSM    H4F11245   0.557   0.705  11.655 -0.0777  0.0965 -0.2711
  109OSM    H4G11246   0.689   0.584  11.606  0.5754 -0.3544  0.2270
  109OSM    C5F11247   0.489   0.549  11.522  0.6814  0.2615  0.3637
  109OSM    H5F11248   0.518   0.509  11.422 -1.1551  0.2266 -0.2024
  109OSM    H5G11249   0.399   0.612  11.506  0.4004  0.0737  1.1580
  109OSM    C6F11250   0.457   0.425  11.614 -0.1556  0.1025  0.1658
  109OSM    H6F11251   0.550   0.367  11.629  0.8473  1.5073 -0.4317
  109OSM    H6G11252   0.376   0.371  11.562 -1.7094  2.3431  0.1062
  109OSM    C7F11253   0.407   0.460  11.756  0.2204 -0.7567  0.3527
  109OSM    H7F11254   0.308   0.512  11.757  0.5058 -0.0212 -2.3665
  109OSM    H7G11255   0.476   0.527  11.811 -0.2382 -0.0933  0.1368
  109OSM    C8F11256   0.381   0.335  11.850  0.4300 -0.1414  0.4133
  109OSM    H8F11257   0.307   0.265  11.806 -0.2977  1.0379 -0.3195
  109OSM    H8G11258   0.340   0.378  11.944 -1.5236 -1.0276  0.0318
  109OSM    C9F11259   0.513   0.263  11.895  0.3006  0.1469  0.7334
  109OSM    H9F11260   0.581   0.321  11.959  0.9051 -0.6577  0.8250
  109OSM   C10F11261   0.558   0.147  11.851 -0.4108  0.8529 -0.1779
  109OSM   H10F11262   0.658   0.116  11.884 -0.9829  1.3844  2.1998
  109OSM   C11F11263   0.493   0.052  11.755 -0.3888  0.3945 -0.2054
  109OSM   H11F11264   0.565   0.011  11.682 -1.0640 -3.3113  0.9969
  109OSM   H11G11265   0.417   0.108  11.696  0.2079 -0.0534 -1.4119
  109OSM   C12F11266   0.434  -0.064  11.831 -0.7615 -1.0281  0.4093
  109OSM   H12F11267   0.411  -0.144  11.757 -4.2330  2.6173 -2.9534
  109OSM   H12G11268   0.329  -0.041  11.860 -0.3417 -0.2846  1.3996
  109OSM   C13F11269   0.519  -0.132  11.938 -0.2808  0.2815  0.8863
  109OSM   H13F11270   0.498  -0.081  12.034  0.4680  1.9688  0.1925
  109OSM   H13G11271   0.626  -0.107  11.928  0.0232 -0.8042  1.2676
  109OSM   C14F11272   0.491  -0.284  11.951  0.0560 -0.7995 -0.2361
  109OSM   H14F11273   0.519  -0.330  11.854  2.8930  0.5124 -0.1666
  109OSM   H14G11274   0.385  -0.298  11.979 -0.3621  1.2743 -0.6251
  109OSM   C15F11275   0.568  -0.354  12.065 -0.4724 -0.4591 -0.0560
  109OSM   H15F11276   0.581  -0.284  12.150  3.3277  2.4583 -2.6672
  109OSM   H15G11277   0.674  -0.358  12.031  0.2534  1.3542  1.7944
  109OSM   C16F11278   0.512  -0.485  12.109  0.0525  0.0741  0.3673
  109OSM   H16F11279   0.505  -0.545  12.016 -0.4815 -0.6152  0.8333
  109OSM   H16G11280   0.407  -0.473  12.144  0.8022  0.3850  2.7253
  109OSM   C17F11281   0.573  -0.564  12.221  0.4300  0.9438  0.1664
  109OSM   H17F11282   0.576  -0.497  12.310  0.0104  1.1132  0.0541
  109OSM   H17G11283   0.683  -0.581  12.214  1.4380  4.6685  3.1100
  109OSM   C18F11284   0.478  -0.680  12.257 -0.1386 -0.6156 -0.0218
  109OSM   H18F11285   0.377  -0.633  12.265  0.8828  1.7848 -0.5233
  109OSM   H18G11286   0.496  -0.719  12.359 -1.1843 -0.0422  0.4011
  109OSM   H18H11287   0.495  -0.770  12.194  1.1096  0.3184 -1.0630
  110OSM      N11288   0.945   3.527  11.385  0.2302 -0.1582 -0.6620
  110OSM    C1511289   1.006   3.586  11.503 -0.3246 -0.3808  0.2598
  110OSM   H15A11290   1.041   3.505  11.564  1.5538 -1.7582 -2.4496
  110OSM   H15B11291   0.932   3.648  11.551  0.6087  1.4113 -0.5340
  110OSM   H15C11292   1.089   3.653  11.485 -1.2789  1.1287  1.2713
  110OSM    C1411293   0.836   3.428  11.442 -0.3505 -0.7320  0.0023
  110OSM   H14A11294   0.768   3.484  11.505  0.5593 -1.7785  2.0074
  110OSM   H14B11295   0.883   3.348  11.498  0.6144 -1.6018 -1.9710
  110OSM   H14C11296   0.777   3.388  11.361 -2.2321  4.5007 -1.6345
  110OSM    C1311297   0.871   3.626  11.303  0.1139  0.3061  0.1950
  110OSM   H13A11298   0.937   3.691  11.248  1.1600 -0.6960  0.2374
  110OSM   H13B11299   0.798   3.681  11.359  1.3025  1.6494  0.4770
  110OSM   H13C11300   0.817   3.567  11.231  0.5373 -1.7891  1.4967
  110OSM    C1211301   1.044   3.448  11.305  0.7587  0.0213 -0.2847
  110OSM   H12A11302   1.091   3.379  11.373  3.3721  2.0930  0.1778
  110OSM   H12B11303   1.128   3.515  11.291 -0.9043  2.2794 -0.1406
  110OSM    C1111304   1.014   3.380  11.168 -0.1928  0.8090  0.3399
  110OSM   H11A11305   0.934   3.305  11.187  2.3770 -1.9157  1.3477
  110OSM   H11B11306   1.099   3.313  11.144 -0.1991  1.3134 -1.1664
  110OSM      P11307   1.092   3.564  11.003  0.8160 -0.2808 -0.1791
  110OSM    O1311308   1.014   3.673  10.932  0.4295 -0.6374  0.0971
  110OSM    O1411309   1.187   3.603  11.105  0.2860 -0.1617 -0.0882
  110OSM    O1111310   1.166   3.471  10.902  0.1877  0.6999 -0.3031
  110OSM    O1211311   0.974   3.472  11.065  0.1993  0.1991  0.5667
  110OSM    C1S11312   1.093   3.405  10.797  0.1553 -0.0621  0.1109
  110OSM    H1S11313   1.002   3.459  10.762 -0.3760 -1.5005 -0.7968
  110OSM    H1T11314   1.050   3.312  10.839  0.2165 -1.1025 -1.9853
  110OSM     NF11315   1.079   3.325  10.570  0.8224 -1.2489  0.0530
  110OSM    HNF11316   1.072   3.226  10.562 -0.9138 -1.1418  0.0584
  110OSM    C2S11317   1.173   3.381  10.665  0.2288 -0.1595  0.0984
  110OSM    H2S11318   1.214   3.473  10.618  0.4319 -0.3539 -0.1110
  110OSM    C3S11319   1.295   3.287  10.707 -0.0047 -0.2938  0.3537
  110OSM    H3S11320   1.253   3.192  10.745 -0.8816  1.0075  2.8417
  110OSM     O311321   1.378   3.345  10.813  0.3918  0.2609  0.7245
  110OSM    HO311322   1.315   3.405  10.855 -0.5609 -0.0539 -0.2035
  110OSM    C4S11323   1.371   3.258  10.580  0.6632 -0.7127 -0.4875
  110OSM    H4S11324   1.319   3.192  10.510 -1.6960  0.6250 -0.1205
  110OSM    C5S11325   1.487   3.320  10.541 -0.2897 -0.3742 -0.1258
  110OSM    H5S11326   1.542   3.391  10.604 -1.0840 -0.9325  1.2404
  110OSM    C6S11327   1.555   3.295  10.407 -0.4535 -0.2516  0.4125
  110OSM    H6S11328   1.651   3.246  10.433 -1.5145 -1.9146  1.3505
  110OSM    H6T11329   1.594   3.387  10.359 -0.6690 -1.0879 -1.4420
  110OSM    C7S11330   1.489   3.216  10.298 -0.4405  0.5990 -0.3303
  110OSM    H7S11331   1.422   3.280  10.235 -1.4718 -2.1044 -2.1468
  110OSM    H7T11332   1.432   3.128  10.335 -1.4788  1.6438  0.6708
  110OSM    C8S11333   1.602   3.152  10.217 -0.0737 -0.0065  0.0605
  110OSM    H8S11334   1.661   3.090  10.288  0.8233  0.4620 -0.2626
  110OSM    H8T11335   1.674   3.226  10.178  0.4700 -0.3454  0.4055
  110OSM    C9S11336   1.549   3.078  10.091 -0.0697  0.3163 -0.4030
  110OSM    H9S11337   1.486   3.139  10.023  0.3608  1.2372  0.0094
  110OSM    H9T11338   1.481   2.994  10.116 -0.4213  0.5270 -0.6405
  110OSM   C10S11339   1.664   3.006  10.013 -0.2702 -0.4265  0.1896
  110OSM   H10S11340   1.708   2.931  10.082 -1.0164 -2.3585 -1.3412
  110OSM   H10T11341   1.748   3.077  10.001 -0.0004 -0.9862 -1.4716
  110OSM   C11S11342   1.636   2.942   9.870 -0.0182 -0.0005 -0.4950
  110OSM   H11S11343   1.543   2.882   9.882 -1.8138  2.9122  1.3491
  110OSM   H11T11344   1.725   2.883   9.839  2.0541  2.2746  0.7400
  110OSM   C12S11345   1.598   3.053   9.764 -0.3828  0.1478 -0.1657
  110OSM   H12S11346   1.511   3.106   9.808 -0.7833  0.0529 -0.8372
  110OSM   H12T11347   1.555   3.002   9.675 -1.5943 -1.3085  1.1845
  110OSM   C13S11348   1.710   3.150   9.727 -0.5909  0.6903 -0.5803
  110OSM   H13S11349   1.765   3.195   9.813 -0.2633  0.2107 -0.5340
  110OSM   H13T11350   1.678   3.239   9.668  2.0145  0.8729 -1.9003
  110OSM   C14S11351   1.813   3.081   9.637  0.1953 -0.1376 -0.5733
  110OSM   H14S11352   1.758   3.080   9.540 -0.6188 -0.1676 -0.1159
  110OSM   H14T11353   1.843   2.977   9.662  0.6735  0.0679 -0.2809
  110OSM   C15S11354   1.951   3.158   9.624  0.8702 -0.3441  0.1843
  110OSM   H15S11355   2.012   3.096   9.556  0.7976  1.0452 -1.2114
  110OSM   H15T11356   1.998   3.170   9.724  2.3010 -1.5853 -0.2965
  110OSM   C16S11357   1.946   3.307   9.574  0.4809  0.4884  0.7400
  110OSM   H16S11358   2.020   3.369   9.628  0.9037  0.5782  0.0621
  110OSM   H16T11359   1.845   3.346   9.599 -0.1608  0.5084 -1.6488
  110OSM   C17S11360   1.985   3.329   9.424  0.1651  0.2958  0.3911
  110OSM   H17S11361   2.064   3.260   9.389 -1.3622 -0.3579 -2.0443
  110OSM   H17T11362   2.010   3.437   9.410  0.9227  0.1731  0.7587
  110OSM   C18S11363   1.866   3.304   9.334  0.1057 -0.3893  0.9575
  110OSM   H18S11364   1.791   3.368   9.384  0.6200 -0.5291  1.9216
  110OSM   H18T11365   1.838   3.197   9.347 -0.4169 -0.3798  0.0261
  110OSM   H18U11366   1.868   3.335   9.227  0.4716  0.4646  1.2086
  110OSM    C1F11367   0.990   3.406  10.512  0.4921 -0.5095  0.2473
  110OSM     OF11368   0.992   3.526  10.527 -0.5720  0.4237  0.6513
  110OSM    C2F11369   0.884   3.341  10.416 -0.2072  0.0164 -1.1151
  110OSM    H2F11370   0.827   3.266  10.476 -2.0969  1.8469 -0.4682
  110OSM    H2G11371   0.934   3.283  10.336 -1.0287 -1.3773 -0.6673
  110OSM    C3F11372   0.783   3.427  10.344  0.0786 -0.7749 -0.6770
  110OSM    H3F11373   0.828   3.503  10.277 -0.4806 -0.9211 -1.2282
  110OSM    H3G11374   0.730   3.480  10.426  0.5490 -1.6958  0.2587
  110OSM    C4F11375   0.680   3.341  10.260 -0.1099 -0.3146 -0.4311
  110OSM    H4F11376   0.587   3.401  10.268 -0.4612 -0.9144 -0.0008
  110OSM    H4G11377   0.671   3.246  10.318  0.8260  0.2290  0.6603
  110OSM    C5F11378   0.713   3.332  10.107  0.0974 -0.3165 -0.7870
  110OSM    H5F11379   0.633   3.266  10.068  1.7729 -3.3076  0.5254
  110OSM    H5G11380   0.806   3.275  10.087  1.3762  0.7948  1.5824
  110OSM    C6F11381   0.727   3.464  10.035 -0.1600 -0.5371  0.3214
  110OSM    H6F11382   0.826   3.502  10.067 -1.3416  2.9760  0.1565
  110OSM    H6G11383   0.648   3.538  10.056 -0.7600 -0.7117 -1.2206
  110OSM    C7F11384   0.730   3.449   9.882 -0.2811  0.0629 -0.2439
  110OSM    H7F11385   0.625   3.426   9.855  0.0271 -0.6511 -0.8639
  110OSM    H7G11386   0.801   3.364   9.870  1.7559  1.7328 -0.6241
  110OSM    C8F11387   0.785   3.564   9.794 -0.4656 -0.1495  0.0799
  110OSM    H8F11388   0.885   3.603   9.824  0.1153 -1.4035 -0.1820
  110OSM    H8G11389   0.718   3.652   9.801  1.2940  1.2935 -0.4563
  110OSM    C9F11390   0.800   3.519   9.652 -0.2152  0.5186 -0.2975
  110OSM    H9F11391   0.851   3.422   9.644  1.0209  1.0910  0.3500
  110OSM   C10F11392   0.773   3.583   9.542  0.2747  0.1352  0.1167
  110OSM   H10F11393   0.792   3.536   9.445  0.2159 -0.2481  0.2908
  110OSM   C11F11394   0.723   3.725   9.530 -0.6019 -0.2375  0.3270
  110OSM   H11F11395   0.674   3.763   9.622 -2.3686  1.6621 -1.2711
  110OSM   H11G11396   0.630   3.711   9.470 -1.0586 -0.8710  1.1587
  110OSM   C12F11397   0.820   3.828   9.490 -0.6959 -0.0142 -0.3720
  110OSM   H12F11398   0.899   3.855   9.563 -2.0054  0.2292  0.9848
  110OSM   H12G11399   0.757   3.914   9.458 -0.7261 -0.0925 -0.5268
  110OSM   C13F11400   0.895   3.792   9.360 -0.7978  0.0531  0.0279
  110OSM   H13F11401   0.830   3.734   9.291  0.8916 -1.5186 -0.3057
  110OSM   H13G11402   0.985   3.731   9.383  0.7055  1.9940 -0.5243
  110OSM   C14F11403   0.946   3.918   9.272  0.2400  0.5446 -0.0815
  110OSM   H14F11404   1.010   3.974   9.344 -1.4227 -1.0233  2.7841
  110OSM   H14G11405   0.858   3.979   9.242 -1.0070 -1.6823 -1.2260
  110OSM   C15F11406   1.042   3.881   9.159 -0.0702 -0.3686 -0.4772
  110OSM   H15F11407   1.088   3.787   9.196 -2.0771 -1.4757 -0.7113
  110OSM   H15G11408   1.121   3.960   9.157 -0.8506  0.4209 -1.1108
  110OSM   C16F11409   0.979   3.852   9.033 -0.1970 -0.0538 -0.0361
  110OSM   H16F11410   0.903   3.928   9.004 -1.8249 -1.3107  0.7732
  110OSM   H16G11411   0.931   3.752   9.041  0.4808 -0.5076 -1.3516
  110OSM   C17F11412   1.076   3.841   8.918 -0.1656 -0.2502 -0.0558
  110OSM   H17F11413   1.148   3.926   8.910 -0.4787 -0.1811 -3.9747
  110OSM   H17G11414   1.012   3.865   8.831  0.7015 -0.6251 -0.8128
  110OSM   C18F11415   1.137   3.699   8.894 -0.4889 -0.2713  0.2578
  110OSM   H18F11416   1.210   3.693   8.811  1.4752  2.2032  1.6591
  110OSM   H18G11417   1.058   3.624   8.871 -0.5935 -0.3611  0.8991
  110OSM   H18H11418   1.176   3.677   8.995  0.3736 -1.6375 -0.3439
  111OSM      N11419   3.001   1.903  11.041 -0.0112  0.3044  0.0095
  111OSM    C1511420   2.991   2.046  10.989  0.2044 -0.5042 -0.2127
  111OSM   H15A11421   2.993   2.122  11.065  1.3697 -0.1117 -0.6131
  111OSM   H15B11422   2.893   2.061  10.945  1.2061  1.5741 -1.9435
  111OSM   H15C11423   3.059   2.085  10.915 -1.0744  4.1195  0.7380
  111OSM    C1411424   3.114   1.879  11.131 -0.0615 -0.8199  0.2537
  111OSM   H14A11425   3.206   1.911  11.085 -0.6758  0.1959 -0.3239
  111OSM   H14B11426   3.130   1.776  11.159  3.0118 -0.8416 -1.2351
  111OSM   H14C11427   3.102   1.936  11.222  0.5106 -0.8078  0.3255
  111OSM    C1311428   2.881   1.872  11.122  0.1792 -0.3085 -0.2620
  111OSM   H13A11429   2.881   1.776  11.172  0.5842  0.6364  1.6206
  111OSM   H13B11430   2.790   1.877  11.064 -0.7814 -0.1544  1.2252
  111OSM   H13C11431   2.864   1.948  11.197 -0.4301  1.1641 -1.8264
  111OSM    C1211432   3.003   1.815  10.921  0.7486  1.1911  0.7383
  111OSM   H12A11433   3.017   1.714  10.957 -2.2559  0.5358  0.3870
  111OSM   H12B11434   3.094   1.842  10.870 -0.1591  1.4925 -0.7934
  111OSM    C1111435   2.885   1.805  10.817 -0.0648 -1.1528  1.0225
  111OSM   H11A11436   2.912   1.726  10.744 -2.0422  0.8228 -2.1476
  111OSM   H11B11437   2.888   1.902  10.761  1.9955 -0.8576  1.5883
  111OSM      P11438   2.666   1.642  10.829 -0.5938 -0.2305  0.2906
  111OSM    O1311439   2.749   1.523  10.852  0.5722 -0.6778 -0.4793
  111OSM    O1411440   2.540   1.642  10.904 -0.1450 -0.1387  0.4201
  111OSM    O1111441   2.644   1.651  10.679 -0.6167  1.1115  0.5015
  111OSM    O1211442   2.753   1.777  10.868  0.2810 -0.1542  0.3429
  111OSM    C1S11443   2.589   1.769  10.628  0.2398 -0.4683  0.0321
  111OSM    H1S11444   2.618   1.861  10.683  2.4580 -1.7616  1.1792
  111OSM    H1T11445   2.478   1.770  10.630  0.2004  1.5704  2.8340
  111OSM     NF11446   2.610   1.940  10.449  0.1417  0.2403  0.3729
  111OSM    HNF11447   2.550   1.953  10.370 -0.4068  2.5969  1.0966
  111OSM    C2S11448   2.637   1.799  10.483  0.2688 -0.0044 -0.1585
  111OSM    H2S11449   2.747   1.781  10.477  0.2365 -1.3398  2.1993
  111OSM    C3S11450   2.570   1.698  10.384  0.0056 -0.1369 -0.3964
  111OSM    H3S11451   2.461   1.720  10.373  0.2624  0.6542 -1.5543
  111OSM     O311452   2.584   1.557  10.429 -0.0098  0.2261 -0.0096
  111OSM    HO311453   2.639   1.574  10.506  0.0156  2.2464 -0.4060
  111OSM    C4S11454   2.619   1.720  10.248  0.2544 -0.7104 -0.3555
  111OSM    H4S11455   2.535   1.736  10.179 -1.4514 -0.7157  1.6303
  111OSM    C5S11456   2.739   1.702  10.187 -0.5075  0.2342 -0.2716
  111OSM    H5S11457   2.818   1.655  10.246 -1.2606 -0.1968  0.4135
  111OSM    C6S11458   2.769   1.739  10.038  0.0918  0.1162  0.1727
  111OSM    H6S11459   2.875   1.711  10.018 -0.3581 -0.5700 -1.4520
  111OSM    H6T11460   2.753   1.844  10.007 -0.7895 -0.6055 -2.0742
  111OSM    C7S11461   2.678   1.653   9.946  0.3738 -0.3819  0.8046
  111OSM    H7S11462   2.571   1.682   9.960  1.2091  2.5508  1.7475
  111OSM    H7T11463   2.696   1.544   9.960  1.0024 -0.3426  0.3285
  111OSM    C8S11464   2.719   1.701   9.800  0.3903 -0.3035 -0.1776
  111OSM    H8S11465   2.827   1.674   9.799  0.3039 -0.8320  1.3801
  111OSM    H8T11466   2.703   1.811   9.793  0.0305 -0.3219  0.2925
  111OSM    C9S11467   2.649   1.634   9.679  0.1912  0.3086  0.1796
  111OSM    H9S11468   2.540   1.653   9.690  0.1579  0.7893 -0.8746
  111OSM    H9T11469   2.666   1.524   9.678 -0.4608  0.1998 -1.0909
  111OSM   C10S11470   2.681   1.696   9.542  0.2515 -0.8079 -0.0253
  111OSM   H10S11471   2.684   1.806   9.548 -0.2956 -0.7683 -0.4553
  111OSM   H10T11472   2.597   1.680   9.472  0.0348 -1.3597  0.3497
  111OSM   C11S11473   2.814   1.660   9.475  0.4899 -0.6287 -0.5421
  111OSM   H11S11474   2.808   1.556   9.436  0.5053 -2.0959  2.9641
  111OSM   H11T11475   2.901   1.659   9.545  0.2993  0.8671 -0.2596
  111OSM   C12S11476   2.839   1.753   9.360 -0.3482 -0.3961 -0.9562
  111OSM   H12S11477   2.867   1.853   9.399  0.0990 -0.7603 -0.3160
  111OSM   H12T11478   2.759   1.776   9.288 -0.7210 -0.5324 -0.5908
  111OSM   C13S11479   2.942   1.700   9.265  0.1245  0.7569  0.2880
  111OSM   H13S11480   2.922   1.592   9.250 -3.5982  1.6540 -2.7387
  111OSM   H13T11481   3.047   1.724   9.294 -0.1766  1.8326  0.5013
  111OSM   C14S11482   2.927   1.775   9.130 -0.3603 -0.1274  0.8336
  111OSM   H14S11483   2.942   1.883   9.149  0.6349 -0.3902  1.6254
  111OSM   H14T11484   2.827   1.744   9.092 -0.1449  1.2916 -1.0414
  111OSM   C15S11485   3.046   1.745   9.029  0.5626  0.2844  0.1252
  111OSM   H15S11486   3.052   1.635   9.019  1.7959  0.4272 -0.9987
  111OSM   H15T11487   3.138   1.781   9.079 -1.0158  2.4974  1.6778
  111OSM   C16S11488   3.020   1.817   8.895  0.1046  0.0267 -0.1657
  111OSM   H16S11489   2.989   1.921   8.916 -0.9307 -0.6559  1.9886
  111OSM   H16T11490   2.936   1.772   8.837  0.4672 -1.1300  0.1698
  111OSM   C17S11491   3.138   1.815   8.800 -0.6204 -0.5701  0.1190
  111OSM   H17S11492   3.179   1.711   8.796 -2.0090 -1.1998  1.3064
  111OSM   H17T11493   3.224   1.874   8.838 -0.0376 -1.5081  0.3180
  111OSM   C18S11494   3.103   1.869   8.664 -0.0676 -0.3057  0.2233
  111OSM   H18S11495   3.188   1.925   8.618 -1.1143 -0.1682 -1.6268
  111OSM   H18T11496   3.016   1.936   8.680  0.5183  0.5323 -0.0091
  111OSM   H18U11497   3.090   1.784   8.593  1.7965 -1.0039  0.6575
  111OSM    C1F11498   2.664   2.053  10.491  0.2474  0.0803  0.3619
  111OSM     OF11499   2.736   2.049  10.593 -0.2277 -0.5167 -0.0371
  111OSM    C2F11500   2.634   2.184  10.419 -0.2958  0.1073  0.1738
  111OSM    H2F11501   2.608   2.263  10.493 -0.2028 -1.7773  2.3164
  111OSM    H2G11502   2.541   2.171  10.360  0.0033  2.2651 -0.8654
  111OSM    C3F11503   2.748   2.237  10.331 -0.2305  0.3861 -0.3446
  111OSM    H3F11504   2.841   2.240  10.391 -1.8998  0.4214  2.3855
  111OSM    H3G11505   2.712   2.338  10.302 -1.9907 -0.3181 -0.7410
  111OSM    C4F11506   2.782   2.144  10.216 -0.1176 -0.3559  0.1773
  111OSM    H4F11507   2.695   2.075  10.211  0.8504 -1.5407 -1.1145
  111OSM    H4G11508   2.858   2.073  10.256 -1.4930 -2.1702 -0.3280
  111OSM    C5F11509   2.825   2.209  10.084 -0.0078  0.0512 -0.5978
  111OSM    H5F11510   2.747   2.273  10.036 -0.1256  0.3864  0.0299
  111OSM    H5G11511   2.849   2.133  10.007  0.4425  0.1563 -0.5612
  111OSM    C6F11512   2.954   2.293  10.090  0.3789  0.3223 -0.0594
  111OSM    H6F11513   3.046   2.241  10.125 -0.5770 -0.4811  1.3724
  111OSM    H6G11514   2.933   2.377  10.159 -1.0714  2.0087 -2.3706
  111OSM    C7F11515   2.983   2.367   9.954  0.4408  0.2713  0.0021
  111OSM    H7F11516   2.897   2.435   9.935  0.6996  0.0392 -2.2285
  111OSM    H7G11517   2.981   2.294   9.871  1.4089 -1.3225  1.3010
  111OSM    C8F11518   3.108   2.450   9.961  0.2856  0.0937  0.3656
  111OSM    H8F11519   3.195   2.381   9.959 -0.3871 -0.7736 -1.4812
  111OSM    H8G11520   3.127   2.506  10.055  1.8198  2.2092 -1.0989
  111OSM    C9F11521   3.118   2.542   9.841 -0.3318  0.8353 -0.6213
  111OSM    H9F11522   3.070   2.513   9.746 -0.9312  0.7632 -0.2989
  111OSM   C10F11523   3.194   2.652   9.841  0.3420  0.2319  0.6966
  111OSM   H10F11524   3.198   2.705   9.745 -0.5992 -0.9212 -0.0138
  111OSM   C11F11525   3.289   2.701   9.949  0.7676 -0.5188 -0.3140
  111OSM   H11F11526   3.393   2.700   9.910  1.2024  1.6152  0.6106
  111OSM   H11G11527   3.290   2.628  10.033  2.5702  0.7818  0.8688
  111OSM   C12F11528   3.241   2.831  10.019  1.0448 -0.3437 -0.1499
  111OSM   H12F11529   3.289   2.843  10.118  0.3462 -0.9139  0.2676
  111OSM   H12G11530   3.133   2.814  10.040  1.0068  1.9221  1.8491
  111OSM   C13F11531   3.278   2.952   9.937  0.1762 -0.1022 -0.3308
  111OSM   H13F11532   3.244   2.940   9.833  0.7745 -6.1019 -0.1912
  111OSM   H13G11533   3.389   2.942   9.933  0.0767 -2.5882  0.9577
  111OSM   C14F11534   3.247   3.087  10.012 -0.1129  0.2734 -0.8082
  111OSM   H14F11535   3.291   3.083  10.114 -2.6933  1.1640  0.4084
  111OSM   H14G11536   3.136   3.087  10.012 -0.2308 -0.7713 -4.1439
  111OSM   C15F11537   3.300   3.206   9.936  0.0345 -0.8448  0.0688
  111OSM   H15F11538   3.266   3.194   9.830  1.6007 -0.8231 -0.4573
  111OSM   H15G11539   3.410   3.192   9.940 -0.0234 -3.0713 -2.7722
  111OSM   C16F11540   3.260   3.346   9.985 -0.6389  0.4615 -0.0735
  111OSM   H16F11541   3.289   3.355  10.092  0.7704 -2.1874 -0.1241
  111OSM   H16G11542   3.150   3.348   9.975 -0.4627  1.4801 -2.8177
  111OSM   C17F11543   3.313   3.461   9.908 -0.1246  0.4145 -0.9258
  111OSM   H17F11544   3.421   3.478   9.930 -0.3243  1.2630 -0.5570
  111OSM   H17G11545   3.263   3.556   9.938 -0.5681 -0.3972  1.0177
  111OSM   C18F11546   3.316   3.447   9.751  0.5368 -0.4775  0.0773
  111OSM   H18F11547   3.215   3.445   9.705  0.8518  2.9278 -1.0525
  111OSM   H18G11548   3.367   3.357   9.711  2.4403  0.3625  0.4801
  111OSM   H18H11549   3.360   3.543   9.716  0.0923  0.2118  1.3232
  112OSM      N11550   2.305   6.122  11.052 -0.3586  0.2222 -0.1824
  112OSM    C1511551   2.165   6.175  11.026 -0.7341 -0.2403 -0.3984
  112OSM   H15A11552   2.146   6.195  10.921  3.3633  1.0126 -1.0803
  112OSM   H15B11553   2.141   6.269  11.073 -1.5173 -1.1412  1.0812
  112OSM   H15C11554   2.087   6.110  11.063 -0.0920 -0.5901  0.3569
  112OSM    C1411555   2.396   6.238  11.031  0.3188  0.2874 -0.0925
  112OSM   H14A11556   2.500   6.213  11.033  0.3370  0.3202 -0.4449
  112OSM   H14B11557   2.381   6.322  11.097  2.2905  1.1569 -0.6848
  112OSM   H14C11558   2.388   6.262  10.925 -1.0022 -0.3737 -0.1667
  112OSM    C1311559   2.320   6.081  11.196 -0.5015 -0.1712  0.0993
  112OSM   H13A11560   2.423   6.053  11.212 -0.4017  0.8411  1.4105
  112OSM   H13B11561   2.247   6.003  11.213 -0.1027 -0.6561 -0.3835
  112OSM   H13C11562   2.297   6.168  11.257  2.1381  1.2420 -0.7660
  112OSM    C1211563   2.348   6.001  10.964 -0.1506  0.2504 -0.0139
  112OSM   H12A11564   2.445   5.971  11.000 -0.7292  0.2339  1.6271
  112OSM   H12B11565   2.354   6.036  10.863 -2.2806 -0.2848 -0.3810
  112OSM    C1111566   2.267   5.865  10.962  0.0120 -0.3869  0.2476
  112OSM   H11A11567   2.280   5.806  10.869  1.5332  0.0949  0.1169
  112OSM   H11B11568   2.163   5.903  10.963  0.1822  0.2842 -1.7192
  112OSM      P11569   2.183   5.686  11.135 -0.3350  0.4045 -0.0752
  112OSM    O1311570   2.220   5.662  11.279 -0.3064 -0.1084  0.6366
  112OSM    O1411571   2.048   5.746  11.120  0.0527 -0.0662  0.3466
  112OSM    O1111572   2.194   5.556  11.045 -0.3935 -0.5081  0.0704
  112OSM    O1211573   2.295   5.783  11.073 -0.8690  0.0872  0.3072
  112OSM    C1S11574   2.125   5.541  10.925  0.3321  0.1736  0.5959
  112OSM    H1S11575   2.050   5.621  10.902 -0.9628 -0.4490  2.4356
  112OSM    H1T11576   2.058   5.453  10.934  0.9159 -0.4416 -0.7400
  112OSM     NF11577   2.120   5.482  10.695 -0.1510  0.1657  0.2529
  112OSM    HNF11578   2.104   5.384  10.687 -2.7706  0.6438 -1.6987
  112OSM    C2S11579   2.208   5.505  10.802 -0.4460 -0.0323 -0.4903
  112OSM    H2S11580   2.268   5.592  10.766 -2.2866  1.9073  0.8628
  112OSM    C3S11581   2.304   5.382  10.835  0.0586 -0.1863 -1.1358
  112OSM    H3S11582   2.233   5.296  10.842  1.6166 -1.3691  2.4942
  112OSM     O311583   2.366   5.390  10.967 -0.0287 -0.8971 -0.0649
  112OSM    HO311584   2.317   5.457  11.014  0.1563 -1.1555  0.5006
  112OSM    C4S11585   2.393   5.354  10.724  0.1304 -0.0555 -0.1053
  112OSM    H4S11586   2.349   5.293  10.644 -0.5675  1.0013 -0.5449
  112OSM    C5S11587   2.528   5.382  10.718  0.8538 -0.9331 -0.1379
  112OSM    H5S11588   2.574   5.427  10.808  2.2691  0.1546 -1.3697
  112OSM    C6S11589   2.628   5.358  10.604 -0.4928 -0.5326 -0.0061
  112OSM    H6S11590   2.716   5.308  10.649 -1.2717 -0.7362  1.3367
  112OSM    H6T11591   2.670   5.454  10.566  0.4433 -1.1696 -0.6352
  112OSM    C7S11592   2.569   5.287  10.479 -0.4977 -0.8364 -0.2611
  112OSM    H7S11593   2.475   5.338  10.447  0.3979  0.3945 -1.0162
  112OSM    H7T11594   2.547   5.181  10.507  2.2121 -1.0367  1.4229
  112OSM    C8S11595   2.667   5.286  10.359 -0.5660  0.1067  0.2162
  112OSM    H8S11596   2.763   5.241  10.391 -0.9604  0.3365  1.7989
  112OSM    H8T11597   2.704   5.388  10.338 -1.8014  0.6195  0.4509
  112OSM    C9S11598   2.618   5.213  10.228  0.1271  0.5632 -0.6029
  112OSM    H9S11599   2.522   5.258  10.194  0.3038 -0.6487 -2.8502
  112OSM    H9T11600   2.595   5.105  10.243 -0.8143  1.0549  1.9725
  112OSM   C10S11601   2.726   5.215  10.119 -0.3017 -0.0834  0.4897
  112OSM   H10S11602   2.785   5.122  10.130  1.0334  0.7483  0.5974
  112OSM   H10T11603   2.798   5.299  10.130 -0.5780  0.0242  1.5451
  112OSM   C11S11604   2.657   5.210   9.982  0.4750  0.0890  0.1341
  112OSM   H11S11605   2.606   5.308   9.974  1.9840  1.0296  1.4013
  112OSM   H11T11606   2.586   5.125   9.971  1.3636 -0.4286 -2.3175
  112OSM   C12S11607   2.753   5.188   9.865  0.2220 -0.3086 -0.2999
  112OSM   H12S11608   2.807   5.092   9.878  1.0060  0.2344  0.6253
  112OSM   H12T11609   2.825   5.273   9.876 -0.1844 -0.0039  0.0230
  112OSM   C13S11610   2.683   5.183   9.733 -0.4925  0.0418 -0.0366
  112OSM   H13S11611   2.770   5.171   9.664 -0.2553  0.2496  0.2245
  112OSM   H13T11612   2.638   5.280   9.705  0.9716  0.7172 -0.1551
  112OSM   C14S11613   2.598   5.055   9.711 -0.4127 -0.1890 -0.9887
  112OSM   H14S11614   2.504   5.080   9.765  0.7782  1.6593  0.3529
  112OSM   H14T11615   2.639   4.970   9.768 -1.4242  0.6855  1.1697
  112OSM   C15S11616   2.577   5.016   9.570  0.3739 -0.2642 -0.5861
  112OSM   H15S11617   2.528   4.916   9.562 -1.4806  0.4332  1.3294
  112OSM   H15T11618   2.678   5.010   9.522  0.4543  1.7302 -0.7575
  112OSM   C16S11619   2.495   5.117   9.486  0.5505  0.4578 -0.1912
  112OSM   H16S11620   2.518   5.225   9.497 -1.1411  1.2503 -3.1748
  112OSM   H16T11621   2.389   5.105   9.519  1.0249 -0.3604  1.0838
  112OSM   C17S11622   2.512   5.100   9.336 -0.7275 -0.4313 -0.8149
  112OSM   H17S11623   2.495   4.994   9.310 -1.3507  0.0871 -2.7038
  112OSM   H17T11624   2.620   5.123   9.320 -0.5255 -1.5657 -1.1506
  112OSM   C18S11625   2.431   5.199   9.249  0.1184  0.1058  0.2326
  112OSM   H18S11626   2.452   5.185   9.141 -1.5248 -1.1705  0.0302
  112OSM   H18T11627   2.459   5.303   9.274  0.2175  0.0461  0.3707
  112OSM   H18U11628   2.322   5.186   9.267 -0.4807  4.4436  0.7593
  112OSM    C1F11629   2.051   5.568  10.621 -0.0958 -0.0343 -0.5154
  112OSM     OF11630   2.064   5.688  10.650  0.6540 -0.1972 -0.0759
  112OSM    C2F11631   1.959   5.509  10.523  0.2450 -0.4280  0.2632
  112OSM    H2F11632   1.857   5.522  10.565 -0.7806  1.6733 -2.5500
  112OSM    H2G11633   1.988   5.402  10.514 -0.3801 -0.6191  0.4788
  112OSM    C3F11634   1.955   5.591  10.389 -0.3267  0.0093  0.7586
  112OSM    H3F11635   2.047   5.587  10.327 -0.4325  2.4101  0.3520
  112OSM    H3G11636   1.944   5.695  10.427  2.1574  1.2936 -1.7107
  112OSM    C4F11637   1.833   5.552  10.305 -0.3523  0.0115  0.3020
  112OSM    H4F11638   1.740   5.560  10.364  0.2298  0.3567  1.1990
  112OSM    H4G11639   1.850   5.450  10.264  3.7500  0.7587 -0.3438
  112OSM    C5F11640   1.822   5.648  10.178 -0.3578 -0.1583 -0.2071
  112OSM    H5F11641   1.928   5.663  10.145 -0.3433 -2.4074 -1.4420
  112OSM    H5G11642   1.783   5.751  10.190 -1.4996 -0.6366  0.2647
  112OSM    C6F11643   1.756   5.571  10.063 -0.2372 -0.1281  0.1763
  112OSM    H6F11644   1.645   5.579  10.073 -0.4132 -0.8896 -0.9993
  112OSM    H6G11645   1.767   5.461  10.072 -0.7756 -0.5583 -3.0808
  112OSM    C7F11646   1.795   5.607   9.920 -0.0254 -0.7765 -0.2618
  112OSM    H7F11647   1.903   5.625   9.906  0.1186 -0.8609  0.6544
  112OSM    H7G11648   1.749   5.704   9.892  2.1848 -0.0530 -1.5854
  112OSM    C8F11649   1.777   5.485   9.823  0.1244 -0.9399 -0.1161
  112OSM    H8F11650   1.840   5.403   9.863  0.3262  0.4335  2.6405
  112OSM    H8G11651   1.807   5.516   9.720 -0.4053  1.5737  0.4034
  112OSM    C9F11652   1.640   5.430   9.835  0.0076 -0.1311 -0.2604
  112OSM    H9F11653   1.628   5.360   9.919  1.4108 -0.9400 -0.6958
  112OSM   C10F11654   1.542   5.452   9.753 -0.0359  0.6323 -0.3886
  112OSM   H10F11655   1.445   5.407   9.779 -0.1795  1.6420  0.9077
  112OSM   C11F11656   1.537   5.543   9.637  0.2779 -0.5491  0.5877
  112OSM   H11F11657   1.468   5.507   9.558 -1.6398  0.3641  1.7616
  112OSM   H11G11658   1.640   5.566   9.603 -0.0906  0.8964  0.3903
  112OSM   C12F11659   1.484   5.682   9.684 -0.5729  0.1144 -0.1616
  112OSM   H12F11660   1.510   5.756   9.606  3.0636 -1.7020 -0.9272
  112OSM   H12G11661   1.534   5.713   9.778 -1.0815  0.8490 -0.1287
  112OSM   C13F11662   1.333   5.685   9.710 -0.2476  0.6871 -0.4451
  112OSM   H13F11663   1.318   5.773   9.776  0.6997  0.1543  0.5228
  112OSM   H13G11664   1.294   5.593   9.758 -1.9157  1.6985  0.2563
  112OSM   C14F11665   1.257   5.710   9.588  0.0299 -0.4465  0.4033
  112OSM   H14F11666   1.283   5.625   9.522  0.2259  1.2483 -1.7791
  112OSM   H14G11667   1.287   5.804   9.538  0.0183 -0.8131 -0.2945
  112OSM   C15F11668   1.104   5.714   9.610  0.4519 -0.2334  0.1774
  112OSM   H15F11669   1.074   5.780   9.694  0.0084 -1.3115  0.8932
  112OSM   H15G11670   1.066   5.612   9.630  0.3658 -0.1398  0.4949
  112OSM   C16F11671   1.040   5.767   9.476  0.5309  0.4092 -0.3629
  112OSM   H16F11672   1.073   5.870   9.452  0.0752  0.7123  0.2563
  112OSM   H16G11673   0.929   5.773   9.488  0.4063  1.3582 -1.8074
  112OSM   C17F11674   1.068   5.678   9.352  0.4170  0.1172  0.3288
  112OSM   H17F11675   1.047   5.574   9.383  1.3864 -0.7280 -1.7247
  112OSM   H17G11676   1.174   5.675   9.317 -0.0081 -0.6342 -0.9488
  112OSM   C18F11677   0.996   5.713   9.220 -0.3171 -0.0259 -0.1854
  112OSM   H18F11678   1.033   5.636   9.149 -0.1420  1.5437 -1.8511
  112OSM   H18G11679   1.028   5.816   9.195  1.4213 -0.6775 -0.7758
  112OSM   H18H11680   0.885   5.705   9.222 -0.2092 -1.9660 -0.3540
  113OSM      N11681   1.669   5.040  11.470 -0.3851  0.1094  0.0402
  113OSM    C1511682   1.716   4.907  11.520 -0.1679 -0.7716 -0.4306
  113OSM   H15A11683   1.637   4.865  11.579 -0.9413  0.1430 -0.7934
  113OSM   H15B11684   1.808   4.926  11.573 -0.5459  0.8520 -0.3117
  113OSM   H15C11685   1.730   4.834  11.441 -0.6901 -0.0781 -1.1889
  113OSM    C1411686   1.532   5.014  11.414 -0.6516 -0.0386 -0.1586
  113OSM   H14A11687   1.536   4.945  11.332  2.8394 -2.4577  1.7746
  113OSM   H14B11688   1.489   5.102  11.369 -3.5341 -1.1165  0.2799
  113OSM   H14C11689   1.467   4.992  11.497  1.7743 -0.2179  1.7951
  113OSM    C1311690   1.660   5.135  11.587  0.0096 -0.4236  0.2026
  113OSM   H13A11691   1.597   5.221  11.568 -1.1670 -1.4454 -0.6396
  113OSM   H13B11692   1.755   5.169  11.626  1.6841 -2.1270 -2.0912
  113OSM   H13C11693   1.615   5.087  11.672 -1.7919 -0.3726 -0.6703
  113OSM    C1211694   1.759   5.082  11.354 -0.0499 -0.2083  0.4820
  113OSM   H12A11695   1.851   5.123  11.391 -0.5050  0.8845  0.4337
  113OSM   H12B11696   1.698   5.154  11.301 -2.9477 -2.6855  0.1781
  113OSM    C1111697   1.798   4.974  11.245 -0.3245  0.5119  0.5038
  113OSM   H11A11698   1.851   4.892  11.299 -0.9504 -0.1808  0.0878
  113OSM   H11B11699   1.868   5.019  11.172  1.4188 -0.3396  1.5692
  113OSM      P11700   1.643   4.988  11.031  0.2691 -0.1865 -0.0458
  113OSM    O1311701   1.521   4.924  10.983 -0.0354  0.6278  0.5364
  113OSM    O1411702   1.643   5.132  11.041 -0.0255  0.0303 -0.3852
  113OSM    O1111703   1.761   4.949  10.935  0.0956 -0.0888  0.2242
  113OSM    O1211704   1.685   4.927  11.174 -0.3034 -0.1950 -0.0704
  113OSM    C1S11705   1.729   4.925  10.796 -0.5381 -0.1883  0.5457
  113OSM    H1S11706   1.692   5.016  10.744 -0.7789 -0.7019 -0.1968
  113OSM    H1T11707   1.649   4.849  10.787  2.0897 -2.9905 -1.5900
  113OSM     NF11708   1.822   4.883  10.583 -0.4740  0.2904  0.0827
  113OSM    HNF11709   1.794   4.794  10.547 -0.7428 -0.4727  2.0791
  113OSM    C2S11710   1.852   4.876  10.724  0.3213 -0.8764  0.5669
  113OSM    H2S11711   1.935   4.946  10.746  0.9359 -1.5752  0.5296
  113OSM    C3S11712   1.895   4.735  10.775 -0.1177  0.2012 -0.5038
  113OSM    H3S11713   1.813   4.661  10.766  0.0932 -0.0468 -0.3874
  113OSM     O311714   1.944   4.732  10.909  0.1126  0.6562 -0.1157
  113OSM    HO311715   1.906   4.816  10.935  1.4555  1.6059 -1.0966
  113OSM    C4S11716   2.011   4.686  10.700  0.3703  0.3708  0.3486
  113OSM    H4S11717   2.097   4.752  10.686  1.6159 -0.7234  2.4198
  113OSM    C5S11718   1.995   4.585  10.614 -0.7157 -0.2727 -0.0886
  113OSM    H5S11719   1.899   4.531  10.612 -0.4426 -0.8512  1.3672
  113OSM    C6S11720   2.102   4.548  10.509  0.4998  0.5410  0.0423
  113OSM    H6S11721   2.132   4.443  10.524  0.5342 -0.1745 -3.9598
  113OSM    H6T11722   2.190   4.614  10.525  1.2718 -0.1395 -1.2096
  113OSM    C7S11723   2.065   4.568  10.356 -0.5383  0.1656  0.6691
  113OSM    H7S11724   2.029   4.669  10.326  0.1486  0.0683 -0.5146
  113OSM    H7T11725   1.978   4.500  10.341 -0.7999  0.6252  0.0571
  113OSM    C8S11726   2.193   4.529  10.280  0.8466  1.0452  1.1592
  113OSM    H8S11727   2.234   4.428  10.304  0.9279  0.5155 -0.9849
  113OSM    H8T11728   2.278   4.599  10.295 -0.0235  1.9130  2.2069
  113OSM    C9S11729   2.182   4.529  10.121 -0.3605  0.4585 -0.2259
  113OSM    H9S11730   2.121   4.619  10.098  0.4292  0.3972 -2.7765
  113OSM    H9T11731   2.136   4.439  10.074 -1.1973  0.3068  0.8255
  113OSM   C10S11732   2.323   4.551  10.044  0.3396  0.1376 -0.3752
  113OSM   H10S11733   2.396   4.479  10.085 -0.7246 -1.4282 -1.1143
  113OSM   H10T11734   2.348   4.658  10.061 -1.0631  0.4777 -0.2788
  113OSM   C11S11735   2.333   4.511   9.894  0.5449  0.3616  0.2024
  113OSM   H11S11736   2.244   4.552   9.842  0.6495  0.7841  0.3502
  113OSM   H11T11737   2.326   4.400   9.893 -1.5934  0.4189  1.9683
  113OSM   C12S11738   2.457   4.551   9.813 -0.1232 -0.5872 -0.3832
  113OSM   H12S11739   2.548   4.514   9.865 -0.3802 -2.0174 -0.9164
  113OSM   H12T11740   2.453   4.662   9.816 -1.1797 -0.6346  0.4756
  113OSM   C13S11741   2.459   4.512   9.667  0.0697  0.1565 -0.3628
  113OSM   H13S11742   2.366   4.557   9.627  2.2989  3.5361 -2.2966
  113OSM   H13T11743   2.449   4.401   9.671  0.6975  0.1265  0.6407
  113OSM   C14S11744   2.577   4.574   9.590  0.0555  0.7162  0.5663
  113OSM   H14S11745   2.668   4.594   9.651 -1.0776  1.8272  1.9601
  113OSM   H14T11746   2.545   4.676   9.559 -1.5455  0.3417  0.8978
  113OSM   C15S11747   2.631   4.496   9.467 -0.0190 -0.5384 -0.1459
  113OSM   H15S11748   2.547   4.449   9.412 -0.8547  1.2589 -0.4673
  113OSM   H15T11749   2.688   4.422   9.527 -1.4073 -0.9224  0.7620
  113OSM   C16S11750   2.730   4.566   9.378  0.1418 -0.0417  0.0016
  113OSM   H16S11751   2.826   4.586   9.430  1.5003 -1.6395 -1.7426
  113OSM   H16T11752   2.694   4.659   9.329  0.2605 -0.4604 -0.9078
  113OSM   C17S11753   2.773   4.476   9.262 -0.3127  0.1072  0.3143
  113OSM   H17S11754   2.694   4.453   9.188  2.0890 -0.2016 -2.3092
  113OSM   H17T11755   2.805   4.379   9.306 -2.2949 -0.5103  0.4678
  113OSM   C18S11756   2.891   4.529   9.179 -0.2532 -0.1114  1.0745
  113OSM   H18S11757   2.851   4.612   9.117  0.2804 -1.4627 -1.1861
  113OSM   H18T11758   2.927   4.454   9.106 -0.6525  0.2385  0.5034
  113OSM   H18U11759   2.967   4.577   9.243  1.8717 -1.6567 -0.1797
  113OSM    C1F11760   1.840   4.987  10.506 -0.1846  0.0488  0.2903
  113OSM     OF11761   1.908   5.079  10.537  0.4662 -0.9342  0.6964
  113OSM    C2F11762   1.764   4.976  10.371 -0.1900 -0.1384 -0.3055
  113OSM    H2F11763   1.677   4.913  10.397  2.1065 -3.6527 -0.3437
  113OSM    H2G11764   1.833   4.916  10.306  1.3154 -0.0054  1.0952
  113OSM    C3F11765   1.732   5.118  10.315  0.6402  0.7036 -0.0341
  113OSM    H3F11766   1.825   5.175  10.294  2.5619  0.1046  5.3943
  113OSM    H3G11767   1.670   5.172  10.389 -2.8839 -0.3251 -1.9968
  113OSM    C4F11768   1.630   5.096  10.195 -0.5497  1.3400 -0.7785
  113OSM    H4F11769   1.555   5.020  10.226  2.0626 -0.9990  0.1497
  113OSM    H4G11770   1.686   5.057  10.108 -0.7457 -0.8302  0.0101
  113OSM    C5F11771   1.554   5.223  10.152 -0.5079  0.4745 -0.6317
  113OSM    H5F11772   1.638   5.291  10.126  1.0218 -1.2473 -0.3745
  113OSM    H5G11773   1.504   5.271  10.239  1.3982  0.0649  0.7652
  113OSM    C6F11774   1.465   5.203  10.033  0.1129  0.9043  0.3446
  113OSM    H6F11775   1.520   5.160   9.946 -0.2213 -0.2459  0.6850
  113OSM    H6G11776   1.436   5.308  10.012  2.0998  2.1070  3.1424
  113OSM    C7F11777   1.341   5.119  10.067  0.3051  0.1430 -0.7698
  113OSM    H7F11778   1.300   5.152  10.165 -2.5065 -2.5108 -0.8772
  113OSM    H7G11779   1.363   5.013  10.096 -0.3935 -0.0759 -1.0348
  113OSM    C8F11780   1.236   5.121   9.949 -0.1324  0.1473  0.2073
  113OSM    H8F11781   1.154   5.051   9.976  0.2031 -1.1237 -1.8236
  113OSM    H8G11782   1.287   5.077   9.860 -0.9231 -0.9633  0.2728
  113OSM    C9F11783   1.162   5.247   9.918 -0.2259 -0.1940  0.3072
  113OSM    H9F11784   1.187   5.332   9.982  2.0930 -0.9151  0.4502
  113OSM   C10F11785   1.073   5.256   9.820 -0.3440 -0.3055  0.7745
  113OSM   H10F11786   1.015   5.350   9.818 -1.9462 -1.2554  0.0970
  113OSM   C11F11787   1.040   5.160   9.709  0.5306 -0.6107  0.1687
  113OSM   H11F11788   0.935   5.125   9.721 -0.2141  1.2995 -0.4612
  113OSM   H11G11789   1.104   5.069   9.719 -0.5839 -1.6737 -1.7139
  113OSM   C12F11790   1.064   5.204   9.557  0.5093  0.0643 -0.2968
  113OSM   H12F11791   0.998   5.288   9.530 -0.3029 -0.1024  1.0883
  113OSM   H12G11792   1.027   5.122   9.491 -0.7537 -1.2435  1.8963
  113OSM   C13F11793   1.203   5.259   9.517 -0.6072  0.1262 -0.5182
  113OSM   H13F11794   1.222   5.340   9.591 -1.7334 -1.0162  1.0848
  113OSM   H13G11795   1.198   5.307   9.417  1.2255  1.9609  0.1655
  113OSM   C14F11796   1.313   5.151   9.522 -0.4822  0.0899  1.0229
  113OSM   H14F11797   1.275   5.056   9.478 -0.5001 -1.5216  4.2188
  113OSM   H14G11798   1.341   5.135   9.628  0.8152  0.8819  0.8220
  113OSM   C15F11799   1.442   5.178   9.437  0.0586 -0.1906 -0.4320
  113OSM   H15F11800   1.489   5.267   9.487  3.2400 -1.2749 -1.2592
  113OSM   H15G11801   1.428   5.207   9.331  0.4852 -0.0904 -0.4634
  113OSM   C16F11802   1.530   5.056   9.441  0.2900  0.0031  0.5555
  113OSM   H16F11803   1.603   5.072   9.359 -0.4188 -0.7482 -0.2405
  113OSM   H16G11804   1.464   4.974   9.407  0.3984  0.7815 -1.7431
  113OSM   C17F11805   1.624   5.021   9.568  0.3708 -0.2945  0.2860
  113OSM   H17F11806   1.664   5.118   9.603 -0.0116 -1.1014  3.1742
  113OSM   H17G11807   1.713   4.966   9.530  1.3795  0.4152  1.5376
  113OSM   C18F11808   1.553   4.931   9.669 -0.1403 -0.5114  0.2247
  113OSM   H18F11809   1.619   4.861   9.724  0.2119 -1.4312 -1.2907
  113OSM   H18G11810   1.469   4.879   9.618  0.3251 -1.3098  0.2440
  113OSM   H18H11811   1.516   4.996   9.750 -0.7331 -0.4352 -0.1039
  114OSM      N11812   4.383   4.103  11.742  0.8134 -0.1767  0.5084
  114OSM    C1511813   4.410   3.964  11.802 -0.1952 -0.6174  0.5829
  114OSM   H15A11814   4.469   3.974  11.892 -0.7221  0.1452  0.8529
  114OSM   H15B11815   4.475   3.914  11.732 -0.1362  1.1226 -0.6619
  114OSM   H15C11816   4.319   3.909  11.822  0.3807 -2.1271 -0.7585
  114OSM    C1411817   4.297   4.181  11.841 -0.1937  0.0540  0.7434
  114OSM   H14A11818   4.193   4.156  11.846  0.1395 -1.2481  1.6839
  114OSM   H14B11819   4.306   4.286  11.818 -1.9025  0.2834  1.0212
  114OSM   H14C11820   4.334   4.154  11.939 -0.5258 -3.0447  0.1276
  114OSM    C1311821   4.521   4.164  11.729  0.0477  0.5972 -0.5277
  114OSM   H13A11822   4.509   4.269  11.705  2.2069  0.8161 -0.8837
  114OSM   H13B11823   4.582   4.103  11.664 -0.0170  0.0650 -0.0945
  114OSM   H13C11824   4.565   4.159  11.827  1.8019  1.7974 -1.1876
  114OSM    C1211825   4.314   4.102  11.612 -0.1346 -0.5676  1.4198
  114OSM   H12A11826   4.365   4.044  11.536 -3.1747 -1.3723 -0.1734
  114OSM   H12B11827   4.308   4.203  11.573 -2.8997 -1.2842 -0.2909
  114OSM    C1111828   4.177   4.032  11.606  0.7892  0.3272 -0.3213
  114OSM   H11A11829   4.128   4.066  11.512  0.1150 -0.0085 -0.1008
  114OSM   H11B11830   4.112   4.060  11.692  2.4673  3.2167  0.1247
  114OSM      P11831   4.255   3.818  11.485 -0.4824  0.6753 -0.2709
  114OSM    O1311832   4.401   3.807  11.521  0.1534 -0.3628  0.1311
  114OSM    O1411833   4.187   3.687  11.465  0.5179  0.1968  1.0879
  114OSM    O1111834   4.228   3.910  11.354  0.6207  0.1213 -0.5807
  114OSM    O1211835   4.185   3.892  11.599  0.3900  0.7496  0.2053
  114OSM    C1S11836   4.100   3.924  11.297  0.1763  0.1972  0.8669
  114OSM    H1S11837   4.032   3.980  11.365  0.7191  0.3911  1.2638
  114OSM    H1T11838   4.053   3.826  11.277 -0.7316  0.9270 -0.7415
  114OSM     NF11839   3.987   4.025  11.108  0.4257 -0.1487  0.1470
  114OSM    HNF11840   3.943   3.958  11.049 -0.6617 -0.3161  1.1203
  114OSM    C2S11841   4.120   3.997  11.160 -0.3913 -0.0350  0.1134
  114OSM    H2S11842   4.185   4.087  11.173  2.0802 -1.5243 -1.2237
  114OSM    C3S11843   4.197   3.897  11.067  0.1522  0.1562 -0.6728
  114OSM    H3S11844   4.124   3.816  11.045 -2.3253  2.0982 -0.1372
  114OSM     O311845   4.326   3.850  11.124  0.0341  0.2111 -0.1314
  114OSM    HO311846   4.346   3.877  11.214  1.1959 -0.2465 -0.2298
  114OSM    C4S11847   4.231   3.966  10.937  0.0720  0.3453 -0.2213
  114OSM    H4S11848   4.144   3.955  10.870 -0.5160  3.0459 -0.0386
  114OSM    C5S11849   4.343   4.027  10.891 -0.4749  0.4333 -0.0223
  114OSM    H5S11850   4.437   4.023  10.948  0.6153 -0.2575 -1.8150
  114OSM    C6S11851   4.367   4.091  10.758  0.0517  0.3177  0.1771
  114OSM    H6S11852   4.476   4.102  10.739  0.1880 -2.1438 -0.8270
  114OSM    H6T11853   4.327   4.195  10.759 -0.7494  0.0100  0.9147
  114OSM    C7S11854   4.305   4.006  10.646 -0.1700  0.7572 -0.3448
  114OSM    H7S11855   4.194   4.006  10.652 -0.1647  2.7461  0.7665
  114OSM    H7T11856   4.352   3.906  10.647 -2.2296 -0.2597 -0.2396
  114OSM    C8S11857   4.338   4.061  10.505 -0.0443 -0.1971  0.5105
  114OSM    H8S11858   4.449   4.064  10.493  0.0467  2.3302  1.3518
  114OSM    H8T11859   4.307   4.167  10.492  1.1875  0.3017  1.4627
  114OSM    C9S11860   4.271   3.989  10.392 -0.3510 -0.0884  0.0861
  114OSM    H9S11861   4.164   3.984  10.419 -0.0280 -3.6190  1.2832
  114OSM    H9T11862   4.292   3.882  10.368 -1.2363  0.2530 -2.4433
  114OSM   C10S11863   4.293   4.058  10.254 -0.0141  0.5495 -0.1111
  114OSM   H10S11864   4.390   4.026  10.208 -0.4039  0.5305 -0.9448
  114OSM   H10T11865   4.293   4.169  10.260  1.0099  0.4733  2.6247
  114OSM   C11S11866   4.185   4.014  10.146  0.6156  0.0910  0.4566
  114OSM   H11S11867   4.081   4.038  10.174  1.4908  1.9302  2.3815
  114OSM   H11T11868   4.196   3.904  10.128  2.1875  0.4560 -1.1862
  114OSM   C12S11869   4.207   4.082  10.013  0.0744 -0.2386 -0.2994
  114OSM   H12S11870   4.310   4.058   9.978  0.9029  2.0745  0.3376
  114OSM   H12T11871   4.211   4.193  10.026 -0.6619 -0.2434 -0.0298
  114OSM   C13S11872   4.091   4.067   9.913 -0.4417 -0.0207 -0.1171
  114OSM   H13S11873   3.991   4.105   9.945  0.8306  2.6219  1.0198
  114OSM   H13T11874   4.089   3.957   9.900  3.0243  0.0898 -3.3950
  114OSM   C14S11875   4.112   4.122   9.766 -0.6010  0.0191  0.2900
  114OSM   H14S11876   4.198   4.063   9.726  2.1661  2.1198  2.6337
  114OSM   H14T11877   4.142   4.227   9.784 -0.3095 -0.3939  2.4677
  114OSM   C15S11878   3.993   4.117   9.671  0.4794 -1.0664 -0.2415
  114OSM   H15S11879   3.951   4.014   9.673  0.4094 -1.0265  0.7630
  114OSM   H15T11880   4.025   4.148   9.569  0.5608  2.5905  0.7441
  114OSM   C16S11881   3.891   4.227   9.704  0.6769  0.9348 -0.7479
  114OSM   H16S11882   3.839   4.215   9.801 -0.8555 -4.3432 -1.9129
  114OSM   H16T11883   3.812   4.199   9.631  0.6112  0.8893 -0.6578
  114OSM   C17S11884   3.947   4.361   9.680 -0.9968 -0.2248  0.8424
  114OSM   H17S11885   4.013   4.363   9.591 -0.4066  1.3446  1.2775
  114OSM   H17T11886   4.005   4.395   9.768  0.4781  0.2394 -0.2574
  114OSM   C18S11887   3.840   4.462   9.646 -0.8887  0.0613 -0.1432
  114OSM   H18S11888   3.760   4.421   9.580  0.0466 -1.6625 -0.2793
  114OSM   H18T11889   3.884   4.546   9.589  1.5333 -1.6903 -1.0543
  114OSM   H18U11890   3.799   4.511   9.737 -0.7391 -2.0726  1.1504
  114OSM    C1F11891   3.921   4.137  11.147 -0.5275  0.6970 -0.1479
  114OSM     OF11892   3.976   4.219  11.223  0.6119 -0.4451 -0.5617
  114OSM    C2F11893   3.774   4.148  11.112 -0.0689  0.4757 -0.0035
  114OSM    H2F11894   3.716   4.088  11.184  2.7815 -1.6920  0.6598
  114OSM    H2G11895   3.764   4.103  11.011  0.9695  0.4975 -0.1249
  114OSM    C3F11896   3.723   4.294  11.097 -0.9790  0.6771  0.0138
  114OSM    H3F11897   3.783   4.357  11.028 -0.5753  0.9739  0.6202
  114OSM    H3G11898   3.747   4.356  11.187 -1.0143  0.0205  0.4790
  114OSM    C4F11899   3.575   4.292  11.057  0.0601  0.4671 -0.2375
  114OSM    H4F11900   3.532   4.198  11.097  0.6337 -0.3168 -1.4207
  114OSM    H4G11901   3.567   4.287  10.946  2.3962 -0.1792 -0.4187
  114OSM    C5F11902   3.510   4.426  11.091  0.4102  0.3878 -0.2636
  114OSM    H5F11903   3.544   4.500  11.015 -0.4717 -1.2261 -2.3527
  114OSM    H5G11904   3.545   4.460  11.190  1.6514  1.7947 -1.1381
  114OSM    C6F11905   3.364   4.419  11.109  0.7088 -0.0368  0.4154
  114OSM    H6F11906   3.329   4.317  11.137 -0.3262  0.5828  1.4507
  114OSM    H6G11907   3.312   4.439  11.013  0.7836  1.5517  0.6807
  114OSM    C7F11908   3.311   4.491  11.228 -0.3216  0.3439 -0.5292
  114OSM    H7F11909   3.351   4.595  11.221 -0.4044  0.3444 -1.0934
  114OSM    H7G11910   3.358   4.447  11.318 -0.3661 -0.8964 -1.0945
  114OSM    C8F11911   3.152   4.498  11.231  0.3572  0.0969 -0.1458
  114OSM    H8F11912   3.118   4.560  11.146  0.9402  1.2035  0.4078
  114OSM    H8G11913   3.115   4.554  11.320 -0.7635 -1.1068  0.1715
  114OSM    C9F11914   3.070   4.365  11.240  0.0905 -0.1276 -0.4720
  114OSM    H9F11915   3.110   4.291  11.311 -0.5630  1.6813  1.8908
  114OSM   C10F11916   2.966   4.327  11.158  0.6434 -0.5198  0.4601
  114OSM   H10F11917   2.906   4.237  11.181  0.4355 -0.1612  1.3786
  114OSM   C11F11918   2.916   4.410  11.041  0.6296  0.1949  0.1714
  114OSM   H11F11919   2.933   4.518  11.059  0.2678  0.0291  1.6703
  114OSM   H11G11920   2.808   4.388  11.027  0.4140  1.1043  0.3474
  114OSM   C12F11921   2.989   4.368  10.916  0.3706  0.1098  0.5223
  114OSM   H12F11922   2.981   4.258  10.912 -0.7069  0.1492  1.0875
  114OSM   H12G11923   3.096   4.385  10.942  0.0991  1.2552  0.9755
  114OSM   C13F11924   2.952   4.434  10.783 -0.4956 -0.4560  0.6492
  114OSM   H13F11925   2.842   4.448  10.775 -0.6573 -2.7887 -3.6500
  114OSM   H13G11926   2.983   4.365  10.702  0.2107  0.2419  0.3246
  114OSM   C14F11927   3.011   4.580  10.765  0.2540  0.0931 -0.1638
  114OSM   H14F11928   3.012   4.638  10.860 -2.4399  0.3652 -0.2172
  114OSM   H14G11929   2.932   4.622  10.699 -0.3115  1.5253  1.3526
  114OSM   C15F11930   3.155   4.579  10.713  0.9374  0.4811 -0.5070
  114OSM   H15F11931   3.150   4.525  10.616 -4.1437 -0.1769 -0.1510
  114OSM   H15G11932   3.237   4.532  10.771  0.5849  0.8729  0.3302
  114OSM   C16F11933   3.215   4.716  10.681 -0.5283  0.3317 -0.1245
  114OSM   H16F11934   3.132   4.773  10.634 -0.5170 -1.4605 -2.4919
  114OSM   H16G11935   3.297   4.707  10.607 -0.8438  0.9916 -0.5605
  114OSM   C17F11936   3.267   4.790  10.800 -0.0944  0.2987 -0.2863
  114OSM   H17F11937   3.207   4.763  10.889  0.4422  0.7723  0.2274
  114OSM   H17G11938   3.273   4.900  10.785 -2.7921  0.4953 -0.3928
  114OSM   C18F11939   3.403   4.754  10.855 -0.9249  0.4886 -0.3777
  114OSM   H18F11940   3.410   4.803  10.954 -3.3879 -1.5431  0.9069
  114OSM   H18G11941   3.481   4.783  10.781  0.3741 -0.0132  0.7567
  114OSM   H18H11942   3.406   4.644  10.871 -0.2439  0.6405  0.6330
  115OSM      N11943   6.584   5.617   6.259 -0.0772 -0.3159 -0.2531
  115OSM    C1511944   6.700   5.562   6.192  0.0054 -0.0741  0.3684
  115OSM   H15A11945   6.692   5.455   6.180 -1.0698  0.1704 -1.4522
  115OSM   H15B11946   6.788   5.591   6.248  0.2616 -0.9942  0.4631
  115OSM   H15C11947   6.709   5.602   6.092  1.1128 -0.0815  0.4558
  115OSM    C1411948   6.579   5.757   6.208 -0.1847  0.6893 -0.8230
  115OSM   H14A11949   6.502   5.808   6.263  0.2803  1.6302 -1.0265
  115OSM   H14B11950   6.563   5.750   6.101  2.1203  1.4159 -1.2699
  115OSM   H14C11951   6.670   5.809   6.235 -0.0761 -0.2207  0.6683
  115OSM    C1311952   6.466   5.546   6.206 -0.1875 -0.0660  0.1884
  115OSM   H13A11953   6.464   5.564   6.100  0.8146  1.8419  0.4666
  115OSM   H13B11954   6.371   5.586   6.239 -0.2382 -1.1921  1.5179
  115OSM   H13C11955   6.475   5.441   6.232  0.6018  0.1396  0.7735
  115OSM    C1211956   6.596   5.615   6.408  0.2604  0.0844 -0.3580
  115OSM   H12A11957   6.690   5.659   6.438 -0.1313  0.5242  0.2336
  115OSM   H12B11958   6.596   5.510   6.435 -4.4271 -0.0439 -0.0575
  115OSM    C1111959   6.472   5.667   6.491 -0.9461 -0.0344  0.0621
  115OSM   H11A11960   6.506   5.646   6.595  0.7390  0.3636 -0.3839
  115OSM   H11B11961   6.390   5.595   6.474 -0.1568 -1.0211  0.3001
  115OSM      P11962   6.301   5.854   6.465  0.3415 -0.1119 -0.6003
  115OSM    O1311963   6.286   5.963   6.370 -0.3049 -0.1628 -0.0720
  115OSM    O1411964   6.210   5.740   6.447 -0.5224 -0.0311 -0.2974
  115OSM    O1111965   6.286   5.923   6.603 -0.0612  0.2454  0.4200
  115OSM    O1211966   6.453   5.801   6.462  0.2044  0.2928 -0.0600
  115OSM    C1S11967   6.319   5.863   6.730 -0.6124  0.6154  0.1117
  115OSM    H1S11968   6.424   5.830   6.739 -0.4090  1.3614  0.5589
  115OSM    H1T11969   6.260   5.770   6.746  0.0767 -0.1603 -1.6673
  115OSM     NF11970   6.307   5.900   6.971 -0.4238  0.0259 -0.4413
  115OSM    HNF11971   6.222   5.879   7.019 -1.1928  0.9475 -1.3534
  115OSM    C2S11972   6.296   5.964   6.845 -0.3239  0.2072 -0.3134
  115OSM    H2S11973   6.387   6.028   6.839  1.4982 -2.4011 -3.3284
  115OSM    C3S11974   6.166   6.048   6.830  0.3381  0.5211 -0.0298
  115OSM    H3S11975   6.084   5.974   6.841  1.5307 -0.6228  1.6241
  115OSM     O311976   6.132   6.100   6.705  0.2459  0.0711 -0.3948
  115OSM    HO311977   6.193   6.041   6.660 -0.2417 -0.1439 -0.7845
  115OSM    C4S11978   6.165   6.162   6.939  0.5242  0.0100  0.2384
  115OSM    H4S11979   6.136   6.130   7.040 -1.5144  1.0109  0.0310
  115OSM    C5S11980   6.200   6.290   6.927 -0.4355  0.8081 -0.1895
  115OSM    H5S11981   6.241   6.326   6.832 -2.8967  2.7071 -0.6071
  115OSM    C6S11982   6.208   6.387   7.043  0.1451  0.6565 -0.0837
  115OSM    H6S11983   6.107   6.430   7.059  0.6349  1.2413  1.5461
  115OSM    H6T11984   6.255   6.479   7.003 -0.1480  0.7704 -0.1646
  115OSM    C7S11985   6.274   6.349   7.178 -0.1170 -0.2024  0.1515
  115OSM    H7S11986   6.384   6.363   7.167  0.1818 -2.3710 -0.0307
  115OSM    H7T11987   6.266   6.238   7.186  1.1124 -0.1881  2.0383
  115OSM    C8S11988   6.217   6.417   7.302 -0.9593  0.2988  0.6164
  115OSM    H8S11989   6.112   6.389   7.324 -0.9723  0.1199  0.3289
  115OSM    H8T11990   6.213   6.527   7.288  0.4307  0.4119  0.8904
  115OSM    C9S11991   6.299   6.376   7.423 -0.3045  0.6732 -0.2094
  115OSM    H9S11992   6.403   6.361   7.386  0.0953  1.6184  0.5052
  115OSM    H9T11993   6.263   6.276   7.457 -0.8434  0.8213 -0.3399
  115OSM   C10S11994   6.302   6.469   7.540 -0.0760  0.1189 -0.3323
  115OSM   H10S11995   6.196   6.496   7.558 -0.2632 -0.3378 -0.7422
  115OSM   H10T11996   6.352   6.565   7.512 -1.4728  0.8030 -0.5763
  115OSM   C11S11997   6.355   6.402   7.673  0.4368 -0.1177  0.2531
  115OSM   H11S11998   6.449   6.346   7.658 -0.2545 -1.8105  1.8055
  115OSM   H11T11999   6.279   6.323   7.693 -0.9164  1.1693  0.4003
  115OSM   C12S12000   6.351   6.503   7.792 -0.6305 -0.0815  0.3306
  115OSM   H12S12001   6.244   6.532   7.798 -1.0850 -1.5458 -0.3022
  115OSM   H12T12002   6.411   6.593   7.769 -0.4395 -0.4598 -0.6859
  115OSM   C13S12003   6.404   6.428   7.923 -0.5108  0.5922  0.2030
  115OSM   H13S12004   6.328   6.348   7.933 -0.0107  0.1767  0.7442
  115OSM   H13T12005   6.398   6.497   8.009  0.9238 -0.0009  0.8141
  115OSM   C14S12006   6.553   6.389   7.903  0.0849 -0.4653 -0.1317
  115OSM   H14S12007   6.599   6.487   7.881 -2.7868  1.0311  0.0592
  115OSM   H14T12008   6.565   6.324   7.813 -1.5989 -0.2056 -0.5857
  115OSM   C15S12009   6.619   6.333   8.028 -0.2727  0.2958 -0.2915
  115OSM   H15S12010   6.722   6.297   8.006 -1.3395 -1.0314 -3.6089
  115OSM   H15T12011   6.555   6.247   8.057 -0.2608  0.0551 -0.9559
  115OSM   C16S12012   6.628   6.431   8.148  0.1405 -0.6971  0.4114
  115OSM   H16S12013   6.529   6.463   8.186  0.2528 -0.5612  0.5989
  115OSM   H16T12014   6.673   6.524   8.106 -1.5719 -0.6441 -1.3858
  115OSM   C17S12015   6.694   6.368   8.270 -0.1555 -0.0241  0.4074
  115OSM   H17S12016   6.796   6.330   8.245 -1.4532 -2.7418 -1.1516
  115OSM   H17T12017   6.637   6.283   8.312  1.4553 -1.2194  0.2891
  115OSM   C18S12018   6.705   6.464   8.390  0.3018 -0.1545  0.0055
  115OSM   H18S12019   6.617   6.462   8.457 -0.3771 -1.0752 -0.8829
  115OSM   H18T12020   6.726   6.568   8.359 -2.0523  0.7232  1.1832
  115OSM   H18U12021   6.788   6.432   8.458 -0.5825 -0.2894  1.0521
  115OSM    C1F12022   6.414   5.852   7.032  0.2405 -0.0235  0.1193
  115OSM     OF12023   6.525   5.862   6.980 -0.3939  0.5870 -0.2724
  115OSM    C2F12024   6.392   5.787   7.168 -0.3050 -0.5969 -0.9770
  115OSM    H2F12025   6.297   5.729   7.168  0.1871 -1.4129 -0.7785
  115OSM    H2G12026   6.379   5.860   7.250  0.9570  0.8955 -2.0435
  115OSM    C3F12027   6.508   5.695   7.222 -0.7101 -0.4055 -0.6890
  115OSM    H3F12028   6.603   5.751   7.238  0.0112 -1.1287 -2.2524
  115OSM    H3G12029   6.529   5.623   7.140 -1.3295  0.1658 -1.3657
  115OSM    C4F12030   6.470   5.614   7.350  0.1600 -0.0418 -0.1448
  115OSM    H4F12031   6.435   5.515   7.315 -2.0899  0.3984  0.7124
  115OSM    H4G12032   6.390   5.671   7.402  1.8531  3.0403 -0.6454
  115OSM    C5F12033   6.568   5.589   7.460 -0.9167 -0.8290  0.1964
  115OSM    H5F12034   6.629   5.680   7.479 -1.7193 -0.3508  0.5457
  115OSM    H5G12035   6.654   5.527   7.426 -1.7880 -0.8910 -2.0737
  115OSM    C6F12036   6.509   5.529   7.590 -0.2987  0.1633  0.3288
  115OSM    H6F12037   6.446   5.451   7.543 -0.5080  1.3147 -1.3960
  115OSM    H6G12038   6.439   5.593   7.648  0.1171 -0.9457  2.1236
  115OSM    C7F12039   6.619   5.479   7.684  0.2951 -0.0479 -0.8117
  115OSM    H7F12040   6.701   5.553   7.697 -0.3802  0.9756 -2.1411
  115OSM    H7G12041   6.658   5.382   7.646 -1.5333  0.0352 -3.0846
  115OSM    C8F12042   6.549   5.455   7.820 -0.2174  0.3796 -0.7060
  115OSM    H8F12043   6.467   5.383   7.801  0.1180 -0.9076  2.1177
  115OSM    H8G12044   6.508   5.549   7.863  0.3010  0.6244 -0.7377
  115OSM    C9F12045   6.623   5.381   7.926 -0.1928 -0.5418 -0.3097
  115OSM    H9F12046   6.722   5.348   7.892  1.1006  2.1022  0.5974
  115OSM   C10F12047   6.588   5.371   8.060 -0.6155  0.3356  0.3176
  115OSM   H10F12048   6.658   5.316   8.124  1.1172  2.1940  0.1259
  115OSM   C11F12049   6.466   5.435   8.124 -0.5361  0.6991  0.3022
  115OSM   H11F12050   6.381   5.364   8.113  0.7661 -1.0947  1.1520
  115OSM   H11G12051   6.445   5.521   8.058  1.2804 -0.0089 -1.3037
  115OSM   C12F12052   6.487   5.482   8.270  0.3003  0.2283  0.7501
  115OSM   H12F12053   6.386   5.522   8.295 -0.8625 -0.5159 -2.3291
  115OSM   H12G12054   6.568   5.558   8.273 -0.4461  1.0824 -0.0739
  115OSM   C13F12055   6.517   5.377   8.379 -0.6203  0.9026 -0.3452
  115OSM   H13F12056   6.605   5.312   8.362  0.0660  1.7726 -0.2119
  115OSM   H13G12057   6.426   5.313   8.385  0.4939 -1.1921 -3.3007
  115OSM   C14F12058   6.524   5.449   8.513 -0.0790 -0.2110  0.1053
  115OSM   H14F12059   6.441   5.520   8.536 -0.0645 -0.3049  0.4661
  115OSM   H14G12060   6.620   5.504   8.515  1.3927 -2.4200 -2.5804
  115OSM   C15F12061   6.533   5.361   8.635  0.0510 -0.1786  0.2952
  115OSM   H15F12062   6.629   5.305   8.632 -0.2936 -0.7666 -2.1050
  115OSM   H15G12063   6.447   5.290   8.643  0.1898 -0.3617  0.1562
  115OSM   C16F12064   6.539   5.452   8.759  0.3670 -0.0717  0.0183
  115OSM   H16F12065   6.446   5.511   8.756  1.2239  1.2960 -0.5718
  115OSM   H16G12066   6.624   5.524   8.758 -0.2078  0.6073 -1.0083
  115OSM   C17F12067   6.549   5.375   8.894 -0.1894  0.0094 -1.2943
  115OSM   H17F12068   6.565   5.453   8.971 -0.0362  0.4430 -1.7633
  115OSM   H17G12069   6.641   5.318   8.868  0.2308  0.8775 -1.7373
  115OSM   C18F12070   6.423   5.289   8.933  0.3904 -0.0569 -0.2174
  115OSM   H18F12071   6.345   5.359   8.969  0.4662 -0.3663  0.5714
  115OSM   H18G12072   6.442   5.232   9.027 -2.1589  1.8726  1.6148
  115OSM   H18H12073   6.384   5.223   8.853 -1.4049  1.0614 -0.3051
  116OSM      N12074   5.608   3.811   6.287  0.5964  0.7745 -0.3535
  116OSM    C1512075   5.743   3.752   6.267 -0.1176 -0.1507 -0.3588
  116OSM   H15A12076   5.758   3.729   6.163  1.1446 -1.2330  0.0259
  116OSM   H15B12077   5.753   3.654   6.310  1.1660  0.5020  0.9452
  116OSM   H15C12078   5.830   3.804   6.305  0.8070 -1.6616 -0.3606
  116OSM    C1412079   5.585   3.935   6.212 -0.3132 -0.3230  0.1798
  116OSM   H14A12080   5.633   4.018   6.262 -0.0975  0.5466 -1.3985
  116OSM   H14B12081   5.482   3.963   6.196  0.4089  1.0379 -2.8833
  116OSM   H14C12082   5.621   3.920   6.111  0.2593 -0.2018  0.3593
  116OSM    C1312083   5.505   3.714   6.238  0.2651  0.2617 -0.3370
  116OSM   H13A12084   5.491   3.699   6.132 -0.1786 -1.3010 -0.0960
  116OSM   H13B12085   5.405   3.734   6.272  0.5574 -1.1868  1.5433
  116OSM   H13C12086   5.513   3.622   6.294 -1.7108 -1.3721 -2.5225
  116OSM    C1212087   5.595   3.831   6.434 -0.1498  0.9438  0.2456
  116OSM   H12A12088   5.665   3.908   6.465  2.7175 -1.2384 -0.3679
  116OSM   H12B12089   5.624   3.742   6.489  0.1541  1.1281  0.3836
  116OSM    C1112090   5.449   3.865   6.485 -0.3630 -0.3092 -0.3549
  116OSM   H11A12091   5.411   3.955   6.431 -0.4908 -0.1555 -0.0089
  116OSM   H11B12092   5.463   3.903   6.588  0.2138  0.0618 -0.5652
  116OSM      P12093   5.201   3.778   6.535 -0.2617 -0.1365 -0.1433
  116OSM    O1312094   5.130   3.886   6.471  0.2403 -0.6012 -0.3863
  116OSM    O1412095   5.135   3.647   6.547 -0.4039  0.4914 -0.0185
  116OSM    O1112096   5.232   3.834   6.689  0.1638 -0.3670  0.2875
  116OSM    O1212097   5.352   3.759   6.483 -0.0755 -0.2399  0.5127
  116OSM    C1S12098   5.292   3.746   6.777 -0.4998  0.4923  0.1321
  116OSM    H1S12099   5.398   3.733   6.747 -0.8870  0.5837 -1.3500
  116OSM    H1T12100   5.231   3.655   6.794 -1.9111  1.5299  0.8528
  116OSM     NF12101   5.367   3.707   7.018  0.2499 -0.7750  0.4582
  116OSM    HNF12102   5.306   3.658   7.081 -0.8546  0.4445  0.3815
  116OSM    C2S12103   5.305   3.805   6.927  0.0724 -0.0102  0.2272
  116OSM    H2S12104   5.365   3.898   6.924 -0.2017  0.2405  1.6652
  116OSM    C3S12105   5.151   3.839   6.966 -0.6948  0.0957 -0.2476
  116OSM    H3S12106   5.095   3.744   6.976  0.7853 -0.5424  3.4488
  116OSM     O312107   5.066   3.922   6.880 -0.1192 -0.0796 -0.0369
  116OSM    HO312108   5.128   3.937   6.809 -0.4126 -0.9769 -0.4848
  116OSM    C4S12109   5.149   3.891   7.110  0.3295  0.7641  0.2826
  116OSM    H4S12110   5.162   3.804   7.177  1.3656  0.1050 -0.7387
  116OSM    C5S12111   5.125   4.013   7.160  1.0029 -0.5788  0.5276
  116OSM    H5S12112   5.110   4.098   7.091  0.0049 -0.7602  0.5003
  116OSM    C6S12113   5.121   4.043   7.307  0.6279 -0.0008 -0.5814
  116OSM    H6S12114   5.188   3.982   7.372 -0.3798 -0.7992 -0.2501
  116OSM    H6T12115   5.019   4.017   7.346  1.6821  1.0405  3.3684
  116OSM    C7S12116   5.156   4.192   7.345  0.4919  0.6869 -0.7017
  116OSM    H7S12117   5.083   4.265   7.304 -1.9486 -0.7647  0.8640
  116OSM    H7T12118   5.253   4.223   7.300  1.7318 -1.0768  0.6224
  116OSM    C8S12119   5.173   4.220   7.491  0.3727 -0.2907 -0.0531
  116OSM    H8S12120   5.206   4.326   7.497  0.5031 -0.2193 -1.6895
  116OSM    H8T12121   5.262   4.166   7.531  1.3226  0.5278 -0.9834
  116OSM    C9S12122   5.046   4.196   7.573  0.3300 -0.2071 -0.5239
  116OSM    H9S12123   5.026   4.088   7.551  1.5012 -0.6086  0.3105
  116OSM    H9T12124   4.969   4.260   7.525 -0.0758  0.3866  0.8869
  116OSM   C10S12125   5.061   4.219   7.721 -0.0340 -0.4872  0.3336
  116OSM   H10S12126   5.073   4.327   7.742  0.1531 -0.8508  2.3869
  116OSM   H10T12127   5.149   4.161   7.758  0.6996 -0.4435 -1.2909
  116OSM   C11S12128   4.940   4.188   7.808 -0.2150  0.3051  0.5549
  116OSM   H11S12129   4.911   4.084   7.783  1.6987 -0.1335 -0.0061
  116OSM   H11T12130   4.857   4.258   7.784  0.3770  0.2752 -1.8983
  116OSM   C12S12131   4.965   4.186   7.959  0.1095  0.2966 -0.0313
  116OSM   H12S12132   4.984   4.288   7.999 -0.6633 -1.2988  5.0580
  116OSM   H12T12133   5.059   4.126   7.966  2.1274  3.3819  1.6784
  116OSM   C13S12134   4.861   4.124   8.048  0.8391 -0.3565  0.4348
  116OSM   H13S12135   4.870   4.016   8.023  2.2241 -0.0441 -0.5225
  116OSM   H13T12136   4.755   4.154   8.034  0.5127  0.8133  4.2654
  116OSM   C14S12137   4.909   4.141   8.191 -0.1574 -0.6327  0.0268
  116OSM   H14S12138   4.901   4.246   8.224 -1.4825 -1.0320  1.0521
  116OSM   H14T12139   5.013   4.103   8.201  0.3045  1.1699  3.1432
  116OSM   C15S12140   4.818   4.055   8.283  0.0831  0.2532 -0.1029
  116OSM   H15S12141   4.846   3.951   8.257 -1.9778 -0.4333  0.2476
  116OSM   H15T12142   4.711   4.079   8.268  0.0967  0.7380  0.5482
  116OSM   C16S12143   4.860   4.063   8.431 -0.2897  0.8042 -0.5271
  116OSM   H16S12144   4.969   4.042   8.430 -0.4021 -0.3194  2.3604
  116OSM   H16T12145   4.812   3.977   8.483  1.3540  1.0163  1.4752
  116OSM   C17S12146   4.825   4.197   8.485 -0.4184  0.5559  0.5128
  116OSM   H17S12147   4.731   4.245   8.449 -0.4303 -0.7482 -1.2642
  116OSM   H17T12148   4.900   4.267   8.444  1.7173 -0.6685  2.1309
  116OSM   C18S12149   4.829   4.204   8.641 -0.1048  0.4285 -0.0048
  116OSM   H18S12150   4.930   4.169   8.672 -0.2549  1.0299  1.2316
  116OSM   H18T12151   4.761   4.123   8.673  0.6859  0.3857  1.7028
  116OSM   H18U12152   4.799   4.306   8.673 -2.5112 -0.2621  0.1376
  116OSM    C1F12153   5.496   3.694   7.027 -0.3695  0.2433 -0.1446
  116OSM     OF12154   5.569   3.771   6.970 -0.0651  0.4955  0.2869
  116OSM    C2F12155   5.545   3.576   7.109  1.0688  0.8030 -0.1271
  116OSM    H2F12156   5.546   3.479   7.054 -0.2979  0.1577  0.9402
  116OSM    H2G12157   5.489   3.565   7.204  0.1299 -1.9349 -0.8958
  116OSM    C3F12158   5.691   3.615   7.146  0.3667  0.0624 -0.3831
  116OSM    H3F12159   5.702   3.721   7.179  0.0709  0.7232 -2.2463
  116OSM    H3G12160   5.759   3.609   7.058 -1.3479  0.4419 -1.7906
  116OSM    C4F12161   5.748   3.534   7.267 -0.1310  0.4144  0.7983
  116OSM    H4F12162   5.858   3.549   7.278 -0.2115  0.7576  1.1486
  116OSM    H4G12163   5.741   3.426   7.245 -1.4970  0.5895  0.2714
  116OSM    C5F12164   5.692   3.565   7.405 -0.1207 -0.1899  0.7557
  116OSM    H5F12165   5.587   3.530   7.417  0.2222 -3.0927 -2.8720
  116OSM    H5G12166   5.699   3.675   7.417  0.5659 -0.1740  0.2843
  116OSM    C6F12167   5.782   3.506   7.518 -0.1297 -0.1024 -0.6759
  116OSM    H6F12168   5.810   3.400   7.497 -1.0213 -0.1607 -1.6928
  116OSM    H6G12169   5.732   3.510   7.617 -0.9120  2.2300 -1.1111
  116OSM    C7F12170   5.915   3.587   7.549  1.1139  0.0413  0.2768
  116OSM    H7F12171   5.881   3.685   7.587 -0.5063  0.0382 -1.0551
  116OSM    H7G12172   5.976   3.591   7.456  1.5267 -2.1930  0.3804
  116OSM    C8F12173   5.997   3.530   7.669  0.6007  0.1323 -0.4308
  116OSM    H8F12174   6.027   3.428   7.639 -0.6639 -0.1219 -0.9079
  116OSM    H8G12175   5.916   3.511   7.743 -0.2782  0.1588 -1.3615
  116OSM    C9F12176   6.110   3.610   7.722 -0.5089  0.1810 -0.1874
  116OSM    H9F12177   6.191   3.626   7.650 -0.6881  0.4752 -0.3275
  116OSM   C10F12178   6.116   3.656   7.849 -0.6727  0.4619 -0.1895
  116OSM   H10F12179   6.210   3.704   7.879  0.8667 -0.8402 -2.5959
  116OSM   C11F12180   6.018   3.639   7.968 -0.4120 -0.5411  0.1080
  116OSM   H11F12181   5.958   3.545   7.962  0.5463 -1.1473 -0.2269
  116OSM   H11G12182   5.945   3.722   7.980 -0.7100 -0.8145  0.1996
  116OSM   C12F12183   6.083   3.632   8.110  0.0312  0.4280 -0.2997
  116OSM   H12F12184   6.135   3.728   8.129  0.2826  0.5919 -1.6914
  116OSM   H12G12185   6.150   3.543   8.114 -0.8896 -0.2565  0.1825
  116OSM   C13F12186   5.985   3.622   8.221  0.1556 -0.9684  0.4573
  116OSM   H13F12187   5.946   3.518   8.210  0.5845 -1.0921  0.0611
  116OSM   H13G12188   5.909   3.703   8.210  1.1735 -0.0023  0.4070
  116OSM   C14F12189   6.053   3.628   8.357 -0.6762  0.7101 -0.1659
  116OSM   H14F12190   6.154   3.673   8.346  0.0488 -1.2453 -2.1528
  116OSM   H14G12191   6.058   3.526   8.400 -0.1723 -0.3947 -2.6690
  116OSM   C15F12192   5.989   3.715   8.461 -0.5811 -0.5086  0.1660
  116OSM   H15F12193   5.911   3.659   8.517  0.1155 -2.9250 -1.1227
  116OSM   H15G12194   5.938   3.800   8.410 -0.5026 -0.5831 -0.0395
  116OSM   C16F12195   6.103   3.779   8.557  0.1638  0.6416 -0.3611
  116OSM   H16F12196   6.057   3.861   8.616 -0.8594 -1.1688  1.4761
  116OSM   H16G12197   6.179   3.827   8.492 -0.7457  0.4845 -1.5755
  116OSM   C17F12198   6.170   3.676   8.646  0.2120 -0.1529  0.1151
  116OSM   H17F12199   6.199   3.590   8.581  0.9579 -0.0191  0.2638
  116OSM   H17G12200   6.101   3.631   8.720 -0.2508 -1.1537 -0.8842
  116OSM   C18F12201   6.278   3.732   8.725  0.2361  0.4624  0.0294
  116OSM   H18F12202   6.330   3.654   8.783 -0.6880 -0.3634 -0.2233
  116OSM   H18G12203   6.238   3.801   8.802  1.0980 -0.1555  1.0528
  116OSM   H18H12204   6.357   3.781   8.664  1.0012  0.0168  0.6420
  117OSM      N12205   3.403   5.421   6.164 -0.4492 -0.1760  0.2117
  117OSM    C1512206   3.541   5.451   6.106  0.4283  0.3713 -0.4914
  117OSM   H15A12207   3.583   5.523   6.175 -1.4790  2.2553 -1.1978
  117OSM   H15B12208   3.550   5.486   6.004  0.8214  2.7825  0.2894
  117OSM   H15C12209   3.584   5.352   6.112 -1.4967 -0.4174  2.4677
  117OSM    C1412210   3.428   5.419   6.315 -0.2288 -0.1024  0.3576
  117OSM   H14A12211   3.496   5.338   6.337  0.8997  0.6206 -0.3839
  117OSM   H14B12212   3.336   5.398   6.368  1.0582 -1.4110  2.2471
  117OSM   H14C12213   3.471   5.512   6.349  0.8275 -0.9632  1.4787
  117OSM    C1312214   3.323   5.531   6.124 -0.6305  0.1625  0.0781
  117OSM   H13A12215   3.305   5.541   6.018  3.2359  1.0925 -0.6615
  117OSM   H13B12216   3.373   5.624   6.146 -0.6048  0.1597  0.0318
  117OSM   H13C12217   3.230   5.523   6.178 -0.4854  1.0886  0.4846
  117OSM    C1212218   3.344   5.292   6.116 -0.1833  0.5114  0.0640
  117OSM   H12A12219   3.354   5.305   6.009 -0.4330 -0.1434 -0.0419
  117OSM   H12B12220   3.239   5.292   6.142  0.2967 -2.1124  2.4625
  117OSM    C1112221   3.403   5.155   6.166  0.3856  0.5339  0.3152
  117OSM   H11A12222   3.361   5.077   6.100  1.0990 -0.5639  1.1186
  117OSM   H11B12223   3.376   5.127   6.270 -0.5093  0.8309  0.1704
  117OSM      P12224   3.631   5.064   6.245 -0.0944 -0.2365  0.4852
  117OSM    O1312225   3.585   4.922   6.240  0.3970 -0.0943  0.5204
  117OSM    O1412226   3.777   5.090   6.219 -0.1775  0.2853 -0.6704
  117OSM    O1112227   3.589   5.129   6.384  0.3592  0.0151 -0.0719
  117OSM    O1212228   3.547   5.151   6.145  0.4725  0.2534  0.0857
  117OSM    C1S12229   3.673   5.191   6.479 -1.1612  0.4724 -0.8324
  117OSM    H1S12230   3.675   5.296   6.445 -1.1239  0.7791  0.0861
  117OSM    H1T12231   3.777   5.154   6.474 -0.6135  1.4714  1.5244
  117OSM     NF12232   3.729   5.181   6.713  0.0337 -0.5437 -0.0477
  117OSM    HNF12233   3.730   5.103   6.775  0.0372 -2.1372 -1.9739
  117OSM    C2S12234   3.615   5.180   6.621 -0.3350  0.0108 -0.3130
  117OSM    H2S12235   3.551   5.268   6.647 -1.1945  0.0034 -2.2619
  117OSM    C3S12236   3.531   5.052   6.637  0.5722  0.3672  0.0262
  117OSM    H3S12237   3.584   4.962   6.600  0.6492 -0.3391  1.7695
  117OSM     O312238   3.411   5.066   6.560  0.1422  0.6612 -0.4288
  117OSM    HO312239   3.443   5.105   6.479  0.5766  0.0833 -0.5375
  117OSM    C4S12240   3.482   5.028   6.783 -0.2991 -0.6233  0.0314
  117OSM    H4S12241   3.407   5.100   6.819  0.5965  1.7448 -2.4741
  117OSM    C5S12242   3.519   4.925   6.857 -0.9433  0.0019 -0.0730
  117OSM    H5S12243   3.584   4.853   6.807  0.2118  0.7676  0.2885
  117OSM    C6S12244   3.483   4.891   6.998 -0.1473  0.1402  0.2683
  117OSM    H6S12245   3.565   4.844   7.056  0.4410  1.8987  0.9459
  117OSM    H6T12246   3.386   4.837   7.002 -0.0701 -0.0739 -0.6302
  117OSM    C7S12247   3.445   5.025   7.069 -0.0448  0.6050  0.2102
  117OSM    H7S12248   3.412   4.979   7.164  1.4369 -3.0461 -0.8652
  117OSM    H7T12249   3.353   5.067   7.021  0.1138 -1.2435 -1.8704
  117OSM    C8S12250   3.553   5.137   7.084 -0.0679  0.1692 -0.1790
  117OSM    H8S12251   3.567   5.166   6.978 -1.0735  0.2784 -0.2924
  117OSM    H8T12252   3.647   5.105   7.132 -0.5573  1.3534  1.6829
  117OSM    C9S12253   3.497   5.259   7.159 -0.4820  0.1452 -0.1674
  117OSM    H9S12254   3.394   5.280   7.125 -0.9921 -0.7373  0.7554
  117OSM    H9T12255   3.563   5.342   7.126  0.3154  1.2321  3.6490
  117OSM   C10S12256   3.506   5.240   7.306 -0.2984 -0.2473 -0.0628
  117OSM   H10S12257   3.560   5.328   7.346 -0.3638 -0.4616  0.5099
  117OSM   H10T12258   3.578   5.159   7.331  0.4835  0.1505 -0.9654
  117OSM   C11S12259   3.367   5.217   7.376 -0.3704  0.2241 -0.2885
  117OSM   H11S12260   3.341   5.111   7.357  0.0903  0.2648 -1.1589
  117OSM   H11T12261   3.284   5.276   7.331 -2.8388 -3.1714 -0.5999
  117OSM   C12S12262   3.375   5.247   7.526 -0.3550  0.2152  0.4764
  117OSM   H12S12263   3.375   5.357   7.538 -1.9618  0.0813  2.2144
  117OSM   H12T12264   3.459   5.201   7.583 -1.6345 -1.2125  1.3042
  117OSM   C13S12265   3.248   5.203   7.607 -0.2254 -0.6435 -0.0979
  117OSM   H13S12266   3.240   5.093   7.593  0.0037 -0.4201 -2.3787
  117OSM   H13T12267   3.152   5.242   7.567 -0.6944  0.0072  1.5617
  117OSM   C14S12268   3.264   5.231   7.758  0.9051 -0.1561  0.3958
  117OSM   H14S12269   3.253   5.339   7.779 -0.5361 -0.1861 -0.0949
  117OSM   H14T12270   3.369   5.211   7.785  1.3285  1.1044 -0.2319
  117OSM   C15S12271   3.158   5.152   7.839 -1.2385 -0.8426  0.0453
  117OSM   H15S12272   3.160   5.044   7.811  0.9415 -0.6402 -0.7698
  117OSM   H15T12273   3.058   5.185   7.804 -1.5577 -1.9452 -0.1414
  117OSM   C16S12274   3.163   5.163   7.991  0.7647 -0.5018 -0.1949
  117OSM   H16S12275   3.077   5.107   8.035 -0.2355  0.4265 -0.9097
  117OSM   H16T12276   3.153   5.268   8.026  0.8985 -0.0279 -1.5171
  117OSM   C17S12277   3.287   5.102   8.053  0.3137 -0.0159 -0.4884
  117OSM   H17S12278   3.375   5.140   7.996  0.1518  0.4589 -0.4252
  117OSM   H17T12279   3.301   4.994   8.031  0.6890 -0.4493  1.6130
  117OSM   C18S12280   3.302   5.129   8.198 -0.1708 -0.4506 -0.6692
  117OSM   H18S12281   3.264   5.231   8.220  2.1563  1.1486 -3.3830
  117OSM   H18T12282   3.406   5.113   8.234 -0.7298 -1.5169  0.5374
  117OSM   H18U12283   3.236   5.062   8.258  0.6172  0.0370  0.7941
  117OSM    C1F12284   3.811   5.286   6.732 -0.3508 -0.4154  0.1168
  117OSM     OF12285   3.796   5.393   6.678  1.4270  0.4158  0.0207
  117OSM    C2F12286   3.933   5.246   6.805 -0.9606 -0.3576  0.6972
  117OSM    H2F12287   4.017   5.309   6.769 -0.9499  0.5048  2.1407
  117OSM    H2G12288   3.949   5.137   6.797  2.9187 -0.0140  1.7323
  117OSM    C3F12289   3.921   5.272   6.962  0.0582  0.5466  0.0900
  117OSM    H3F12290   3.829   5.225   7.003  0.6370 -0.6486  0.0393
  117OSM    H3G12291   3.901   5.381   6.973 -0.7999  0.5475 -1.2684
  117OSM    C4F12292   4.051   5.226   7.035  0.6252 -0.6444 -0.1039
  117OSM    H4F12293   4.129   5.304   7.019  1.8206 -1.9750 -1.0161
  117OSM    H4G12294   4.091   5.132   6.991 -1.0499 -1.5678  0.2645
  117OSM    C5F12295   4.021   5.214   7.184 -0.1330  0.2811  0.4888
  117OSM    H5F12296   3.944   5.136   7.203 -2.2105  1.2957 -2.9840
  117OSM    H5G12297   3.972   5.310   7.211 -1.2321 -0.0433 -0.3011
  117OSM    C6F12298   4.134   5.204   7.280 -0.1714 -0.2914 -0.2748
  117OSM    H6F12299   4.212   5.281   7.262 -1.2078  0.9557  0.4441
  117OSM    H6G12300   4.186   5.106   7.268  0.5457  0.1543 -0.9906
  117OSM    C7F12301   4.098   5.222   7.436 -0.1275  0.1000  0.5853
  117OSM    H7F12302   4.017   5.150   7.457 -1.3068  1.5686  1.2429
  117OSM    H7G12303   4.061   5.327   7.442  0.6859  0.3890  0.7198
  117OSM    C8F12304   4.216   5.198   7.538 -0.0597  1.6151  0.1779
  117OSM    H8F12305   4.299   5.269   7.516  0.7353  1.1148  1.4312
  117OSM    H8G12306   4.253   5.099   7.503 -1.1380  1.1128  0.4479
  117OSM    C9F12307   4.179   5.206   7.687  0.0696 -0.3906 -0.0299
  117OSM    H9F12308   4.120   5.121   7.726  0.1413  0.0132  1.0072
  117OSM   C10F12309   4.209   5.306   7.774  0.2188  0.6713  0.0499
  117OSM   H10F12310   4.171   5.306   7.877 -2.0103  3.5918 -0.6439
  117OSM   C11F12311   4.278   5.432   7.743  0.6064  0.1140 -0.5454
  117OSM   H11F12312   4.209   5.498   7.686 -0.6846  0.6193  1.5049
  117OSM   H11G12313   4.367   5.414   7.678 -0.2177 -2.3980 -1.0754
  117OSM   C12F12314   4.319   5.514   7.868 -0.3286  0.2405 -0.3369
  117OSM   H12F12315   4.226   5.528   7.926  0.2875 -0.8732  0.9635
  117OSM   H12G12316   4.352   5.613   7.830  0.2726  0.3961  0.5590
  117OSM   C13F12317   4.436   5.457   7.941  0.4965 -0.0842 -0.3534
  117OSM   H13F12318   4.519   5.435   7.871 -0.6402  0.2055 -1.8477
  117OSM   H13G12319   4.410   5.358   7.985 -2.6445  0.3258 -1.0546
  117OSM   C14F12320   4.484   5.549   8.054  0.6918 -0.7351  0.7170
  117OSM   H14F12321   4.407   5.569   8.132  1.0093 -1.4470  1.2236
  117OSM   H14G12322   4.502   5.646   8.004 -2.9418 -1.3497 -2.2943
  117OSM   C15F12323   4.613   5.497   8.118 -0.8115 -0.5583 -0.4764
  117OSM   H15F12324   4.659   5.434   8.039 -2.5564 -0.7985 -1.3448
  117OSM   H15G12325   4.585   5.429   8.201  0.7937 -0.8237 -0.1074
  117OSM   C16F12326   4.700   5.613   8.173  0.0946 -0.9019  0.4315
  117OSM   H16F12327   4.736   5.663   8.080 -1.8896  0.9548  0.5800
  117OSM   H16G12328   4.789   5.570   8.223 -0.6338  0.6137  3.2344
  117OSM   C17F12329   4.628   5.713   8.262 -0.2897  0.6825 -0.2640
  117OSM   H17F12330   4.537   5.746   8.209 -0.6771  0.4139  0.2235
  117OSM   H17G12331   4.599   5.666   8.359  1.4583  0.8549  0.3748
  117OSM   C18F12332   4.707   5.832   8.307  0.5770 -0.5115 -0.5254
  117OSM   H18F12333   4.804   5.805   8.354 -0.1347  2.5498  3.2413
  117OSM   H18G12334   4.659   5.915   8.365 -1.2393 -1.4854 -0.5546
  117OSM   H18H12335   4.739   5.885   8.215 -1.1131  1.2967 -0.1566
  118OSM      N12336   5.899   0.994   6.003  0.0283  0.4677 -0.3782
  118OSM    C1512337   5.755   1.017   5.999  0.5468 -0.5889 -1.0031
  118OSM   H15A12338   5.730   1.035   5.896  1.5046  0.3335 -1.0812
  118OSM   H15B12339   5.731   1.102   6.062  1.5528 -0.2619 -1.0514
  118OSM   H15C12340   5.698   0.933   6.038 -2.3408  1.5584 -0.2114
  118OSM    C1412341   5.948   0.914   5.878  0.0745 -0.0568  0.3000
  118OSM   H14A12342   6.050   0.881   5.886  0.5481  1.0343 -0.8791
  118OSM   H14B12343   5.943   0.973   5.788 -0.2001 -1.7591 -0.8469
  118OSM   H14C12344   5.880   0.835   5.851  0.3053 -0.0658 -0.2623
  118OSM    C1312345   5.975   1.120   6.005  0.1456 -0.1862 -0.2559
  118OSM   H13A12346   5.927   1.183   6.079 -2.1618  0.6599 -2.3008
  118OSM   H13B12347   5.985   1.158   5.904  1.4984 -1.9241 -0.8185
  118OSM   H13C12348   6.076   1.089   6.028  0.2898 -0.9757 -1.8147
  118OSM    C1212349   5.936   0.914   6.126 -0.4998  0.3664 -0.1047
  118OSM   H12A12350   6.041   0.893   6.112 -0.9308 -1.1655 -1.3941
  118OSM   H12B12351   5.883   0.819   6.121 -2.5527  1.5020 -1.3963
  118OSM    C1112352   5.921   0.960   6.273  0.2745  0.1021 -0.1859
  118OSM   H11A12353   5.975   1.056   6.283 -1.5816  1.3555 -1.4132
  118OSM   H11B12354   5.980   0.895   6.342 -0.6419 -2.5670 -1.7345
  118OSM      P12355   5.723   1.045   6.411  0.2412 -0.2846 -0.2872
  118OSM    O1312356   5.790   1.173   6.384  0.8501  0.2545  0.3265
  118OSM    O1412357   5.574   1.037   6.402 -0.2833  0.1074 -0.1357
  118OSM    O1112358   5.756   0.999   6.557  0.2443 -0.3251  0.4163
  118OSM    O1212359   5.783   0.943   6.317 -0.5514 -0.0810  0.2693
  118OSM    C1S12360   5.788   0.864   6.578 -0.5605  0.7152 -0.9079
  118OSM    H1S12361   5.893   0.837   6.555 -0.0327  0.5508  1.4518
  118OSM    H1T12362   5.722   0.789   6.529  1.4132 -2.3771  0.8961
  118OSM     NF12363   5.770   0.689   6.742  0.0338 -0.2291 -0.0601
  118OSM    HNF12364   5.687   0.651   6.783  0.7207 -0.7736  0.8828
  118OSM    C2S12365   5.771   0.832   6.730 -0.0285 -0.2142 -0.4164
  118OSM    H2S12366   5.855   0.877   6.787 -1.1744  0.1961  1.0110
  118OSM    C3S12367   5.642   0.899   6.798  0.0540 -0.6859 -0.3749
  118OSM    H3S12368   5.550   0.864   6.747 -2.3025  2.1246  1.5929
  118OSM     O312369   5.636   1.037   6.796  0.0751 -0.0194  0.1158
  118OSM    HO312370   5.682   1.058   6.714  0.5640 -1.1837  0.0819
  118OSM    C4S12371   5.619   0.856   6.942  0.4350 -0.6544 -0.3797
  118OSM    H4S12372   5.702   0.873   7.012 -1.4269  0.9725  1.5577
  118OSM    C5S12373   5.495   0.829   6.998  0.2174  0.0532 -1.0822
  118OSM    H5S12374   5.412   0.829   6.926 -0.3947  3.0450 -0.5165
  118OSM    C6S12375   5.464   0.795   7.141 -0.0649 -0.6233  0.3551
  118OSM    H6S12376   5.374   0.731   7.156 -1.3349  1.1973  0.9643
  118OSM    H6T12377   5.457   0.894   7.191  1.4654  0.6007 -1.6873
  118OSM    C7S12378   5.586   0.745   7.217 -1.1314 -0.2682 -0.2987
  118OSM    H7S12379   5.673   0.813   7.211 -0.6685 -0.9132 -0.9996
  118OSM    H7T12380   5.613   0.648   7.170 -0.0739 -0.9396  1.6055
  118OSM    C8S12381   5.566   0.705   7.365  1.0652 -0.8379 -0.0230
  118OSM    H8S12382   5.643   0.628   7.386  0.3523 -1.6636 -0.3579
  118OSM    H8T12383   5.473   0.650   7.393  1.1858 -0.5639  0.9562
  118OSM    C9S12384   5.569   0.821   7.464 -0.7819 -0.1193 -0.0694
  118OSM    H9S12385   5.472   0.874   7.449  0.4437  2.4949  0.5892
  118OSM    H9T12386   5.646   0.892   7.426  1.1224 -1.8413  0.4030
  118OSM   C10S12387   5.591   0.771   7.610  0.0105 -0.3142 -0.0337
  118OSM   H10S12388   5.688   0.717   7.618  1.4532  2.2582  1.2848
  118OSM   H10T12389   5.517   0.703   7.657 -1.1722  1.6835  1.1476
  118OSM   C11S12390   5.598   0.885   7.714  0.1894 -1.1094  0.7005
  118OSM   H11S12391   5.501   0.940   7.724 -0.5599 -2.6463  2.5652
  118OSM   H11T12392   5.679   0.958   7.691 -1.8064  0.9717 -0.1628
  118OSM   C12S12393   5.611   0.827   7.861 -0.3208 -0.1765  0.6379
  118OSM   H12S12394   5.694   0.758   7.889 -0.2252 -0.6680 -0.7592
  118OSM   H12T12395   5.517   0.771   7.879 -1.8080  1.7535 -0.7241
  118OSM   C13S12396   5.621   0.948   7.965  0.4227 -0.2269 -0.0542
  118OSM   H13S12397   5.531   1.010   7.947  0.0730 -0.6724  0.1214
  118OSM   H13T12398   5.706   1.017   7.945 -1.4987  2.6595  1.1538
  118OSM   C14S12399   5.626   0.886   8.111 -0.1092 -0.2028 -0.1851
  118OSM   H14S12400   5.726   0.837   8.113 -1.2033 -2.6166  1.2789
  118OSM   H14T12401   5.559   0.798   8.127  0.7291 -1.3321 -2.5145
  118OSM   C15S12402   5.619   0.986   8.228 -0.0255 -0.1434  0.2086
  118OSM   H15S12403   5.518   1.032   8.234  0.7490  1.6717  0.0178
  118OSM   H15T12404   5.696   1.065   8.214  0.5905 -0.9431 -1.1144
  118OSM   C16S12405   5.650   0.922   8.361 -0.0034  0.7198 -0.1567
  118OSM   H16S12406   5.755   0.886   8.361  0.1302  1.0077 -1.9499
  118OSM   H16T12407   5.573   0.844   8.379 -1.0257  1.5105 -0.9586
  118OSM   C17S12408   5.624   1.021   8.477  0.4793  0.2482  0.1093
  118OSM   H17S12409   5.619   0.954   8.566  1.6939 -0.6253 -0.4600
  118OSM   H17T12410   5.519   1.059   8.477 -0.2405 -1.6134 -0.5625
  118OSM   C18S12411   5.735   1.117   8.505 -0.9503 -0.0862  0.2497
  118OSM   H18S12412   5.720   1.158   8.607  0.0750  0.8211  0.0529
  118OSM   H18T12413   5.738   1.198   8.428  3.2553  1.8998  2.1275
  118OSM   H18U12414   5.837   1.075   8.522  0.2363  3.0166  1.4994
  118OSM    C1F12415   5.873   0.601   6.732 -0.7301  0.6733 -0.4386
  118OSM     OF12416   5.974   0.642   6.666 -0.1306  0.0818  0.0819
  118OSM    C2F12417   5.861   0.460   6.778  0.4349 -0.3416  0.2829
  118OSM    H2F12418   5.832   0.404   6.687  0.9595 -0.2692  0.0615
  118OSM    H2G12419   5.782   0.468   6.855  1.7848  1.6475  1.5764
  118OSM    C3F12420   5.998   0.400   6.832 -0.4569  0.2918 -0.2262
  118OSM    H3F12421   6.062   0.394   6.741 -2.0093 -2.5925 -1.2543
  118OSM    H3G12422   5.972   0.296   6.861 -0.6683 -0.0599 -1.6166
  118OSM    C4F12423   6.072   0.472   6.949 -0.5122  0.1793 -0.2798
  118OSM    H4F12424   6.112   0.566   6.906  1.4535  0.7684  2.5337
  118OSM    H4G12425   6.162   0.410   6.973 -0.8903 -0.0238  0.6450
  118OSM    C5F12426   5.993   0.506   7.078  0.2046 -0.2514  0.2243
  118OSM    H5F12427   5.932   0.426   7.125 -1.4283  2.7670  3.7409
  118OSM    H5G12428   5.923   0.582   7.037  0.8505  0.6726  0.7968
  118OSM    C6F12429   6.086   0.552   7.195  0.5387  0.4318  1.1122
  118OSM    H6F12430   6.171   0.480   7.195  0.2178  0.0329  0.2632
  118OSM    H6G12431   6.040   0.561   7.295  0.3640  1.0924  0.9805
  118OSM    C7F12432   6.156   0.693   7.170 -0.3019  0.3528  0.0067
  118OSM    H7F12433   6.118   0.741   7.078 -0.0694  0.7399  0.1116
  118OSM    H7G12434   6.259   0.667   7.137 -0.4573 -0.4867  0.1546
  118OSM    C8F12435   6.158   0.767   7.299  0.7497  0.4803 -0.2501
  118OSM    H8F12436   6.222   0.857   7.292 -0.3226  1.3082  0.2145
  118OSM    H8G12437   6.200   0.699   7.376  0.7236  0.5903 -0.1383
  118OSM    C9F12438   6.023   0.816   7.335  0.1842  0.0282  0.2394
  118OSM    H9F12439   5.955   0.812   7.248 -0.4279  1.9222  0.5718
  118OSM   C10F12440   5.981   0.867   7.455 -0.3341  0.7229 -0.0147
  118OSM   H10F12441   5.878   0.902   7.471 -0.1467  0.5942  1.7115
  118OSM   C11F12442   6.069   0.889   7.582 -0.5501 -0.3168  0.3896
  118OSM   H11F12443   6.077   0.999   7.598 -0.9188 -0.2649  0.2193
  118OSM   H11G12444   6.177   0.863   7.578 -0.6884 -1.1429  1.6230
  118OSM   C12F12445   6.004   0.842   7.707  0.1561 -0.3258 -0.8931
  118OSM   H12F12446   5.910   0.899   7.722  1.4311  1.5590  0.3707
  118OSM   H12G12447   6.065   0.874   7.794  0.8616 -2.3136 -0.6151
  118OSM   C13F12448   5.981   0.689   7.716  0.0955  0.5371 -0.1073
  118OSM   H13F12449   5.926   0.656   7.625  1.8873  2.1536 -1.8699
  118OSM   H13G12450   5.930   0.654   7.808  1.2349  3.1582  1.6239
  118OSM   C14F12451   6.124   0.622   7.712  0.5933  0.0272  0.4742
  118OSM   H14F12452   6.171   0.633   7.612 -0.6846  0.5325 -0.0950
  118OSM   H14G12453   6.117   0.512   7.719  1.2945 -0.0557  0.0159
  118OSM   C15F12454   6.221   0.667   7.820  0.1509 -0.2243 -0.4129
  118OSM   H15F12455   6.240   0.776   7.824 -1.0898 -0.0206  1.4742
  118OSM   H15G12456   6.312   0.608   7.795  0.7470  1.6558 -2.9660
  118OSM   C16F12457   6.176   0.629   7.964 -0.3842  0.4789  0.1740
  118OSM   H16F12458   6.170   0.518   7.964 -0.6810  0.4927 -0.3245
  118OSM   H16G12459   6.079   0.679   7.987  0.2276  1.4858  0.6344
  118OSM   C17F12460   6.274   0.666   8.078 -0.5516  0.1959 -0.6972
  118OSM   H17F12461   6.294   0.776   8.081  1.2301 -0.0884 -1.0802
  118OSM   H17G12462   6.377   0.627   8.065 -0.6709 -1.0093  1.5209
  118OSM   C18F12463   6.219   0.622   8.217 -0.6421 -0.3866 -0.4748
  118OSM   H18F12464   6.127   0.681   8.233 -0.3892  0.4872 -2.0757
  118OSM   H18G12465   6.298   0.656   8.288 -1.0220  1.4405 -0.8876
  118OSM   H18H12466   6.202   0.512   8.217 -4.2250  0.0387  1.0964
  119OSM      N12467   0.903   0.420   6.079  0.1602  0.1065  0.5577
  119OSM    C1512468   0.795   0.474   5.992  0.7950 -0.6121 -0.0424
  119OSM   H15A12469   0.779   0.412   5.905  2.5755  0.2860 -1.0795
  119OSM   H15B12470   0.805   0.581   5.975  1.6204 -0.8189 -0.9771
  119OSM   H15C12471   0.701   0.473   6.045  0.2988  1.6110 -0.7906
  119OSM    C1412472   0.865   0.269   6.092  0.1737  0.3323 -0.0814
  119OSM   H14A12473   0.853   0.233   5.991 -1.1702  1.6761 -0.4422
  119OSM   H14B12474   0.772   0.255   6.145 -1.1045  0.5077 -2.1538
  119OSM   H14C12475   0.942   0.215   6.146  0.0407  1.3168  1.1464
  119OSM    C1312476   1.035   0.420   6.008  0.2911 -0.4883 -0.1473
  119OSM   H13A12477   1.106   0.367   6.070 -0.8831 -0.1122  1.5766
  119OSM   H13B12478   1.071   0.516   5.975 -0.0521  0.2849  1.6268
  119OSM   H13C12479   1.021   0.354   5.923  0.5218 -0.4489 -0.2167
  119OSM    C1212480   0.908   0.490   6.215 -0.1641  0.3234 -0.3360
  119OSM   H12A12481   0.959   0.429   6.288 -0.2777  0.6363  0.0084
  119OSM   H12B12482   0.806   0.493   6.250  0.4614 -1.2348  1.7634
  119OSM    C1112483   0.969   0.632   6.228  0.0626 -0.0902 -0.1323
  119OSM   H11A12484   1.078   0.617   6.216 -0.2770 -2.2657 -1.0079
  119OSM   H11B12485   0.956   0.669   6.332 -0.4798  0.6994 -0.4722
  119OSM      P12486   1.000   0.857   6.101  0.0531  0.4019 -0.1499
  119OSM    O1312487   1.121   0.822   6.020  0.6196 -0.6517  0.5305
  119OSM    O1412488   0.909   0.955   6.040  0.3854 -0.3571 -0.1849
  119OSM    O1112489   1.042   0.907   6.242  0.2691  0.1182 -0.5801
  119OSM    O1212490   0.921   0.725   6.134  0.6985 -0.4506  0.0776
  119OSM    C1S12491   0.941   0.943   6.344  0.3179 -0.0569 -0.5830
  119OSM    H1S12492   0.851   0.878   6.329 -0.4602  0.4584  1.5455
  119OSM    H1T12493   0.914   1.049   6.324  1.8028  0.8348  1.8065
  119OSM     NF12494   0.861   0.955   6.580 -0.2642  0.1554  0.1032
  119OSM    HNF12495   0.837   1.050   6.596 -0.2453  0.3358 -0.9007
  119OSM    C2S12496   0.981   0.934   6.494  1.2882  0.3225 -0.0752
  119OSM    H2S12497   1.014   0.831   6.519 -0.2510  0.1563  1.4125
  119OSM    C3S12498   1.095   1.036   6.511  0.0361 -0.4262 -0.5928
  119OSM    H3S12499   1.042   1.131   6.490 -2.1191 -0.9089  2.1498
  119OSM     O312500   1.197   1.023   6.416  0.6812  0.0968 -0.2954
  119OSM    HO312501   1.149   0.973   6.350  0.2145 -0.7806  0.6973
  119OSM    C4S12502   1.142   1.032   6.657 -0.6307 -0.1516  0.3987
  119OSM    H4S12503   1.068   1.060   6.733 -1.0543 -0.6130  0.1610
  119OSM    C5S12504   1.264   0.994   6.699  0.0970  0.0260 -0.5579
  119OSM    H5S12505   1.346   0.985   6.626  2.0984  2.0074  1.3065
  119OSM    C6S12506   1.304   0.984   6.839  0.5832  0.1575  0.6732
  119OSM    H6S12507   1.368   1.070   6.868  2.4175 -1.6563  2.2503
  119OSM    H6T12508   1.352   0.885   6.850 -1.2441 -1.1030 -1.8158
  119OSM    C7S12509   1.183   0.966   6.937  0.0716 -0.2696  0.0541
  119OSM    H7S12510   1.123   0.874   6.921 -1.1176  0.5236 -0.1959
  119OSM    H7T12511   1.118   1.056   6.928 -1.6235 -1.1073  2.6127
  119OSM    C8S12512   1.222   0.966   7.088 -0.1104  0.1561  0.2089
  119OSM    H8S12513   1.133   0.964   7.154  1.2989 -1.9408  2.1907
  119OSM    H8T12514   1.281   1.059   7.105  2.6937 -1.3448 -0.6773
  119OSM    C9S12515   1.306   0.850   7.135 -0.2477 -0.5044 -0.1472
  119OSM    H9S12516   1.393   0.841   7.066 -0.2625 -1.1645 -0.0886
  119OSM    H9T12517   1.252   0.756   7.111  2.2551 -1.9111 -0.6053
  119OSM   C10S12518   1.354   0.845   7.287  0.6350 -0.2260 -0.0148
  119OSM   H10S12519   1.261   0.849   7.348 -0.5939  1.0218 -1.8610
  119OSM   H10T12520   1.401   0.944   7.305 -1.3802  0.6462  0.8040
  119OSM   C11S12521   1.445   0.727   7.317  0.2764 -0.3263 -0.4869
  119OSM   H11S12522   1.517   0.707   7.235  1.2995  0.4764  0.1886
  119OSM   H11T12523   1.390   0.631   7.329  0.7926 -0.8200 -1.8877
  119OSM   C12S12524   1.519   0.754   7.447  0.6150  0.3571 -0.3592
  119OSM   H12S12525   1.445   0.729   7.527 -2.5342  1.0310 -2.8535
  119OSM   H12T12526   1.523   0.865   7.451 -0.3321  0.3660  1.4462
  119OSM   C13S12527   1.655   0.694   7.449 -0.0203 -0.1324  0.2507
  119OSM   H13S12528   1.700   0.716   7.350  0.5474 -3.1001 -0.2433
  119OSM   H13T12529   1.644   0.584   7.462  0.2747 -0.1591  0.2896
  119OSM   C14S12530   1.750   0.755   7.550 -0.4783  0.1768 -0.2797
  119OSM   H14S12531   1.751   0.861   7.516  2.3533  1.0462  2.1442
  119OSM   H14T12532   1.844   0.696   7.544 -0.9248 -0.7872  1.5474
  119OSM   C15S12533   1.700   0.727   7.684  0.1494 -0.1780  0.6322
  119OSM   H15S12534   1.684   0.617   7.689 -1.6912 -0.0190 -0.6658
  119OSM   H15T12535   1.605   0.779   7.709  0.6718  1.9414 -1.5315
  119OSM   C16S12536   1.801   0.761   7.798  0.0986 -0.2057  0.0725
  119OSM   H16S12537   1.789   0.864   7.838  1.8700  0.0108  0.1254
  119OSM   H16T12538   1.905   0.749   7.761  0.8020 -1.1830  2.1891
  119OSM   C17S12539   1.778   0.663   7.916 -0.1929 -0.4897  0.0407
  119OSM   H17S12540   1.771   0.561   7.874  0.8070 -0.2876 -0.6699
  119OSM   H17T12541   1.672   0.684   7.939 -0.4596 -1.2203 -0.4761
  119OSM   C18S12542   1.869   0.666   8.035 -0.2143  0.0007  0.2854
  119OSM   H18S12543   1.973   0.632   8.018  0.4338  2.7190 -1.8676
  119OSM   H18T12544   1.825   0.607   8.119  0.5431 -0.0404  0.6674
  119OSM   H18U12545   1.882   0.768   8.078 -3.3983  0.6869 -0.1224
  119OSM    C1F12546   0.767   0.862   6.595  0.1463  0.6444 -0.0061
  119OSM     OF12547   0.787   0.751   6.548 -0.5595  0.3031  0.5818
  119OSM    C2F12548   0.632   0.893   6.660 -0.0868 -0.0549 -0.5743
  119OSM    H2F12549   0.587   0.796   6.692 -0.3139  0.1855 -0.1578
  119OSM    H2G12550   0.551   0.943   6.602 -1.5331  0.6001  1.8792
  119OSM    C3F12551   0.657   0.985   6.784  0.3351  0.6478  0.0041
  119OSM    H3F12552   0.559   1.017   6.826 -1.4206 -0.8131 -2.7056
  119OSM    H3G12553   0.715   1.075   6.756 -0.8775  1.5337  0.2793
  119OSM    C4F12554   0.718   0.897   6.895 -0.4557 -0.6662 -0.1166
  119OSM    H4F12555   0.823   0.868   6.872 -0.6698 -1.2220 -0.4077
  119OSM    H4G12556   0.656   0.805   6.906 -1.0402 -0.1401  1.2654
  119OSM    C5F12557   0.723   0.957   7.036  0.2759 -0.6535 -0.3920
  119OSM    H5F12558   0.761   0.877   7.104 -0.4502  1.4360  2.6862
  119OSM    H5G12559   0.628   0.986   7.087  2.0134  4.0910  0.6240
  119OSM    C6F12560   0.823   1.067   7.063 -0.0519  0.1723  0.9750
  119OSM    H6F12561   0.791   1.158   7.007 -0.8471  0.3137  1.6448
  119OSM    H6G12562   0.924   1.037   7.029  0.3028  0.1626  2.0000
  119OSM    C7F12563   0.839   1.100   7.211  0.1079  0.4586  0.1021
  119OSM    H7F12564   0.879   1.009   7.259 -4.0964 -2.6153 -1.6037
  119OSM    H7G12565   0.736   1.112   7.251  0.3248  1.2591  0.4376
  119OSM    C8F12566   0.931   1.223   7.231 -0.0590 -0.5426 -0.2792
  119OSM    H8F12567   0.895   1.310   7.172 -1.7280 -0.7647  0.3554
  119OSM    H8G12568   1.026   1.185   7.189 -1.2640 -1.3777 -2.3896
  119OSM    C9F12569   0.924   1.271   7.377  0.2842 -0.8118  0.9863
  119OSM    H9F12570   0.832   1.321   7.412  1.4955  2.1248  0.2596
  119OSM   C10F12571   1.001   1.225   7.472 -0.3436  0.0088  0.0316
  119OSM   H10F12572   0.979   1.268   7.571  0.6968 -0.7377  0.6019
  119OSM   C11F12573   1.118   1.130   7.474 -0.1226  0.3989 -0.2927
  119OSM   H11F12574   1.171   1.141   7.377  1.9605  3.7897  1.0440
  119OSM   H11G12575   1.074   1.028   7.474  1.3337 -0.2787  1.6012
  119OSM   C12F12576   1.217   1.146   7.588  0.2333 -0.9248 -0.6423
  119OSM   H12F12577   1.172   1.121   7.686 -2.3526  2.3264 -0.7904
  119OSM   H12G12578   1.259   1.249   7.596  4.4257 -2.5324  0.3357
  119OSM   C13F12579   1.354   1.072   7.564  1.0460 -0.0038  0.2312
  119OSM   H13F12580   1.396   1.114   7.470  0.4087  0.6261  0.2203
  119OSM   H13G12581   1.333   0.964   7.551  0.3035 -0.1174  2.1214
  119OSM   C14F12582   1.466   1.096   7.675  0.0448  0.0573  0.5755
  119OSM   H14F12583   1.466   1.206   7.691 -1.4391 -0.0062  1.2492
  119OSM   H14G12584   1.564   1.066   7.633 -0.3429 -0.3590 -0.0700
  119OSM   C15F12585   1.414   1.033   7.804 -0.5036 -0.4803  0.3788
  119OSM   H15F12586   1.396   0.924   7.794  1.5505 -0.9835  1.6903
  119OSM   H15G12587   1.316   1.076   7.835 -0.8820 -1.0834  0.0374
  119OSM   C16F12588   1.501   1.056   7.924  0.4400 -0.3604  0.1865
  119OSM   H16F12589   1.512   1.164   7.951 -0.5842 -0.3035  0.4263
  119OSM   H16G12590   1.603   1.015   7.905 -0.1306 -1.4805 -0.5300
  119OSM   C17F12591   1.445   0.977   8.041 -0.1081  0.4460 -0.3546
  119OSM   H17F12592   1.426   0.871   8.016  0.2204 -1.0532  4.5931
  119OSM   H17G12593   1.345   1.013   8.076 -0.2584  2.3481 -2.5142
  119OSM   C18F12594   1.545   0.991   8.158  0.4568  0.9738 -0.7277
  119OSM   H18F12595   1.651   1.012   8.132  1.1189 -1.0263  0.1444
  119OSM   H18G12596   1.536   0.907   8.230 -1.1888  3.3018  2.0242
  119OSM   H18H12597   1.518   1.076   8.225  1.5302  0.9660 -0.2750
  120OSM      N12598   5.896   4.740   6.395 -0.5852 -0.2943 -0.1330
  120OSM    C1512599   5.907   4.718   6.246  1.0418  0.0242 -0.8229
  120OSM   H15A12600   5.877   4.803   6.186  1.4485 -1.1660 -2.8094
  120OSM   H15B12601   5.832   4.646   6.216  0.1958 -0.3069  1.8111
  120OSM   H15C12602   6.006   4.685   6.220  2.5580  2.4915  1.4491
  120OSM    C1412603   5.993   4.849   6.434  0.6637 -0.3363 -0.6700
  120OSM   H14A12604   5.988   4.859   6.541  1.0650  1.9723 -0.8119
  120OSM   H14B12605   5.974   4.948   6.394 -1.9792 -1.0902 -1.4664
  120OSM   H14C12606   6.090   4.808   6.408  0.6162 -1.0083  0.1661
  120OSM    C1312607   5.757   4.778   6.434 -0.2935 -0.5916 -0.1998
  120OSM   H13A12608   5.725   4.868   6.383  0.8161  0.0129  0.1428
  120OSM   H13B12609   5.767   4.793   6.540 -1.0814 -1.5749  0.0291
  120OSM   H13C12610   5.684   4.702   6.407  0.1798 -0.1518 -3.0103
  120OSM    C1212611   5.935   4.617   6.465  0.1592  0.7967  0.0157
  120OSM   H12A12612   6.030   4.582   6.426 -0.4009  0.2554 -0.9012
  120OSM   H12B12613   5.865   4.539   6.442  1.3265 -0.3464  0.2072
  120OSM    C1112614   5.936   4.600   6.622 -1.3308 -1.1145  0.6512
  120OSM   H11A12615   6.001   4.682   6.658 -1.7731  0.8517 -2.5617
  120OSM   H11B12616   5.988   4.508   6.654  0.4529  0.0290  1.1822
  120OSM      P12617   5.710   4.505   6.654 -0.0388  0.0571 -0.5577
  120OSM    O1312618   5.575   4.565   6.663  0.1742  0.3446  0.0251
  120OSM    O1412619   5.728   4.425   6.531 -0.0770  0.1611  0.4643
  120OSM    O1112620   5.724   4.406   6.773  0.7089  0.2097 -0.1752
  120OSM    O1212621   5.807   4.613   6.676 -0.0907 -0.2315 -0.0058
  120OSM    C1S12622   5.814   4.434   6.890 -0.2316 -0.4944 -0.4808
  120OSM    H1S12623   5.834   4.542   6.910 -0.6565 -0.7715  1.6757
  120OSM    H1T12624   5.917   4.398   6.869  2.1417  4.1140  1.6432
  120OSM     NF12625   5.869   4.373   7.116 -0.5424  0.2210 -0.0881
  120OSM    HNF12626   5.908   4.285   7.144  0.3434  1.1074  1.6142
  120OSM    C2S12627   5.763   4.363   7.022 -0.1669  0.7019 -0.4538
  120OSM    H2S12628   5.676   4.416   7.066 -0.0784  0.2644  0.2562
  120OSM    C3S12629   5.711   4.221   6.993 -0.4060  0.6129 -0.4226
  120OSM    H3S12630   5.799   4.160   6.961  1.8176  2.6927  1.3568
  120OSM     O312631   5.610   4.215   6.901 -0.6617 -0.5118  0.1179
  120OSM    HO312632   5.627   4.291   6.845 -0.9706 -0.5457 -0.0240
  120OSM    C4S12633   5.659   4.161   7.115 -0.0162  0.4852  0.2271
  120OSM    H4S12634   5.576   4.215   7.162 -0.8548  0.3299 -1.0263
  120OSM    C5S12635   5.707   4.036   7.166  0.0419  0.3818  0.0858
  120OSM    H5S12636   5.793   3.999   7.109  0.6776  1.7457  0.1044
  120OSM    C6S12637   5.662   3.957   7.281  0.1837 -0.7620 -0.7842
  120OSM    H6S12638   5.733   3.885   7.328  0.2091 -3.0546 -3.9939
  120OSM    H6T12639   5.578   3.891   7.253 -2.7327  2.5336 -0.4884
  120OSM    C7S12640   5.615   4.050   7.404 -0.4818  0.2757  0.1334
  120OSM    H7S12641   5.534   4.110   7.357 -0.8640 -0.1441  0.2453
  120OSM    H7T12642   5.702   4.116   7.424 -1.2316  1.6612 -1.0060
  120OSM    C8S12643   5.553   3.968   7.520  0.0547 -0.5315  0.0506
  120OSM    H8S12644   5.515   3.870   7.485  2.0413 -1.0945 -0.6406
  120OSM    H8T12645   5.461   4.024   7.547  0.7589  0.9501 -0.5130
  120OSM    C9S12646   5.638   3.931   7.646 -0.3915 -0.0590 -0.2752
  120OSM    H9S12647   5.647   4.022   7.710 -0.7289  1.3167 -2.0950
  120OSM    H9T12648   5.741   3.902   7.618 -0.7519 -1.5925 -0.0832
  120OSM   C10S12649   5.587   3.818   7.731 -0.0655  0.3938  0.0136
  120OSM   H10S12650   5.576   3.724   7.673  0.8371 -1.0672  2.0962
  120OSM   H10T12651   5.481   3.840   7.755 -0.3261 -1.1784  0.4362
  120OSM   C11S12652   5.681   3.792   7.851  0.2520  0.0197 -0.3002
  120OSM   H11S12653   5.702   3.890   7.900  0.1515 -0.3374  0.4732
  120OSM   H11T12654   5.775   3.738   7.827 -1.6526 -3.2032 -1.0547
  120OSM   C12S12655   5.615   3.697   7.956 -0.1681  0.1013 -0.2352
  120OSM   H12S12656   5.706   3.669   8.013  0.2908  0.2047 -0.9104
  120OSM   H12T12657   5.577   3.603   7.910  0.4459  0.9402 -2.5543
  120OSM   C13S12658   5.516   3.762   8.053  0.0098  0.1125 -0.0064
  120OSM   H13S12659   5.414   3.756   8.010  0.5343 -0.0135 -1.2866
  120OSM   H13T12660   5.536   3.870   8.064 -0.2457  0.1860 -0.2602
  120OSM   C14S12661   5.517   3.694   8.190 -0.2005  0.6056 -0.2683
  120OSM   H14S12662   5.617   3.680   8.234 -0.0713  0.8488 -0.4812
  120OSM   H14T12663   5.456   3.601   8.185 -2.1643  1.8322 -0.3921
  120OSM   C15S12664   5.459   3.781   8.298  0.5428  0.3815 -0.1676
  120OSM   H15S12665   5.466   3.890   8.278  1.5811  1.0128  3.0719
  120OSM   H15T12666   5.510   3.761   8.394  0.7756 -1.5910 -0.6600
  120OSM   C16S12667   5.313   3.750   8.333 -0.9973  0.1760 -0.1559
  120OSM   H16S12668   5.306   3.647   8.375 -2.5953  0.0933 -0.5662
  120OSM   H16T12669   5.243   3.766   8.248 -1.3752 -2.4553 -0.4447
  120OSM   C17S12670   5.262   3.826   8.449  0.6672 -0.0446 -0.2842
  120OSM   H17S12671   5.249   3.931   8.416  0.9923 -0.0627 -0.4724
  120OSM   H17T12672   5.332   3.830   8.536 -0.7125  0.9870  0.8393
  120OSM   C18S12673   5.129   3.776   8.503  0.3807  0.0350  0.1196
  120OSM   H18S12674   5.132   3.670   8.536 -1.6039  0.5227  2.1022
  120OSM   H18T12675   5.047   3.774   8.429  0.5259 -2.8535 -0.0559
  120OSM   H18U12676   5.097   3.832   8.593 -0.3260  0.7585 -0.5676
  120OSM    C1F12677   5.900   4.487   7.175 -0.2752  0.2650 -0.1119
  120OSM     OF12678   5.831   4.590   7.163  0.5355  0.2883 -0.5593
  120OSM    C2F12679   6.022   4.488   7.260 -0.4879  0.5705 -0.1387
  120OSM    H2F12680   6.107   4.465   7.193  1.5641  0.6629  2.2628
  120OSM    H2G12681   6.021   4.398   7.325  0.4408  0.7676  0.1630
  120OSM    C3F12682   6.052   4.620   7.340  0.3949 -0.5934 -0.8030
  120OSM    H3F12683   5.964   4.637   7.405 -0.9010  1.1253 -2.8617
  120OSM    H3G12684   6.055   4.702   7.264 -1.6148  1.3242  1.0296
  120OSM    C4F12685   6.175   4.615   7.436  0.2496 -0.1334 -0.4129
  120OSM    H4F12686   6.180   4.716   7.480 -1.3387 -0.0685 -0.3347
  120OSM    H4G12687   6.274   4.593   7.390  0.4581 -0.5750  0.2349
  120OSM    C5F12688   6.158   4.531   7.556 -0.1313 -0.0893  0.5863
  120OSM    H5F12689   6.134   4.424   7.536 -1.7150  0.2852  0.3168
  120OSM    H5G12690   6.072   4.567   7.617  1.7279  1.9823  2.1010
  120OSM    C6F12691   6.281   4.518   7.646  0.5328 -0.7247  0.3311
  120OSM    H6F12692   6.333   4.616   7.652 -0.9013  0.1672 -0.9110
  120OSM    H6G12693   6.353   4.442   7.610  0.8733 -1.2500  2.0460
  120OSM    C7F12694   6.253   4.483   7.785  0.6219 -0.1165 -0.4156
  120OSM    H7F12695   6.314   4.404   7.834  0.0950  0.4561  1.2431
  120OSM    H7G12696   6.150   4.439   7.785  2.2718 -4.5354  1.0174
  120OSM    C8F12697   6.244   4.614   7.882  0.2305  0.0004 -0.6592
  120OSM    H8F12698   6.184   4.690   7.827 -0.1912 -0.2984 -0.6217
  120OSM    H8G12699   6.345   4.657   7.871  1.6511 -2.3941  1.7615
  120OSM    C9F12700   6.189   4.599   8.015  0.1019 -0.1063 -0.1704
  120OSM    H9F12701   6.263   4.569   8.091 -0.0221 -2.8027 -1.0129
  120OSM   C10F12702   6.058   4.605   8.062  0.3677  0.0169  0.4336
  120OSM   H10F12703   6.040   4.589   8.170  0.0682 -3.3664 -0.0094
  120OSM   C11F12704   5.935   4.639   7.977 -0.5412  0.5858  0.1008
  120OSM   H11F12705   5.839   4.599   8.015  0.0851 -1.6040 -0.4281
  120OSM   H11G12706   5.953   4.596   7.876 -1.6530 -0.0857  0.1693
  120OSM   C12F12707   5.940   4.794   7.947  0.6601 -0.6048  0.4368
  120OSM   H12F12708   6.047   4.823   7.937  0.8492 -1.1570  0.8255
  120OSM   H12G12709   5.889   4.854   8.025 -1.0044 -2.1192  0.5726
  120OSM   C13F12710   5.876   4.839   7.812  0.7670  0.7363 -0.7020
  120OSM   H13F12711   5.767   4.816   7.806  0.2058  2.8436  0.3839
  120OSM   H13G12712   5.919   4.776   7.731  0.5623 -1.0098  0.5049
  120OSM   C14F12713   5.882   4.987   7.775  0.4259 -0.2696  0.0116
  120OSM   H14F12714   5.990   5.013   7.767  0.4955 -0.6654 -0.3811
  120OSM   H14G12715   5.855   5.044   7.867  2.1235  0.0438  0.3503
  120OSM   C15F12716   5.802   5.028   7.651 -0.6233 -0.4675 -0.1397
  120OSM   H15F12717   5.802   5.138   7.637 -0.6000 -0.5860 -1.1872
  120OSM   H15G12718   5.695   5.002   7.659 -0.4699 -1.0579  0.0127
  120OSM   C16F12719   5.854   4.960   7.527 -0.2612  0.2320  0.4863
  120OSM   H16F12720   5.828   4.852   7.521  2.3096 -0.5033  1.3627
  120OSM   H16G12721   5.965   4.964   7.524 -0.2589  0.0116  0.2478
  120OSM   C17F12722   5.817   5.030   7.393 -0.7336  0.0255  0.5631
  120OSM   H17F12723   5.806   5.139   7.409  1.8762  0.3505  0.5955
  120OSM   H17G12724   5.718   4.992   7.361 -0.1431 -0.6313 -0.5651
  120OSM   C18F12725   5.915   4.996   7.279 -0.2735 -0.3183 -0.7527
  120OSM   H18F12726   5.883   5.053   7.189 -0.5871  0.4341 -0.1702
  120OSM   H18G12727   5.909   4.887   7.255 -1.0731 -0.6799  0.9561
  120OSM   H18H12728   6.019   5.029   7.298 -0.9580  1.5293  0.0186
  121OSM      N12729   1.431   5.719   6.044 -0.0643 -0.4026  0.2633
  121OSM    C1512730   1.418   5.633   5.924 -0.7203  1.1770 -0.3721
  121OSM   H15A12731   1.433   5.530   5.951  0.7397  1.4426 -0.0591
  121OSM   H15B12732   1.493   5.646   5.847 -0.4400 -0.1411 -0.3319
  121OSM   H15C12733   1.322   5.635   5.875 -2.0421  0.2988  2.0135
  121OSM    C1412734   1.325   5.674   6.142 -0.4445  0.1838  0.2785
  121OSM   H14A12735   1.227   5.712   6.116 -0.7511 -0.6364  0.1773
  121OSM   H14B12736   1.353   5.716   6.237  0.6733  1.9904 -0.7885
  121OSM   H14C12737   1.326   5.566   6.153 -3.7181  0.1229  0.9575
  121OSM    C1312738   1.564   5.690   6.108 -0.0547  0.2402 -0.2316
  121OSM   H13A12739   1.587   5.598   6.159  0.4039  1.2045  1.3791
  121OSM   H13B12740   1.568   5.762   6.189  0.0112  1.1864 -1.0676
  121OSM   H13C12741   1.643   5.709   6.037  1.9395  0.3205  1.8776
  121OSM    C1212742   1.406   5.861   6.006 -0.1517  0.4043  0.7393
  121OSM   H12A12743   1.301   5.865   5.978  0.1360  1.6614 -0.2420
  121OSM   H12B12744   1.468   5.884   5.921 -1.9336 -1.5014 -1.1930
  121OSM    C1112745   1.423   5.980   6.112 -0.4189 -0.4376 -0.3879
  121OSM   H11A12746   1.405   6.081   6.071  1.4569 -0.0990 -0.4905
  121OSM   H11B12747   1.531   5.972   6.139 -0.5335  0.6996  0.4621
  121OSM      P12748   1.183   6.002   6.213  0.5553  0.0369 -0.4019
  121OSM    O1312749   1.168   6.135   6.143  0.0129 -0.2827 -0.2432
  121OSM    O1412750   1.110   5.888   6.151 -0.8486  0.0615 -0.1555
  121OSM    O1112751   1.134   6.025   6.358  0.5840  1.0634 -0.3454
  121OSM    O1212752   1.332   5.964   6.224 -0.7240 -0.8451  0.2483
  121OSM    C1S12753   1.229   6.032   6.463  0.1089 -0.2152  0.0357
  121OSM    H1S12754   1.323   6.085   6.436 -0.4755  1.0315  0.3790
  121OSM    H1T12755   1.253   5.932   6.507  0.5408 -0.2107 -0.1812
  121OSM     NF12756   1.274   6.138   6.669  0.0028 -0.6243 -0.4597
  121OSM    HNF12757   1.263   6.088   6.755 -0.2662  0.4528  0.1602
  121OSM    C2S12758   1.173   6.124   6.568 -0.4794  0.0336 -0.4238
  121OSM    H2S12759   1.172   6.220   6.512  0.4917  0.2440 -0.1047
  121OSM    C3S12760   1.035   6.081   6.616 -0.1676 -0.3066  0.2736
  121OSM    H3S12761   1.040   5.975   6.648 -0.6744 -0.5533 -0.4510
  121OSM     O312762   0.930   6.092   6.521  0.3706  0.0563  0.1042
  121OSM    HO312763   0.971   6.102   6.434  0.6610  1.1694  0.3482
  121OSM    C4S12764   0.996   6.164   6.738 -0.0946  0.5609  0.4767
  121OSM    H4S12765   1.016   6.273   6.740  2.7802  0.1520 -0.7595
  121OSM    C5S12766   0.949   6.112   6.852  0.2361 -0.4204 -0.3072
  121OSM    H5S12767   0.938   6.005   6.875  1.5548 -0.2403  1.3531
  121OSM    C6S12768   0.908   6.193   6.974  0.1079 -0.8494 -0.0437
  121OSM    H6S12769   0.959   6.159   7.067  1.1121 -1.2158 -0.7195
  121OSM    H6T12770   0.802   6.165   6.995  0.3771 -1.8573 -0.0144
  121OSM    C7S12771   0.918   6.345   6.977 -0.8380 -0.2136 -0.2143
  121OSM    H7S12772   0.852   6.388   6.898 -1.3534  2.4269  1.5443
  121OSM    H7T12773   1.022   6.377   6.952 -1.2978  1.1338 -0.4956
  121OSM    C8S12774   0.880   6.403   7.116  0.3323 -0.1080  0.2496
  121OSM    H8S12775   0.771   6.388   7.132  0.6036 -0.8855  1.5223
  121OSM    H8T12776   0.885   6.514   7.113 -0.1259 -0.0933 -0.2918
  121OSM    C9S12777   0.955   6.340   7.229 -0.1865 -0.2071 -0.5511
  121OSM    H9S12778   1.061   6.319   7.202 -0.2075 -1.7723  0.4093
  121OSM    H9T12779   0.904   6.242   7.242 -1.0102  0.2871 -0.0674
  121OSM   C10S12780   0.930   6.424   7.353 -0.5457 -0.7801  0.7240
  121OSM   H10S12781   0.821   6.418   7.376 -0.6325  0.3964  0.7212
  121OSM   H10T12782   0.952   6.532   7.334 -1.8239  0.0384  3.3343
  121OSM   C11S12783   1.017   6.372   7.470  0.3076 -0.5131 -0.6698
  121OSM   H11S12784   1.122   6.388   7.437  0.0630  0.6973 -0.9184
  121OSM   H11T12785   0.982   6.268   7.484 -2.8495  0.4349 -0.7580
  121OSM   C12S12786   1.011   6.446   7.606 -0.8455  0.2773 -0.8152
  121OSM   H12S12787   1.073   6.538   7.612  1.8990 -1.4975  0.5639
  121OSM   H12T12788   1.069   6.372   7.665 -1.4902 -0.2533 -0.8268
  121OSM   C13S12789   0.869   6.461   7.664 -0.2774  0.1425  0.9085
  121OSM   H13S12790   0.808   6.368   7.662  2.5224 -1.7987 -1.0766
  121OSM   H13T12791   0.809   6.534   7.605 -2.1802 -0.3582  2.1193
  121OSM   C14S12792   0.852   6.524   7.804 -0.1574 -0.2205  0.8514
  121OSM   H14S12793   0.753   6.507   7.851  0.4903 -1.0440  1.9587
  121OSM   H14T12794   0.863   6.634   7.794  2.7544 -0.5559 -0.7235
  121OSM   C15S12795   0.962   6.466   7.900  0.3959  0.3650  0.8860
  121OSM   H15S12796   1.061   6.505   7.868  0.2406 -1.4050 -2.0772
  121OSM   H15T12797   0.974   6.355   7.897 -0.7244  0.2620 -1.2625
  121OSM   C16S12798   0.937   6.520   8.044 -0.2885  0.1026 -0.4250
  121OSM   H16S12799   0.902   6.625   8.033 -0.6538  0.4438  2.9871
  121OSM   H16T12800   1.029   6.531   8.104 -0.7090 -0.8385  0.4246
  121OSM   C17S12801   0.823   6.442   8.109  0.2207  0.2286  0.1871
  121OSM   H17S12802   0.866   6.341   8.124  0.6367  0.1787 -1.2512
  121OSM   H17T12803   0.730   6.426   8.050  1.2612 -1.6116 -1.0209
  121OSM   C18S12804   0.781   6.508   8.245  0.5551 -0.2850 -0.2031
  121OSM   H18S12805   0.731   6.435   8.312 -0.9927  0.6330 -0.3127
  121OSM   H18T12806   0.712   6.592   8.223  1.4705  0.7268  0.6379
  121OSM   H18U12807   0.871   6.543   8.299 -0.4647  1.6499  0.3541
  121OSM    C1F12808   1.385   6.217   6.653  0.6051  0.7884  0.2324
  121OSM     OF12809   1.391   6.291   6.558 -0.9787 -0.1834  0.0222
  121OSM    C2F12810   1.495   6.204   6.757  0.3906 -0.5793  0.3922
  121OSM    H2F12811   1.598   6.202   6.715  0.3431  1.6765  0.0397
  121OSM    H2G12812   1.489   6.111   6.818 -0.5636  0.9747  2.8154
  121OSM    C3F12813   1.500   6.313   6.867 -0.5254  0.2397 -0.0177
  121OSM    H3F12814   1.477   6.408   6.816  1.1250  0.5922 -0.1685
  121OSM    H3G12815   1.609   6.318   6.892 -0.6701  0.8131  0.5199
  121OSM    C4F12816   1.439   6.299   7.009  0.2534 -0.1954 -0.4409
  121OSM    H4F12817   1.475   6.217   7.075 -2.5856 -0.9382  0.3000
  121OSM    H4G12818   1.331   6.277   6.993  0.5398  0.4261 -4.0983
  121OSM    C5F12819   1.441   6.426   7.096 -0.5528 -0.1927  0.1711
  121OSM    H5F12820   1.414   6.507   7.025 -1.3557 -1.4538 -1.0071
  121OSM    H5G12821   1.540   6.455   7.137 -1.2109  2.2354  0.1770
  121OSM    C6F12822   1.344   6.416   7.211 -0.4694  0.6660 -0.9585
  121OSM    H6F12823   1.348   6.320   7.266  1.9691  1.0172 -0.3877
  121OSM    H6G12824   1.242   6.431   7.171 -0.3671  1.1885 -1.0319
  121OSM    C7F12825   1.363   6.529   7.319  0.0392 -0.4305 -0.7639
  121OSM    H7F12826   1.263   6.545   7.364  0.4359  0.4397 -0.1457
  121OSM    H7G12827   1.391   6.627   7.273 -0.0618 -0.3964 -0.7538
  121OSM    C8F12828   1.471   6.492   7.424 -0.2354  0.4723 -0.4038
  121OSM    H8F12829   1.510   6.590   7.458  1.2847 -0.0650 -0.5443
  121OSM    H8G12830   1.550   6.430   7.376 -1.1205 -0.7943 -0.2597
  121OSM    C9F12831   1.411   6.411   7.532  0.0211  0.3071 -0.2681
  121OSM    H9F12832   1.391   6.308   7.500  3.2466  0.2873 -2.7476
  121OSM   C10F12833   1.376   6.436   7.660 -0.3713  0.2773 -1.0172
  121OSM   H10F12834   1.351   6.347   7.719 -3.3248  1.8036  0.2693
  121OSM   C11F12835   1.381   6.556   7.750  0.3353 -0.2510 -0.2542
  121OSM   H11F12836   1.280   6.573   7.794 -0.6245  0.2906 -2.4928
  121OSM   H11G12837   1.414   6.638   7.683 -1.0561  1.6297  1.2439
  121OSM   C12F12838   1.480   6.546   7.868 -0.4942  0.5439 -1.6347
  121OSM   H12F12839   1.501   6.645   7.914  3.2196 -0.7569 -0.0973
  121OSM   H12G12840   1.583   6.511   7.845 -0.5221  0.4716 -1.6522
  121OSM   C13F12841   1.425   6.446   7.980 -0.4090 -0.1521 -0.5157
  121OSM   H13F12842   1.424   6.340   7.947 -0.5138 -0.1847 -0.4106
  121OSM   H13G12843   1.320   6.480   7.995 -0.2068 -0.1470  1.0894
  121OSM   C14F12844   1.494   6.439   8.121  0.2226 -0.3451 -0.5491
  121OSM   H14F12845   1.596   6.397   8.117  0.0899 -0.6894 -0.3919
  121OSM   H14G12846   1.448   6.362   8.188  2.3427 -1.0236  0.1879
  121OSM   C15F12847   1.488   6.580   8.192  0.9935 -0.3043 -0.3284
  121OSM   H15F12848   1.383   6.607   8.214  0.9113 -2.1416  1.8177
  121OSM   H15G12849   1.543   6.649   8.124  0.8731 -0.3551 -0.4782
  121OSM   C16F12850   1.571   6.576   8.323  0.2923 -0.0274  0.3533
  121OSM   H16F12851   1.676   6.543   8.308  0.1561 -0.9877  1.4166
  121OSM   H16G12852   1.527   6.499   8.389 -1.3860 -0.0881 -0.7648
  121OSM   C17F12853   1.578   6.705   8.397 -0.4351 -0.2725  0.9830
  121OSM   H17F12854   1.647   6.768   8.337  0.0199 -1.2059  0.5166
  121OSM   H17G12855   1.630   6.698   8.495  1.9345  0.1820 -0.1723
  121OSM   C18F12856   1.445   6.775   8.405  0.0942 -0.2753  0.3003
  121OSM   H18F12857   1.372   6.715   8.463 -0.8014 -0.0139 -0.5335
  121OSM   H18G12858   1.403   6.792   8.304 -1.5621  2.6768  1.3539
  121OSM   H18H12859   1.463   6.877   8.447 -1.5142 -0.2263  0.9345
  122OSM      N12860   6.492   1.585   6.086 -0.0305  0.0287  0.3498
  122OSM    C1512861   6.381   1.519   6.009 -0.2593 -0.1879 -0.5212
  122OSM   H15A12862   6.320   1.599   5.970 -1.2678 -0.9317 -0.5295
  122OSM   H15B12863   6.316   1.464   6.075 -0.2216 -1.6655 -1.6495
  122OSM   H15C12864   6.409   1.445   5.934 -0.2447  0.8715 -1.5899
  122OSM    C1412865   6.581   1.664   5.990  0.2471  0.6715 -0.0301
  122OSM   H14A12866   6.533   1.742   5.933  0.1678  0.8301  0.2515
  122OSM   H14B12867   6.621   1.592   5.920  0.1639 -1.3917  1.9121
  122OSM   H14C12868   6.665   1.715   6.034  0.4324  0.7118 -0.4211
  122OSM    C1312869   6.434   1.682   6.183 -0.7130 -1.0074 -0.0829
  122OSM   H13A12870   6.389   1.760   6.124 -2.4820 -0.1771  2.2434
  122OSM   H13B12871   6.518   1.713   6.244 -0.8938 -1.3458  0.3385
  122OSM   H13C12872   6.360   1.633   6.244 -0.0369 -2.6721 -0.5485
  122OSM    C1212873   6.570   1.477   6.162 -0.3440 -0.2687 -0.3610
  122OSM   H12A12874   6.632   1.530   6.233 -1.1518 -1.7111  1.4865
  122OSM   H12B12875   6.630   1.419   6.093 -0.3257  0.0884 -0.6462
  122OSM    C1112876   6.488   1.369   6.243  0.3384 -0.5851  0.2751
  122OSM   H11A12877   6.403   1.419   6.294  0.4855  0.5216 -0.5269
  122OSM   H11B12878   6.549   1.324   6.324  0.3526  0.1735  0.6885
  122OSM      P12879   6.337   1.166   6.223 -0.1507 -0.1746  0.0194
  122OSM    O1312880   6.211   1.239   6.189  0.0294  0.0751 -0.3043
  122OSM    O1412881   6.340   1.035   6.158 -1.1001  0.0181  0.2862
  122OSM    O1112882   6.351   1.174   6.379  0.4061  0.1014  0.7470
  122OSM    O1212883   6.452   1.255   6.160  0.0540  0.1656 -0.0237
  122OSM    C1S12884   6.335   1.060   6.454  0.3508 -0.2073  0.1534
  122OSM    H1S12885   6.422   0.993   6.436  0.2733 -0.2764  0.0345
  122OSM    H1T12886   6.239   1.009   6.427  0.0411  0.7708 -0.6411
  122OSM     NF12887   6.396   0.975   6.675 -0.5175  0.2083  0.1886
  122OSM    HNF12888   6.324   0.914   6.707  0.3910  0.1538  2.3080
  122OSM    C2S12889   6.349   1.098   6.606  0.3892  0.1193  0.3712
  122OSM    H2S12890   6.421   1.183   6.611  0.4977  0.2402 -2.1290
  122OSM    C3S12891   6.208   1.140   6.666 -0.4659  0.9828  0.4667
  122OSM    H3S12892   6.144   1.061   6.623  0.8889  1.2808 -2.3595
  122OSM     O312893   6.158   1.258   6.605  0.0843  0.1501 -0.3102
  122OSM    HO312894   6.194   1.264   6.517 -2.3875 -2.2599 -1.6467
  122OSM    C4S12895   6.209   1.153   6.812  0.0296  0.3654  0.4732
  122OSM    H4S12896   6.271   1.231   6.858  0.2440  1.6421 -1.8171
  122OSM    C5S12897   6.133   1.083   6.899  0.7330  0.3895 -0.1429
  122OSM    H5S12898   6.055   1.010   6.870 -1.2478  1.5602  1.8879
  122OSM    C6S12899   6.138   1.097   7.051  1.1096  0.1926  0.6331
  122OSM    H6S12900   6.207   1.166   7.105 -0.8242  0.0133  3.5358
  122OSM    H6T12901   6.137   0.996   7.096  1.3010 -1.1931 -2.2354
  122OSM    C7S12902   5.999   1.152   7.093 -0.2400  1.0328  0.4303
  122OSM    H7S12903   5.930   1.067   7.076  0.4812  0.2663  1.2483
  122OSM    H7T12904   5.949   1.239   7.045 -0.2802 -0.1149 -1.7493
  122OSM    C8S12905   6.002   1.185   7.244  0.7571  0.2965 -0.0200
  122OSM    H8S12906   6.056   1.280   7.263  0.7157  0.3678 -0.2597
  122OSM    H8T12907   6.049   1.100   7.299  2.3636  1.2967  0.2099
  122OSM    C9S12908   5.859   1.216   7.304 -0.3898  0.2035  0.6054
  122OSM    H9S12909   5.798   1.123   7.306 -0.8086  0.4762  0.7303
  122OSM    H9T12910   5.807   1.293   7.243 -1.2850 -1.3802 -0.7269
  122OSM   C10S12911   5.863   1.250   7.448 -0.9865 -0.0911 -0.4840
  122OSM   H10S12912   5.944   1.318   7.481 -0.6978  0.0598 -1.4691
  122OSM   H10T12913   5.893   1.159   7.504 -0.2233 -0.4471 -1.4454
  122OSM   C11S12914   5.732   1.308   7.502  0.1356 -0.2504  1.0570
  122OSM   H11S12915   5.650   1.233   7.504 -1.3055  1.2768  1.6132
  122OSM   H11T12916   5.699   1.384   7.428 -2.0748 -2.6581 -0.6205
  122OSM   C12S12917   5.748   1.372   7.647  0.3655  0.1486  0.3156
  122OSM   H12S12918   5.648   1.398   7.687  0.9704  2.4473  0.5065
  122OSM   H12T12919   5.816   1.460   7.640  0.4884  0.4060  3.2437
  122OSM   C13S12920   5.812   1.277   7.750 -0.0672 -0.9216  0.7245
  122OSM   H13S12921   5.921   1.260   7.738 -0.1993 -2.8847  1.8694
  122OSM   H13T12922   5.760   1.179   7.738 -1.7449 -0.0014  0.1694
  122OSM   C14S12923   5.785   1.321   7.897  0.0294 -0.7778 -0.4326
  122OSM   H14S12924   5.826   1.421   7.922  0.3283 -0.5682 -1.6912
  122OSM   H14T12925   5.847   1.253   7.959 -1.1918 -1.2937  0.2520
  122OSM   C15S12926   5.633   1.329   7.939 -0.2752  0.0294 -0.0626
  122OSM   H15S12927   5.587   1.231   7.913  1.5818 -0.4257 -1.8801
  122OSM   H15T12928   5.574   1.409   7.890 -0.9123 -1.1785 -1.3394
  122OSM   C16S12929   5.628   1.357   8.090  0.3305 -0.0482  0.6137
  122OSM   H16S12930   5.671   1.459   8.106 -4.0542  2.0975  0.2688
  122OSM   H16T12931   5.688   1.278   8.140  1.4717  1.4473  1.7524
  122OSM   C17S12932   5.488   1.356   8.145  0.1978  0.4833 -0.0688
  122OSM   H17S12933   5.439   1.258   8.125 -0.7259  1.0648 -0.7396
  122OSM   H17T12934   5.429   1.439   8.101 -0.7760 -0.9918 -1.6898
  122OSM   C18S12935   5.492   1.383   8.295  0.2317  0.1326 -0.4575
  122OSM   H18S12936   5.549   1.297   8.338 -0.3350  0.3270  0.7366
  122OSM   H18T12937   5.387   1.379   8.330  0.3545  0.2803 -0.0616
  122OSM   H18U12938   5.528   1.483   8.327 -3.0626  1.1802  0.3432
  122OSM    C1F12939   6.528   0.945   6.684  0.1816  0.1220 -0.0643
  122OSM     OF12940   6.614   1.014   6.630  0.1467  0.0003 -0.2071
  122OSM    C2F12941   6.564   0.825   6.776  0.1708  0.1323  0.3110
  122OSM    H2F12942   6.646   0.774   6.721  1.5043  1.4132  1.0421
  122OSM    H2G12943   6.476   0.761   6.795  0.2364 -0.2716 -0.6745
  122OSM    C3F12944   6.622   0.872   6.915 -0.2011 -0.2309  0.4508
  122OSM    H3F12945   6.549   0.935   6.970 -0.2593 -1.8819  2.3905
  122OSM    H3G12946   6.713   0.935   6.903  0.4221 -1.0094  0.9796
  122OSM    C4F12947   6.676   0.750   7.005 -0.1401 -0.4816  0.8728
  122OSM    H4F12948   6.760   0.713   6.942 -0.3903 -0.7666  0.7088
  122OSM    H4G12949   6.605   0.665   7.003 -1.1945  0.3447 -1.6705
  122OSM    C5F12950   6.746   0.795   7.135  0.8536  0.1258  1.2027
  122OSM    H5F12951   6.825   0.867   7.106  0.7553 -0.7843 -1.6017
  122OSM    H5G12952   6.796   0.700   7.164  2.8079  0.3155 -1.2774
  122OSM    C6F12953   6.651   0.838   7.245  1.1840  0.6769 -0.2839
  122OSM    H6F12954   6.571   0.762   7.258 -0.1237  2.2139  1.1751
  122OSM    H6G12955   6.608   0.934   7.208  0.6788  0.0140 -1.4856
  122OSM    C7F12956   6.727   0.858   7.374 -0.3102  0.0483  0.0536
  122OSM    H7F12957   6.821   0.909   7.345 -0.5053  0.6131  0.3986
  122OSM    H7G12958   6.755   0.759   7.417  1.6262 -0.5282 -2.3145
  122OSM    C8F12959   6.648   0.957   7.466  0.2920 -0.1545  0.4770
  122OSM    H8F12960   6.623   1.045   7.402  1.0380 -0.5037 -0.3176
  122OSM    H8G12961   6.722   0.994   7.540  1.0732  1.6240 -1.1020
  122OSM    C9F12962   6.528   0.895   7.529  0.2739 -0.6283  0.5271
  122OSM    H9F12963   6.443   0.900   7.458  0.5293  1.0170  0.3121
  122OSM   C10F12964   6.506   0.849   7.645 -0.0411  1.3415 -0.4155
  122OSM   H10F12965   6.410   0.801   7.671  0.2690  1.3020  0.7218
  122OSM   C11F12966   6.597   0.843   7.768  0.3267  0.1351  0.0408
  122OSM   H11F12967   6.667   0.757   7.766  1.4024  0.9502  1.2419
  122OSM   H11G12968   6.530   0.818   7.853 -0.6653 -0.5986 -0.9322
  122OSM   C12F12969   6.694   0.957   7.797 -0.1103 -0.8270 -1.0078
  122OSM   H12F12970   6.651   1.054   7.763 -0.8181 -0.9079 -0.3960
  122OSM   H12G12971   6.787   0.934   7.742  0.2840 -3.4260  0.5878
  122OSM   C13F12972   6.727   0.969   7.946 -0.2925 -0.5213 -0.3296
  122OSM   H13F12973   6.813   1.037   7.964 -0.4224 -0.9138  2.1068
  122OSM   H13G12974   6.763   0.868   7.973  0.0679  0.0917  1.6347
  122OSM   C14F12975   6.628   1.035   8.048  0.0700  0.5428 -0.2491
  122OSM   H14F12976   6.533   0.979   8.050  0.8420 -1.0072  4.4532
  122OSM   H14G12977   6.609   1.143   8.029 -3.0465  0.8173  3.3081
  122OSM   C15F12978   6.690   1.036   8.190 -0.2064 -0.1821 -0.4192
  122OSM   H15F12979   6.786   1.093   8.192  0.2369 -0.8844 -1.0091
  122OSM   H15G12980   6.703   0.933   8.229 -1.0436 -0.1512 -0.0420
  122OSM   C16F12981   6.606   1.111   8.289  0.3277 -0.2134 -0.5275
  122OSM   H16F12982   6.503   1.070   8.288 -1.0381  2.9584 -1.2663
  122OSM   H16G12983   6.596   1.215   8.250  0.4121  0.0275  0.0877
  122OSM   C17F12984   6.679   1.110   8.424  0.4716 -0.4129 -0.1221
  122OSM   H17F12985   6.781   1.155   8.424  0.1635  0.3077  0.1475
  122OSM   H17G12986   6.691   1.006   8.460  0.2470 -0.8528 -1.2740
  122OSM   C18F12987   6.600   1.182   8.530  0.8682 -0.6244 -0.4712
  122OSM   H18F12988   6.621   1.153   8.635 -0.1181  0.8576  0.1702
  122OSM   H18G12989   6.491   1.165   8.513  0.1970  3.0550 -0.5596
  122OSM   H18H12990   6.631   1.288   8.526 -0.0367 -0.2841  0.9021
  123OSM      N12991   3.007   4.317   6.595 -0.0707 -0.1312 -0.4794
  123OSM    C1512992   3.038   4.192   6.509 -0.0062  0.2150 -1.2673
  123OSM   H15A12993   3.093   4.120   6.567 -0.9147  2.0690  2.2031
  123OSM   H15B12994   3.100   4.224   6.427  1.6074  0.8904  0.1604
  123OSM   H15C12995   2.956   4.141   6.460 -0.9510  0.0860  0.3663
  123OSM    C1412996   2.929   4.276   6.719  0.3101 -0.4628  0.1122
  123OSM   H14A12997   2.970   4.188   6.766  0.7177  0.7630  2.1852
  123OSM   H14B12998   2.831   4.245   6.688  0.8378 -0.6633 -1.4300
  123OSM   H14C12999   2.924   4.351   6.797  1.8222  0.5994 -0.7470
  123OSM    C1313000   3.119   4.397   6.644 -0.1695  0.7534 -0.0599
  123OSM   H13A13001   3.087   4.477   6.708 -2.3356  0.3501 -0.5746
  123OSM   H13B13002   3.178   4.438   6.563  1.5768  0.2259  0.8917
  123OSM   H13C13003   3.186   4.342   6.709  0.0355  0.2365 -0.6889
  123OSM    C1213004   2.912   4.402   6.510  0.3998 -0.2939 -0.5136
  123OSM   H12A13005   2.825   4.347   6.477  0.4175  0.6521 -2.2664
  123OSM   H12B13006   2.957   4.425   6.415 -0.4116  0.3024 -0.7657
  123OSM    C1113007   2.869   4.534   6.570  0.3529  0.0819 -0.0061
  123OSM   H11A13008   2.820   4.594   6.489 -0.2070  2.4020  1.9516
  123OSM   H11B13009   2.947   4.608   6.597 -0.1366  1.3505 -1.8547
  123OSM      P13010   2.625   4.503   6.669 -0.6330  0.0171 -0.1672
  123OSM    O1313011   2.556   4.634   6.673  0.0094 -0.5507  0.6734
  123OSM    O1413012   2.611   4.420   6.544 -0.2458  0.0128 -0.2697
  123OSM    O1113013   2.594   4.410   6.794  0.1312  0.2377 -0.2756
  123OSM    O1213014   2.785   4.524   6.688  0.1710  0.6712  1.1002
  123OSM    C1S13015   2.611   4.457   6.930 -0.7542  0.1819 -0.4138
  123OSM    H1S13016   2.543   4.543   6.951 -0.0596  0.9729 -1.2917
  123OSM    H1T13017   2.712   4.495   6.956 -1.7066  1.6057  1.4055
  123OSM     NF13018   2.594   4.407   7.164  0.4187  0.2655 -0.1881
  123OSM    HNF13019   2.676   4.396   7.220  0.5866 -2.5082 -0.8320
  123OSM    C2S13020   2.584   4.346   7.032  0.0472  0.2464  0.0042
  123OSM    H2S13021   2.481   4.310   7.011  0.4039 -0.0156 -1.3573
  123OSM    C3S13022   2.679   4.221   7.002 -0.5504 -0.4590  0.1092
  123OSM    H3S13023   2.777   4.268   6.981 -1.1353  0.0342 -1.7247
  123OSM     O313024   2.638   4.149   6.884  0.7446  0.2444 -0.5340
  123OSM    HO313025   2.615   4.213   6.816 -0.4072  0.6395  0.1924
  123OSM    C4S13026   2.682   4.128   7.124 -0.6160  0.2476 -0.4102
  123OSM    H4S13027   2.769   4.154   7.186 -1.7007 -0.9250  1.7356
  123OSM    C5S13028   2.607   4.021   7.161  0.7039 -1.0872 -0.5952
  123OSM    H5S13029   2.529   3.983   7.094 -0.8083  1.0612 -0.1875
  123OSM    C6S13030   2.639   3.943   7.294  0.2043  0.3862  0.6716
  123OSM    H6S13031   2.725   3.876   7.273 -1.5354 -1.2937 -1.6235
  123OSM    H6T13032   2.559   3.869   7.316  0.5559  0.3393  1.8376
  123OSM    C7S13033   2.644   4.040   7.408  0.2406 -0.2181  0.1720
  123OSM    H7S13034   2.552   4.099   7.389  0.6201 -0.1819 -1.7700
  123OSM    H7T13035   2.724   4.117   7.407  0.7570 -0.7007  1.8744
  123OSM    C8S13036   2.632   3.977   7.548 -0.4205 -0.6907 -0.6866
  123OSM    H8S13037   2.726   3.917   7.557 -0.8169 -1.7261 -2.9423
  123OSM    H8T13038   2.548   3.906   7.562 -0.7147 -0.5512 -1.7165
  123OSM    C9S13039   2.619   4.078   7.663  0.3936 -0.3288  0.0083
  123OSM    H9S13040   2.546   4.157   7.635 -0.7339 -0.1878  2.9641
  123OSM    H9T13041   2.709   4.142   7.672 -0.3450  0.8957 -1.0951
  123OSM   C10S13042   2.588   4.028   7.804 -0.3685  0.7981  0.2006
  123OSM   H10S13043   2.498   3.964   7.789  0.3592 -0.2203  0.0267
  123OSM   H10T13044   2.569   4.105   7.882 -0.6282  1.4530 -0.5059
  123OSM   C11S13045   2.686   3.923   7.867  0.4189  0.2250 -0.2902
  123OSM   H11S13046   2.791   3.960   7.868 -0.2062  2.1642  1.0840
  123OSM   H11T13047   2.679   3.826   7.813 -2.3985  0.2812 -0.2000
  123OSM   C12S13048   2.657   3.908   8.018  0.2727  0.2470  0.3316
  123OSM   H12S13049   2.672   3.800   8.040  0.9118  0.0530 -0.9710
  123OSM   H12T13050   2.551   3.932   8.041 -0.2892 -0.0094 -1.8257
  123OSM   C13S13051   2.750   3.997   8.102 -0.3291 -0.1722 -0.4446
  123OSM   H13S13052   2.754   4.103   8.070  2.3194  0.2464  0.9771
  123OSM   H13T13053   2.853   3.955   8.093  0.0982  0.7041  0.3233
  123OSM   C14S13054   2.703   4.009   8.245 -0.0965 -0.4135  0.0148
  123OSM   H14S13055   2.689   3.910   8.293 -1.7372  0.0860  0.5982
  123OSM   H14T13056   2.601   4.052   8.251 -0.6090 -1.5783 -0.0674
  123OSM   C15S13057   2.808   4.084   8.342 -0.2905 -0.4735  0.6687
  123OSM   H15S13058   2.813   4.187   8.301  1.2849 -0.0759  1.7374
  123OSM   H15T13059   2.903   4.027   8.330 -1.5500 -2.9472  1.6413
  123OSM   C16S13060   2.774   4.071   8.494  0.1980 -0.0133  0.0134
  123OSM   H16S13061   2.764   3.963   8.519  2.0756 -0.1639  0.2495
  123OSM   H16T13062   2.675   4.116   8.512 -0.2119 -0.8474 -0.1000
  123OSM   C17S13063   2.875   4.132   8.588 -0.2958  0.9769  0.1267
  123OSM   H17S13064   2.887   4.239   8.559  0.7402  0.5432 -1.1891
  123OSM   H17T13065   2.975   4.095   8.556 -0.3311  0.5437  0.5050
  123OSM   C18S13066   2.851   4.113   8.740  0.1596 -0.2297 -0.5312
  123OSM   H18S13067   2.907   4.024   8.774  1.4369  0.4977 -0.6827
  123OSM   H18T13068   2.743   4.097   8.762  0.4902 -0.3740  1.1270
  123OSM   H18U13069   2.893   4.202   8.791  1.5691 -0.5215 -1.1224
  123OSM    C1F13070   2.502   4.488   7.223 -0.3071  0.0840  0.6253
  123OSM     OF13071   2.393   4.494   7.169  0.0431 -0.3621  0.1213
  123OSM    C2F13072   2.534   4.563   7.351 -0.5765  0.2156  0.6536
  123OSM    H2F13073   2.627   4.622   7.341  1.2103 -2.1839  1.9273
  123OSM    H2G13074   2.550   4.482   7.426 -2.2802 -0.9113 -0.1238
  123OSM    C3F13075   2.421   4.659   7.405 -0.3717  0.4920  0.1255
  123OSM    H3F13076   2.312   4.642   7.390 -0.6086  2.4654 -0.7145
  123OSM    H3G13077   2.435   4.750   7.342  2.7753  0.8349  1.1048
  123OSM    C4F13078   2.432   4.692   7.556 -0.1503 -0.0223 -0.4366
  123OSM    H4F13079   2.351   4.764   7.582  1.2651  1.8104 -0.9238
  123OSM    H4G13080   2.532   4.732   7.583  0.3514 -2.0096  0.9665
  123OSM    C5F13081   2.424   4.567   7.642  0.5422 -0.5253 -0.1365
  123OSM    H5F13082   2.487   4.482   7.606  2.1398  0.5460  0.0261
  123OSM    H5G13083   2.318   4.539   7.626  0.6564 -1.2581  0.3638
  123OSM    C6F13084   2.465   4.589   7.784  0.0351  0.3528 -0.0153
  123OSM    H6F13085   2.380   4.645   7.827 -0.2216 -1.2303  1.6546
  123OSM    H6G13086   2.551   4.658   7.801  1.0660 -0.9350  0.1646
  123OSM    C7F13087   2.484   4.465   7.869 -0.2466 -0.5118  0.4415
  123OSM    H7F13088   2.589   4.432   7.853  0.2661  0.3695  1.7896
  123OSM    H7G13089   2.414   4.381   7.845 -0.4430 -0.3914  0.5868
  123OSM    C8F13090   2.480   4.474   8.024  0.2811 -0.9070 -0.3433
  123OSM    H8F13091   2.382   4.513   8.058  1.4249 -0.2772  2.5186
  123OSM    H8G13092   2.545   4.561   8.049 -0.2493 -0.8985  1.0860
  123OSM    C9F13093   2.510   4.361   8.118 -0.4437  0.5356 -0.2127
  123OSM    H9F13094   2.506   4.259   8.077 -0.5251  0.1074  0.8167
  123OSM   C10F13095   2.552   4.357   8.251  0.6117  0.0421 -0.0500
  123OSM   H10F13096   2.568   4.257   8.294 -2.5168 -0.6945 -0.4253
  123OSM   C11F13097   2.573   4.484   8.338  0.5242 -0.4152 -0.5367
  123OSM   H11F13098   2.493   4.493   8.414  0.7942  1.5393 -0.4204
  123OSM   H11G13099   2.555   4.577   8.281 -0.4454  0.5926  1.3081
  123OSM   C12F13100   2.711   4.497   8.406  0.5835  0.3473  0.4511
  123OSM   H12F13101   2.790   4.492   8.328  1.9882  2.4386  1.6112
  123OSM   H12G13102   2.735   4.414   8.476  0.1686  0.2919  0.5290
  123OSM   C13F13103   2.720   4.631   8.478 -0.3371 -0.5797 -0.8678
  123OSM   H13F13104   2.653   4.704   8.427  0.3448 -0.8472 -2.1867
  123OSM   H13G13105   2.825   4.667   8.474  0.2406 -2.3224 -3.2173
  123OSM   C14F13106   2.670   4.627   8.627 -0.1761  0.4275 -0.0881
  123OSM   H14F13107   2.715   4.543   8.683 -2.4274  0.0666  1.2579
  123OSM   H14G13108   2.562   4.602   8.634  0.0447 -0.4133  0.3816
  123OSM   C15F13109   2.683   4.760   8.701  0.4008  0.0124 -0.3502
  123OSM   H15F13110   2.664   4.852   8.642  1.4582  0.4409 -0.0272
  123OSM   H15G13111   2.785   4.774   8.741 -0.1954  1.3913  0.7797
  123OSM   C16F13112   2.599   4.767   8.830  0.6902 -1.1502 -0.6052
  123OSM   H16F13113   2.609   4.684   8.903 -3.0237 -0.2350  1.1879
  123OSM   H16G13114   2.493   4.780   8.801 -0.1424 -0.2105  2.4483
  123OSM   C17F13115   2.637   4.898   8.907 -0.8106 -0.4367 -0.1820
  123OSM   H17F13116   2.547   4.923   8.967  1.3320 -1.0731  3.5863
  123OSM   H17G13117   2.661   4.977   8.833 -0.4050 -0.5474 -0.1686
  123OSM   C18F13118   2.752   4.876   9.009  0.3470  0.1576  0.3573
  123OSM   H18F13119   2.778   4.973   9.056  0.3491  1.1824 -1.6328
  123OSM   H18G13120   2.840   4.840   8.952  0.5068  0.7576  0.2210
  123OSM   H18H13121   2.732   4.800   9.087  4.3284 -0.8630  0.6273
  124OSM      N13122   4.561   0.482   6.177  0.3569  0.2604  0.4001
  124OSM    C1513123   4.418   0.487   6.142  0.1238  0.3561 -0.1316
  124OSM   H15A13124   4.407   0.534   6.045 -0.4678  1.5160  0.4735
  124OSM   H15B13125   4.357   0.529   6.222  1.2699  1.7869  0.0375
  124OSM   H15C13126   4.381   0.387   6.128 -0.7437  0.6865 -0.3061
  124OSM    C1413127   4.634   0.427   6.060  0.0290  0.1508  0.5471
  124OSM   H14A13128   4.732   0.400   6.098 -0.5350  0.3751  2.2259
  124OSM   H14B13129   4.639   0.481   5.967  1.6424 -1.0824 -0.1254
  124OSM   H14C13130   4.592   0.334   6.025 -2.3057  1.4793 -0.3876
  124OSM    C1313131   4.604   0.620   6.208 -0.4339 -0.4845 -0.3758
  124OSM   H13A13132   4.572   0.651   6.306 -0.0986 -1.6952  0.1417
  124OSM   H13B13133   4.586   0.698   6.135  2.0518  1.5358  1.0134
  124OSM   H13C13134   4.712   0.627   6.213 -0.5909  2.0787  1.1922
  124OSM    C1213135   4.579   0.401   6.304 -0.2271  0.0917  0.6561
  124OSM   H12A13136   4.549   0.298   6.291  0.3437 -0.1808  1.4332
  124OSM   H12B13137   4.504   0.437   6.373 -1.3134 -0.7249 -0.0586
  124OSM    C1113138   4.719   0.403   6.378 -0.4304 -0.0698  0.6876
  124OSM   H11A13139   4.713   0.355   6.478  1.5227  0.7996  1.2885
  124OSM   H11B13140   4.755   0.507   6.394  0.7021 -0.2011 -0.7529
  124OSM      P13141   4.850   0.177   6.302  0.2824  0.2148  0.1164
  124OSM    O1313142   4.746   0.112   6.223  0.2564 -0.1214  0.2953
  124OSM    O1413143   4.995   0.154   6.265  0.1401 -0.6050 -0.0208
  124OSM    O1113144   4.838   0.134   6.457  0.7771 -0.5904  0.5237
  124OSM    O1213145   4.822   0.337   6.299  0.6466  0.7580 -0.3209
  124OSM    C1S13146   4.938   0.164   6.550 -0.8010  0.2960  0.1180
  124OSM    H1S13147   4.949   0.273   6.567 -1.7334 -0.0954  4.5198
  124OSM    H1T13148   5.037   0.123   6.520 -0.6294  0.6369  0.2237
  124OSM     NF13149   5.009   0.129   6.774 -0.7498  0.1180  0.1628
  124OSM    HNF13150   5.080   0.061   6.794  0.2450  1.4965  1.5628
  124OSM    C2S13151   4.900   0.097   6.687 -0.4285 -0.5080  0.4824
  124OSM    H2S13152   4.812   0.153   6.725 -0.1736  0.1581  0.1219
  124OSM    C3S13153   4.871  -0.055   6.688  0.3897 -0.1478  0.6890
  124OSM    H3S13154   4.966  -0.108   6.664 -0.2580 -1.1785  0.3243
  124OSM     O313155   4.784  -0.089   6.572 -0.0993 -0.2851  0.1698
  124OSM    HO313156   4.780  -0.007   6.522  3.6169  0.7043  1.2046
  124OSM    C4S13157   4.834  -0.112   6.819  0.6605  0.1162 -0.6034
  124OSM    H4S13158   4.923  -0.124   6.883  0.1867  0.4704  0.1465
  124OSM    C5S13159   4.707  -0.131   6.871  0.0181 -0.0310 -0.2889
  124OSM    H5S13160   4.627  -0.081   6.814 -0.8862 -1.3302 -0.1860
  124OSM    C6S13161   4.672  -0.185   7.006 -0.3180  0.0393 -0.6031
  124OSM    H6S13162   4.616  -0.278   6.985  2.1865 -1.6662 -0.1073
  124OSM    H6T13163   4.612  -0.108   7.060  1.8530 -0.0610  2.2112
  124OSM    C7S13164   4.785  -0.228   7.098  0.1759  0.2910  0.2484
  124OSM    H7S13165   4.852  -0.141   7.115  1.3309 -0.5540  0.1111
  124OSM    H7T13166   4.844  -0.311   7.056 -0.9140 -0.0815 -0.5937
  124OSM    C8S13167   4.734  -0.265   7.238  0.2995 -0.2237 -0.3211
  124OSM    H8S13168   4.665  -0.352   7.234  0.4891 -0.3567 -0.7598
  124OSM    H8T13169   4.673  -0.186   7.287 -1.7003 -1.1819 -1.1535
  124OSM    C9S13170   4.861  -0.287   7.321 -0.4348 -0.0019 -0.1620
  124OSM    H9S13171   4.930  -0.200   7.323 -1.1117  0.5442  0.0533
  124OSM    H9T13172   4.913  -0.380   7.288 -2.2429 -1.7205  1.5439
  124OSM   C10S13173   4.826  -0.315   7.469 -0.0688  0.4491 -0.3640
  124OSM   H10S13174   4.781  -0.413   7.493 -0.1071  0.4667 -0.3635
  124OSM   H10T13175   4.762  -0.230   7.501 -1.3282  0.0231 -1.6509
  124OSM   C11S13176   4.954  -0.304   7.553  0.3090  0.2791  0.3523
  124OSM   H11S13177   4.996  -0.203   7.535  1.3948 -0.1327  0.5358
  124OSM   H11T13178   5.030  -0.379   7.525 -0.5787 -0.6889  0.4518
  124OSM   C12S13179   4.934  -0.318   7.704  0.2256 -0.3211 -0.0570
  124OSM   H12S13180   4.887  -0.413   7.735 -0.0923 -0.2208 -0.2197
  124OSM   H12T13181   4.871  -0.234   7.741  0.4900 -0.5947  1.0207
  124OSM   C13S13182   5.070  -0.313   7.774  0.2438  0.0470 -0.1021
  124OSM   H13S13183   5.119  -0.214   7.756  0.1639  0.6244  2.4684
  124OSM   H13T13184   5.127  -0.399   7.732  0.4445  0.0756  0.1058
  124OSM   C14S13185   5.065  -0.330   7.928 -0.3766  0.7682 -0.1551
  124OSM   H14S13186   5.031  -0.432   7.955 -0.3773  0.5034 -1.1155
  124OSM   H14T13187   4.996  -0.270   7.990  0.0897  0.6179  0.5183
  124OSM   C15S13188   5.204  -0.301   7.988  0.2129 -0.0285  0.2326
  124OSM   H15S13189   5.232  -0.198   7.958  1.0863 -0.6716 -1.3627
  124OSM   H15T13190   5.284  -0.362   7.938  0.5997  2.2299 -2.1384
  124OSM   C16S13191   5.208  -0.318   8.146 -0.0937 -0.2051  0.9771
  124OSM   H16S13192   5.297  -0.264   8.184  0.3867  1.9261 -2.6607
  124OSM   H16T13193   5.223  -0.428   8.156 -0.5218 -0.6492 -2.2536
  124OSM   C17S13194   5.089  -0.267   8.229  0.4223 -0.2699 -0.2031
  124OSM   H17S13195   5.002  -0.325   8.193  0.9593 -0.2158 -1.6592
  124OSM   H17T13196   5.080  -0.161   8.197  1.3170 -0.4470 -1.0878
  124OSM   C18S13197   5.116  -0.274   8.382  0.4304 -0.1198 -0.3888
  124OSM   H18S13198   5.209  -0.215   8.397 -0.0799  0.7450 -0.5925
  124OSM   H18T13199   5.132  -0.382   8.401  2.7253  0.4258  1.4293
  124OSM   H18U13200   5.028  -0.221   8.425 -0.6280 -0.5392 -1.9768
  124OSM    C1F13201   5.033   0.249   6.821 -0.4033  0.3784 -0.4661
  124OSM     OF13202   4.933   0.322   6.834 -0.7428 -0.1371  0.1596
  124OSM    C2F13203   5.179   0.284   6.842 -0.3069 -0.0759 -0.5405
  124OSM    H2F13204   5.224   0.290   6.740 -0.1102  1.0998 -0.4044
  124OSM    H2G13205   5.231   0.203   6.896 -0.7662 -0.5347 -0.7751
  124OSM    C3F13206   5.187   0.414   6.922 -0.1728  0.4502  0.3545
  124OSM    H3F13207   5.104   0.484   6.898  0.5718  1.2282  0.0266
  124OSM    H3G13208   5.281   0.473   6.912 -0.6390  0.8711 -2.1095
  124OSM    C4F13209   5.177   0.370   7.071  0.0420 -0.4386  0.3980
  124OSM    H4F13210   5.255   0.292   7.079  1.4720  1.0811  2.3821
  124OSM    H4G13211   5.075   0.332   7.089  0.0293 -1.2279 -1.1882
  124OSM    C5F13212   5.193   0.486   7.175  0.7427  0.2821 -0.0494
  124OSM    H5F13213   5.115   0.563   7.155 -1.0292 -2.2173 -3.9461
  124OSM    H5G13214   5.298   0.523   7.172  1.2290 -0.7795  1.9936
  124OSM    C6F13215   5.186   0.436   7.320  0.5147 -0.1891 -1.0224
  124OSM    H6F13216   5.276   0.378   7.349  1.1509  0.8601 -0.8508
  124OSM    H6G13217   5.096   0.371   7.324 -0.6397  1.4143  0.7636
  124OSM    C7F13218   5.175   0.552   7.420  0.2746 -0.0869 -0.2727
  124OSM    H7F13219   5.078   0.605   7.407 -1.2531 -2.4679  0.7641
  124OSM    H7G13220   5.248   0.634   7.403  0.1359  0.8532  2.9054
  124OSM    C8F13221   5.164   0.506   7.571 -0.1394 -0.0528 -0.4496
  124OSM    H8F13222   5.087   0.427   7.578  0.3232 -0.3751  2.0918
  124OSM    H8G13223   5.124   0.591   7.629  0.0968  1.5289 -2.4664
  124OSM    C9F13224   5.296   0.455   7.621  1.3879  0.1574 -0.5221
  124OSM    H9F13225   5.363   0.388   7.566  0.0685 -0.2502 -1.6813
  124OSM   C10F13226   5.345   0.488   7.742  0.2306  0.6612  0.3431
  124OSM   H10F13227   5.441   0.437   7.761 -1.0362 -1.7664  0.5492
  124OSM   C11F13228   5.293   0.572   7.849 -0.3919 -0.1004  0.6630
  124OSM   H11F13229   5.183   0.573   7.837 -0.3384  0.9098  0.1659
  124OSM   H11G13230   5.324   0.678   7.836 -0.6370  0.0714  1.4887
  124OSM   C12F13231   5.341   0.526   7.993  0.2841 -0.2525 -0.2706
  124OSM   H12F13232   5.452   0.515   7.999  0.2444  0.1393  1.9229
  124OSM   H12G13233   5.299   0.425   8.010 -1.1282  0.1913 -0.9727
  124OSM   C13F13234   5.295   0.629   8.097  0.2131 -0.0072 -0.2187
  124OSM   H13F13235   5.325   0.729   8.060  0.2270  0.5423  1.2375
  124OSM   H13G13236   5.361   0.616   8.185 -0.1096  1.8535  0.3456
  124OSM   C14F13237   5.149   0.625   8.141  0.5137  0.0221 -0.5667
  124OSM   H14F13238   5.085   0.621   8.050 -2.0585 -0.9363  1.1608
  124OSM   H14G13239   5.113   0.709   8.204 -3.0350  0.6738 -3.1721
  124OSM   C15F13240   5.114   0.496   8.225 -0.2635 -0.2862 -0.2755
  124OSM   H15F13241   5.190   0.478   8.304 -1.6156  1.3224  1.4695
  124OSM   H15G13242   5.105   0.424   8.140 -0.5268  2.6458 -2.9081
  124OSM   C16F13243   4.974   0.515   8.291  0.3368 -0.0182 -0.3036
  124OSM   H16F13244   4.892   0.496   8.219 -0.4627 -1.1440  0.8576
  124OSM   H16G13245   4.982   0.615   8.338  0.0642 -0.4135  0.6068
  124OSM   C17F13246   4.957   0.410   8.404 -0.2546  0.3721 -0.5537
  124OSM   H17F13247   4.874   0.447   8.468 -0.7394 -0.2436 -0.8151
  124OSM   H17G13248   5.046   0.412   8.470 -1.0222 -3.1013  0.8253
  124OSM   C18F13249   4.929   0.266   8.360  0.1686  0.8004  0.1003
  124OSM   H18F13250   4.856   0.263   8.276 -2.0243  1.7867  1.8615
  124OSM   H18G13251   4.895   0.196   8.438  1.1648  0.4917  0.2771
  124OSM   H18H13252   5.025   0.222   8.324 -0.4266 -1.8566  1.5269
  125OSM      N13253   1.813   5.536   6.750 -0.1989 -0.4850  0.3639
  125OSM    C1513254   1.950   5.540   6.690  1.0149 -0.0046 -0.1822
  125OSM   H15A13255   1.944   5.515   6.585  0.0605  3.2339 -1.0071
  125OSM   H15B13256   2.011   5.466   6.739  0.1730  0.0744  1.0222
  125OSM   H15C13257   2.001   5.635   6.694  1.6778 -0.3938  1.8114
  125OSM    C1413258   1.745   5.405   6.720 -0.1135  0.7707 -0.2707
  125OSM   H14A13259   1.774   5.327   6.788  0.5026  0.1842 -1.1840
  125OSM   H14B13260   1.752   5.366   6.619  0.5369  1.1746 -0.3916
  125OSM   H14C13261   1.638   5.419   6.716 -0.3363 -0.5543  0.5055
  125OSM    C1313262   1.817   5.552   6.897 -0.1767  0.3014 -0.1012
  125OSM   H13A13263   1.852   5.652   6.919 -0.0211  0.2332 -0.0392
  125OSM   H13B13264   1.896   5.492   6.939  1.0646  2.6731  1.1530
  125OSM   H13C13265   1.727   5.532   6.952  0.4239 -0.7404  0.5137
  125OSM    C1213266   1.732   5.652   6.694 -0.3087 -0.1182  0.2085
  125OSM   H12A13267   1.743   5.661   6.587  1.3185  0.1148  0.3695
  125OSM   H12B13268   1.791   5.734   6.733  0.9490 -1.5121  1.3116
  125OSM    C1113269   1.588   5.662   6.742 -0.0006  0.1857  0.4163
  125OSM   H11A13270   1.552   5.764   6.719  1.0230  0.1649 -1.5867
  125OSM   H11B13271   1.565   5.631   6.846 -1.4737 -1.1359 -0.2547
  125OSM      P13272   1.366   5.604   6.641  0.0890 -0.4605 -0.1737
  125OSM    O1313273   1.342   5.694   6.528  0.1319  0.4583  0.5247
  125OSM    O1413274   1.286   5.479   6.646 -0.0759 -0.0322 -0.0988
  125OSM    O1113275   1.336   5.685   6.772  0.0727 -0.3621  0.0651
  125OSM    O1213276   1.514   5.571   6.661 -0.0439 -0.0100 -0.6456
  125OSM    C1S13277   1.268   5.632   6.880 -0.3955 -0.1755  0.1826
  125OSM    H1S13278   1.316   5.538   6.913  2.5277  0.2868 -2.2991
  125OSM    H1T13279   1.161   5.611   6.859 -0.1467 -0.6258 -0.6934
  125OSM     NF13280   1.191   5.652   7.107  0.3236 -0.6119 -0.2931
  125OSM    HNF13281   1.092   5.646   7.099 -0.3990  1.6952  4.1010
  125OSM    C2S13282   1.261   5.725   7.005 -0.7415 -0.2148 -0.4545
  125OSM    H2S13283   1.366   5.741   7.038 -0.7776 -1.3925  0.3026
  125OSM    C3S13284   1.203   5.867   6.977  0.3240  0.1424 -0.7385
  125OSM    H3S13285   1.093   5.864   6.963 -0.2709  0.4051  2.9434
  125OSM     O313286   1.266   5.926   6.872  0.2684 -0.3422 -0.1734
  125OSM    HO313287   1.305   5.849   6.829 -0.8406  0.4388 -2.8261
  125OSM    C4S13288   1.225   5.957   7.104 -0.6477 -0.3934  0.4651
  125OSM    H4S13289   1.327   5.998   7.107 -1.3147  1.4350 -0.3110
  125OSM    C5S13290   1.143   5.983   7.205  0.2419  0.2662 -0.1834
  125OSM    H5S13291   1.044   5.934   7.209 -0.0262  0.4549 -2.8718
  125OSM    C6S13292   1.179   6.068   7.316  0.4475  0.0343 -0.8065
  125OSM    H6S13293   1.148   6.174   7.303 -0.5709 -0.2186 -0.5211
  125OSM    H6T13294   1.290   6.077   7.322  0.5221 -0.5450 -1.2266
  125OSM    C7S13295   1.123   6.009   7.444 -0.0262 -0.9371  0.0732
  125OSM    H7S13296   1.158   5.904   7.450 -0.6987 -1.3682 -2.2723
  125OSM    H7T13297   1.012   6.014   7.439 -0.1785 -0.7249  2.6306
  125OSM    C8S13298   1.180   6.068   7.573 -0.2431  0.0708 -0.4149
  125OSM    H8S13299   1.179   6.179   7.573  0.8930  0.1090 -2.0953
  125OSM    H8T13300   1.289   6.046   7.576  0.2546  2.0281 -1.9792
  125OSM    C9S13301   1.106   6.025   7.692 -0.5879 -0.1669 -0.8151
  125OSM    H9S13302   1.108   5.914   7.705  1.9941 -0.1531 -0.6130
  125OSM    H9T13303   0.999   6.055   7.680 -0.2611  0.7479 -1.4857
  125OSM   C10S13304   1.146   6.095   7.830 -0.0122 -0.0646 -0.1401
  125OSM   H10S13305   1.164   6.204   7.823  1.1209  0.0049  2.6429
  125OSM   H10T13306   1.243   6.051   7.863  0.5859  2.0511  1.0910
  125OSM   C11S13307   1.047   6.061   7.943  0.7545  0.2793  0.3198
  125OSM   H11S13308   1.064   5.952   7.958  2.0937  0.4609  0.2046
  125OSM   H11T13309   0.944   6.074   7.902  0.5253  1.6047  1.2495
  125OSM   C12S13310   1.057   6.133   8.075  0.4159 -0.5669  0.4779
  125OSM   H12S13311   0.982   6.091   8.145 -0.4644 -1.2236 -0.8111
  125OSM   H12T13312   1.030   6.240   8.067 -3.0735 -1.3945 -1.1022
  125OSM   C13S13313   1.192   6.119   8.139 -1.1019 -0.4208 -0.2711
  125OSM   H13S13314   1.277   6.158   8.078 -0.2885 -1.3013  0.2712
  125OSM   H13T13315   1.223   6.013   8.152  1.8018  0.0592 -2.1347
  125OSM   C14S13316   1.199   6.183   8.277  0.4485 -0.7295  0.5003
  125OSM   H14S13317   1.296   6.153   8.321 -0.4138 -0.7611  2.5007
  125OSM   H14T13318   1.130   6.136   8.351 -0.2777 -0.3089  0.1050
  125OSM   C15S13319   1.170   6.335   8.285 -0.1203  0.5122 -0.1809
  125OSM   H15S13320   1.062   6.352   8.306 -0.9145 -0.2662 -3.1969
  125OSM   H15T13321   1.192   6.374   8.183 -0.3146 -1.4378 -1.0082
  125OSM   C16S13322   1.260   6.402   8.389 -0.1009  0.0806  0.3677
  125OSM   H16S13323   1.263   6.507   8.353  1.3312 -0.3520 -0.8439
  125OSM   H16T13324   1.360   6.355   8.394  0.0485  0.2612 -0.7021
  125OSM   C17S13325   1.189   6.391   8.525  0.4965  0.3707  0.0311
  125OSM   H17S13326   1.272   6.380   8.599  1.8027  1.1146 -1.2826
  125OSM   H17T13327   1.138   6.293   8.536  0.1409  0.7120  1.7439
  125OSM   C18S13328   1.099   6.510   8.560  0.1220  0.1128 -0.4268
  125OSM   H18S13329   1.011   6.519   8.492 -0.6394 -1.2659  0.3186
  125OSM   H18T13330   1.144   6.611   8.566 -0.8040  0.4999  0.2328
  125OSM   H18U13331   1.055   6.483   8.659 -1.1724  1.3664 -0.6167
  125OSM    C1F13332   1.246   5.557   7.179  0.1300  0.2051  0.0898
  125OSM     OF13333   1.360   5.517   7.156  0.0742 -0.3931  0.3744
  125OSM    C2F13334   1.163   5.505   7.297 -0.0330 -0.1252 -0.3837
  125OSM    H2F13335   1.140   5.396   7.292  0.1298 -0.2940  1.6771
  125OSM    H2G13336   1.074   5.571   7.311 -1.6610 -2.7167  3.5592
  125OSM    C3F13337   1.238   5.542   7.430 -0.4402 -0.4891  0.9990
  125OSM    H3F13338   1.273   5.647   7.428 -1.8631  0.1307  3.5721
  125OSM    H3G13339   1.331   5.482   7.438 -1.8024 -2.8732  0.0427
  125OSM    C4F13340   1.138   5.535   7.545 -0.5553 -0.4026 -0.0447
  125OSM    H4F13341   1.090   5.435   7.540 -0.2800 -0.4942 -2.1185
  125OSM    H4G13342   1.057   5.609   7.533  0.3823  0.3512 -2.4092
  125OSM    C5F13343   1.210   5.580   7.677  0.0670 -0.3822  0.4910
  125OSM    H5F13344   1.252   5.681   7.659 -1.6293  0.7173  2.2137
  125OSM    H5G13345   1.288   5.503   7.696  1.9887  1.7464  1.7137
  125OSM    C6F13346   1.120   5.606   7.800  0.0224 -0.1787 -0.6137
  125OSM    H6F13347   1.073   5.509   7.827 -2.2023  0.9919 -0.0302
  125OSM    H6G13348   1.036   5.674   7.776  0.9775  0.8336 -1.2159
  125OSM    C7F13349   1.201   5.666   7.910  0.0434 -0.3505 -0.2971
  125OSM    H7F13350   1.229   5.771   7.888  0.7788 -0.4913 -0.0702
  125OSM    H7G13351   1.293   5.605   7.909  0.9155  0.9193 -1.7968
  125OSM    C8F13352   1.151   5.654   8.058 -0.0551  0.7794  0.6513
  125OSM    H8F13353   1.121   5.547   8.059 -1.8707  1.2541 -0.0974
  125OSM    H8G13354   1.057   5.711   8.073  0.2559  1.2304  0.9238
  125OSM    C9F13355   1.250   5.689   8.166  0.5175 -0.1117 -0.3767
  125OSM    H9F13356   1.358   5.676   8.153  0.4709  0.8299 -1.9916
  125OSM   C10F13357   1.217   5.748   8.279  0.3153 -0.7836  0.6188
  125OSM   H10F13358   1.293   5.767   8.356  2.7139 -1.8628 -1.3530
  125OSM   C11F13359   1.076   5.772   8.325  0.5388 -0.9021  1.3074
  125OSM   H11F13360   1.004   5.694   8.291 -2.0691  1.4114  1.1889
  125OSM   H11G13361   1.033   5.858   8.270 -1.6985 -0.4802  3.5386
  125OSM   C12F13362   1.053   5.807   8.473 -0.1248 -0.3860 -0.1109
  125OSM   H12F13363   0.949   5.771   8.490  0.5448 -2.0779  0.6862
  125OSM   H12G13364   1.067   5.915   8.494  2.9721 -0.0617 -3.0091
  125OSM   C13F13365   1.143   5.729   8.573  0.9982 -0.4242 -0.4896
  125OSM   H13F13366   1.253   5.740   8.573  0.9886 -0.1522  0.6137
  125OSM   H13G13367   1.123   5.623   8.547 -2.0737 -0.0981  0.1539
  125OSM   C14F13368   1.108   5.762   8.722 -0.9137  1.2023  0.8976
  125OSM   H14F13369   1.146   5.686   8.794 -1.3873 -0.0309 -0.1054
  125OSM   H14G13370   0.997   5.754   8.736 -0.7122 -0.5667  1.8370
  125OSM   C15F13371   1.168   5.899   8.755 -0.6403 -0.1844 -0.0048
  125OSM   H15F13372   1.169   5.964   8.665 -0.1438  1.0584  0.8723
  125OSM   H15G13373   1.278   5.896   8.772 -0.4654  1.2759 -0.7886
  125OSM   C16F13374   1.099   5.963   8.874 -0.1672  0.2331  0.1853
  125OSM   H16F13375   1.170   6.035   8.921  1.3821 -0.7463 -0.5975
  125OSM   H16G13376   1.071   5.884   8.948  2.0064 -2.4178 -1.6393
  125OSM   C17F13377   0.973   6.044   8.842 -0.2510  0.6577  0.3795
  125OSM   H17F13378   0.885   5.980   8.817 -0.3940  0.5008  1.2257
  125OSM   H17G13379   0.997   6.115   8.761 -0.4146  1.7083  1.2370
  125OSM   C18F13380   0.947   6.122   8.972 -0.5386  0.7865  0.1345
  125OSM   H18F13381   1.033   6.185   9.002  0.1305  0.9014 -1.8899
  125OSM   H18G13382   0.914   6.060   9.058  2.0162 -0.8560  0.0349
  125OSM   H18H13383   0.870   6.201   8.961  0.1076  1.5500  0.9420
  126OSM      N13384   4.454   3.248   6.194 -0.3985 -0.0935 -0.1967
  126OSM    C1513385   4.429   3.397   6.173 -0.7261 -0.0150  0.5494
  126OSM   H15A13386   4.486   3.457   6.243  0.1756  0.0889 -0.2481
  126OSM   H15B13387   4.327   3.406   6.209 -0.8626 -1.9205  0.7156
  126OSM   H15C13388   4.437   3.428   6.069  1.5444 -1.5864  0.1885
  126OSM    C1413389   4.384   3.172   6.089  0.5194 -0.4464  0.2910
  126OSM   H14A13390   4.379   3.236   6.002 -4.0006  0.1281  0.7366
  126OSM   H14B13391   4.284   3.149   6.122  0.6990 -0.5073  0.8014
  126OSM   H14C13392   4.441   3.087   6.055  1.5384  0.9733 -1.7507
  126OSM    C1313393   4.606   3.236   6.178  0.4560 -0.3101 -0.3712
  126OSM   H13A13394   4.642   3.283   6.087  1.5298 -0.2178  0.0874
  126OSM   H13B13395   4.645   3.136   6.182  0.6623 -0.1817  1.5432
  126OSM   H13C13396   4.653   3.290   6.259  0.5586 -0.7505 -0.1395
  126OSM    C1213397   4.418   3.198   6.333  0.9079 -0.0531  0.3926
  126OSM   H12A13398   4.450   3.095   6.344 -0.2123 -0.6289 -1.3977
  126OSM   H12B13399   4.312   3.191   6.353  1.1519 -1.4527  1.3744
  126OSM    C1113400   4.469   3.280   6.462  0.3100 -0.0335  0.3146
  126OSM   H11A13401   4.438   3.233   6.558  3.3584 -1.9211  0.5231
  126OSM   H11B13402   4.426   3.381   6.445  0.5333  0.1207  0.6669
  126OSM      P13403   4.687   3.414   6.509  0.5551  0.2138 -0.0606
  126OSM    O1313404   4.830   3.391   6.523  0.2407  0.3372  0.3473
  126OSM    O1413405   4.655   3.519   6.410  0.0597 -0.2916 -0.0617
  126OSM    O1113406   4.618   3.441   6.650  0.0750 -0.0361  1.1487
  126OSM    O1213407   4.617   3.279   6.458 -0.3039  0.1549 -0.4462
  126OSM    C1S13408   4.652   3.367   6.765 -0.0545 -0.1036  0.0543
  126OSM    H1S13409   4.760   3.354   6.783  0.2554  0.6358 -1.1661
  126OSM    H1T13410   4.616   3.263   6.751 -1.2575  0.0636  1.5459
  126OSM     NF13411   4.543   3.300   6.987  0.1622  0.1212 -0.0761
  126OSM    HNF13412   4.444   3.295   7.000  0.3975  0.6363  2.4425
  126OSM    C2S13413   4.591   3.414   6.903  0.0309  0.5486  0.2971
  126OSM    H2S13414   4.674   3.466   6.955  1.1874 -2.0265  1.1786
  126OSM    C3S13415   4.483   3.522   6.876 -0.2225 -0.0447  0.4594
  126OSM    H3S13416   4.404   3.485   6.808 -0.4536  0.7921  0.2594
  126OSM     O313417   4.533   3.641   6.807 -0.1853 -0.4793 -0.2303
  126OSM    HO313418   4.618   3.604   6.783 -1.0445 -2.0443 -1.0068
  126OSM    C4S13419   4.424   3.572   7.003  0.1719 -0.5089 -0.7534
  126OSM    H4S13420   4.341   3.503   7.027  1.3430 -2.0824 -1.0496
  126OSM    C5S13421   4.463   3.672   7.089  0.5803 -0.3411 -0.1523
  126OSM    H5S13422   4.553   3.732   7.071  1.2423 -0.1194  3.1772
  126OSM    C6S13423   4.386   3.707   7.211  0.1456  0.0094  0.3496
  126OSM    H6S13424   4.331   3.803   7.199 -0.8490 -0.6241 -0.3099
  126OSM    H6T13425   4.454   3.720   7.298  0.2309 -0.4860  0.3615
  126OSM    C7S13426   4.288   3.601   7.275 -0.1161 -0.3959 -0.4904
  126OSM    H7S13427   4.355   3.524   7.319 -0.1136 -1.0114 -1.5507
  126OSM    H7T13428   4.210   3.555   7.212 -1.0710  2.5177 -1.5956
  126OSM    C8S13429   4.212   3.665   7.394 -0.3618 -0.0561 -0.4138
  126OSM    H8S13430   4.134   3.732   7.352  0.5007 -0.5367 -2.9304
  126OSM    H8T13431   4.287   3.714   7.460 -1.3566  0.4757  0.3542
  126OSM    C9S13432   4.143   3.556   7.483 -0.7182 -0.0955  0.0343
  126OSM    H9S13433   4.095   3.478   7.420 -1.1385  0.6051 -0.5378
  126OSM    H9T13434   4.053   3.610   7.520  0.0891  2.2329 -1.1603
  126OSM   C10S13435   4.230   3.505   7.594 -0.6060 -0.3295 -0.5035
  126OSM   H10S13436   4.272   3.586   7.657  3.9358 -2.7544  0.0019
  126OSM   H10T13437   4.315   3.454   7.543  0.3417  1.9171 -1.3001
  126OSM   C11S13438   4.166   3.401   7.689  0.0044  0.6032  0.0890
  126OSM   H11S13439   4.144   3.310   7.629  0.0576  2.1592 -2.4545
  126OSM   H11T13440   4.070   3.446   7.722 -0.3592  0.2071 -0.4250
  126OSM   C12S13441   4.257   3.369   7.806  0.0597  0.8397 -0.4137
  126OSM   H12S13442   4.275   3.466   7.857 -0.0072  0.0507  1.1638
  126OSM   H12T13443   4.349   3.317   7.770 -0.6612 -0.1721 -0.8605
  126OSM   C13S13444   4.194   3.268   7.907  0.1681  0.1903 -0.4617
  126OSM   H13S13445   4.276   3.234   7.974  0.9901 -0.4199 -1.7369
  126OSM   H13T13446   4.162   3.179   7.848  0.0346 -1.3070  1.7649
  126OSM   C14S13447   4.068   3.324   7.987  0.6685  0.4069  0.0947
  126OSM   H14S13448   4.000   3.374   7.914  1.0572  1.6291  0.5413
  126OSM   H14T13449   4.098   3.403   8.060 -1.8250 -1.1922  3.0527
  126OSM   C15S13450   4.010   3.211   8.076 -0.5033 -0.0310  0.2212
  126OSM   H15S13451   3.969   3.130   8.012  0.7537 -1.6989  1.4251
  126OSM   H15T13452   3.930   3.243   8.146 -1.3564 -0.0985 -0.7165
  126OSM   C16S13453   4.118   3.154   8.179  1.0664 -0.1781  0.6838
  126OSM   H16S13454   4.152   3.238   8.242 -2.2642  2.0592 -0.2337
  126OSM   H16T13455   4.209   3.110   8.133  1.6823  0.8753  0.8789
  126OSM   C17S13456   4.051   3.051   8.266 -0.1887 -0.3249 -0.0015
  126OSM   H17S13457   4.031   2.960   8.207 -2.1506  0.5116 -0.7026
  126OSM   H17T13458   3.946   3.075   8.293  0.1271  1.1542 -0.0052
  126OSM   C18S13459   4.122   3.029   8.400  0.7224 -0.9219  0.5087
  126OSM   H18S13460   4.091   2.935   8.451  1.7006 -0.9968  0.9904
  126OSM   H18T13461   4.130   3.111   8.474  1.3066  1.3796 -1.9751
  126OSM   H18U13462   4.230   3.032   8.373  0.3496  0.9982 -0.9785
  126OSM    C1F13463   4.624   3.203   7.033 -0.3285  0.0803 -0.0058
  126OSM     OF13464   4.743   3.230   7.049 -0.0405  0.5529 -0.7076
  126OSM    C2F13465   4.569   3.062   7.063  0.6624  0.3014  0.4427
  126OSM    H2F13466   4.623   2.985   7.005  2.0456  0.2575  1.7419
  126OSM    H2G13467   4.462   3.053   7.034  0.5371  1.5380  0.4667
  126OSM    C3F13468   4.603   3.031   7.208 -0.3735 -0.0123  0.1388
  126OSM    H3F13469   4.712   3.053   7.221 -0.0212  0.4455 -2.9230
  126OSM    H3G13470   4.589   2.925   7.239  0.9724  0.1403  1.4081
  126OSM    C4F13471   4.533   3.118   7.311 -0.8446 -0.2385 -0.9626
  126OSM    H4F13472   4.444   3.059   7.344 -0.7505  1.4038  2.6783
  126OSM    H4G13473   4.513   3.223   7.282  2.1609  0.8672  0.5764
  126OSM    C5F13474   4.614   3.135   7.442  0.0607  0.2389  0.2466
  126OSM    H5F13475   4.715   3.170   7.410  0.9072 -1.5985  0.7952
  126OSM    H5G13476   4.633   3.036   7.489 -0.5805 -1.2822 -2.5111
  126OSM    C6F13477   4.542   3.237   7.535  0.6045  0.3126 -0.2213
  126OSM    H6F13478   4.442   3.196   7.560  0.3748  1.0550  0.1135
  126OSM    H6G13479   4.522   3.328   7.473 -1.8497  1.4244  2.0127
  126OSM    C7F13480   4.617   3.259   7.663  0.6250  0.3952  0.7480
  126OSM    H7F13481   4.589   3.351   7.718  1.7845  1.4105 -0.3125
  126OSM    H7G13482   4.722   3.282   7.636  0.9833 -2.6324 -0.9342
  126OSM    C8F13483   4.629   3.139   7.761  0.2384  0.1184  0.0065
  126OSM    H8F13484   4.688   3.172   7.849  0.2093 -1.4571  0.6500
  126OSM    H8G13485   4.690   3.064   7.706  1.7585 -0.5303  2.4241
  126OSM    C9F13486   4.499   3.068   7.810 -0.1230 -0.1963  0.5232
  126OSM    H9F13487   4.419   3.045   7.738  0.0855 -2.8285  1.0279
  126OSM   C10F13488   4.488   3.019   7.932  0.4743 -0.2001 -0.3973
  126OSM   H10F13489   4.386   2.986   7.954 -1.4708  2.9187 -3.6221
  126OSM   C11F13490   4.588   3.042   8.046 -0.2002 -0.3812 -0.7257
  126OSM   H11F13491   4.665   3.119   8.025 -0.2557 -0.1304 -0.0258
  126OSM   H11G13492   4.636   2.946   8.076 -2.1968 -1.6816 -1.5258
  126OSM   C12F13493   4.504   3.089   8.167  0.4955  0.2881 -0.5798
  126OSM   H12F13494   4.428   3.010   8.185 -0.0262  1.3261  2.3544
  126OSM   H12G13495   4.445   3.179   8.140  0.8704  0.8431  0.3885
  126OSM   C13F13496   4.596   3.118   8.289  0.2182 -0.0228  0.1816
  126OSM   H13F13497   4.684   3.176   8.253 -0.3320 -0.6165 -2.3386
  126OSM   H13G13498   4.630   3.018   8.322  2.1702  0.2186 -0.9509
  126OSM   C14F13499   4.532   3.190   8.407 -0.2182  0.6969  0.1760
  126OSM   H14F13500   4.432   3.148   8.429  0.0337 -0.6148 -0.9850
  126OSM   H14G13501   4.504   3.291   8.369  2.0661  1.5529  0.6100
  126OSM   C15F13502   4.621   3.191   8.530  0.1939 -0.3132 -0.6443
  126OSM   H15F13503   4.703   3.266   8.522 -1.2821  1.5831  0.8327
  126OSM   H15G13504   4.666   3.090   8.528 -0.0802 -0.4348 -0.8759
  126OSM   C16F13505   4.535   3.233   8.655 -0.1461  0.2925 -0.1122
  126OSM   H16F13506   4.437   3.181   8.652  0.7952 -1.7241  1.7180
  126OSM   H16G13507   4.514   3.342   8.654 -3.3192 -0.1292  2.5820
  126OSM   C17F13508   4.604   3.207   8.792  0.2305  0.6054  0.8865
  126OSM   H17F13509   4.543   3.240   8.879 -0.0940 -1.7114  1.6328
  126OSM   H17G13510   4.700   3.260   8.802  0.4436 -0.0537  2.7564
  126OSM   C18F13511   4.640   3.059   8.824 -0.9093 -0.5776  0.2393
  126OSM   H18F13512   4.692   3.062   8.922  0.8624  1.7561 -0.6872
  126OSM   H18G13513   4.702   3.015   8.743  2.3590  1.1831  1.6008
  126OSM   H18H13514   4.548   2.997   8.819 -0.9272 -0.5137 -0.2817
  127OSM      N13515   2.182   4.253   6.285 -0.0891 -0.2745  0.5384
  127OSM    C1513516   2.085   4.165   6.358 -0.3337 -0.2995 -0.1644
  127OSM   H15A13517   2.141   4.106   6.430 -0.0642  0.2629  0.0918
  127OSM   H15B13518   2.016   4.108   6.298  0.4671 -1.0463 -0.3991
  127OSM   H15C13519   2.024   4.225   6.424 -0.2328 -0.7233  0.3168
  127OSM    C1413520   2.244   4.170   6.178 -0.5047 -0.3060  0.0655
  127OSM   H14A13521   2.309   4.233   6.119 -0.8641 -3.6524 -4.4184
  127OSM   H14B13522   2.166   4.127   6.117 -1.1458 -0.3578  0.9023
  127OSM   H14C13523   2.311   4.094   6.216  3.0489  2.6516  0.2247
  127OSM    C1313524   2.119   4.378   6.216  0.1207  0.7460  0.0732
  127OSM   H13A13525   2.191   4.420   6.147  0.8912  0.6077  0.7616
  127OSM   H13B13526   2.102   4.449   6.296  1.7141  0.4214  0.7495
  127OSM   H13C13527   2.026   4.361   6.165 -0.2620  0.5779  0.8200
  127OSM    C1213528   2.286   4.294   6.392 -0.2217 -0.3841  0.6468
  127OSM   H12A13529   2.369   4.342   6.342  0.3129 -1.9689 -0.0539
  127OSM   H12B13530   2.325   4.202   6.433 -2.3326 -1.7893 -0.3102
  127OSM    C1113531   2.247   4.396   6.499 -0.1559 -0.4071 -0.3169
  127OSM   H11A13532   2.332   4.407   6.570 -0.2838 -2.0161  0.1371
  127OSM   H11B13533   2.167   4.349   6.560 -0.2475 -0.5437 -0.5388
  127OSM      P13534   2.112   4.623   6.522  0.0142  0.2825 -0.1620
  127OSM    O1313535   2.182   4.754   6.501  0.7845  0.5143  0.0153
  127OSM    O1413536   1.975   4.617   6.466  0.2085 -0.8662  0.2640
  127OSM    O1113537   2.117   4.586   6.676  0.4072 -0.0613  0.4950
  127OSM    O1213538   2.208   4.521   6.444 -0.5051 -0.4644 -0.2081
  127OSM    C1S13539   2.231   4.620   6.758 -0.0820  0.2417  0.1269
  127OSM    H1S13540   2.284   4.714   6.731  1.1507 -0.6979 -0.9268
  127OSM    H1T13541   2.314   4.548   6.739 -1.0016 -0.3573 -2.0319
  127OSM     NF13542   2.306   4.672   6.980  0.0356 -0.2363 -0.0234
  127OSM    HNF13543   2.339   4.602   7.043 -0.9495 -0.6710  0.0259
  127OSM    C2S13544   2.187   4.632   6.909 -0.0370  0.6715 -0.6360
  127OSM    H2S13545   2.109   4.710   6.919 -0.0810  0.6485 -0.7932
  127OSM    C3S13546   2.124   4.496   6.949  0.1474 -0.2410 -1.1496
  127OSM    H3S13547   2.197   4.413   6.940  2.3079  1.0649  2.2600
  127OSM     O313548   2.001   4.451   6.883 -0.1125 -0.1126 -0.6550
  127OSM    HO313549   2.016   4.490   6.797 -0.3499 -0.2864 -0.7765
  127OSM    C4S13550   2.100   4.502   7.098  0.6608  0.3014 -0.1710
  127OSM    H4S13551   2.177   4.450   7.156 -0.3038 -1.0281 -0.0268
  127OSM    C5S13552   2.010   4.576   7.155 -0.2687 -0.5715 -0.0084
  127OSM    H5S13553   1.936   4.619   7.086  1.1624 -1.0534 -1.9188
  127OSM    C6S13554   1.979   4.586   7.301 -0.0883 -0.3932 -0.3295
  127OSM    H6S13555   1.872   4.576   7.330 -0.0878 -1.3813 -0.6087
  127OSM    H6T13556   2.016   4.680   7.346 -2.6376  1.4776 -1.8926
  127OSM    C7S13557   2.036   4.467   7.390 -0.7877 -0.1241  0.9646
  127OSM    H7S13558   2.147   4.467   7.384 -0.7875 -2.2796 -0.4337
  127OSM    H7T13559   2.016   4.370   7.339  0.3050  1.1326 -2.0960
  127OSM    C8S13560   1.989   4.472   7.534 -0.3998 -0.4685  0.4771
  127OSM    H8S13561   2.006   4.385   7.600  0.9466  1.8606  3.3904
  127OSM    H8T13562   1.881   4.469   7.509 -0.0109  2.5181 -2.2754
  127OSM    C9S13563   2.031   4.604   7.607  0.0725  0.5684  0.0047
  127OSM    H9S13564   1.965   4.688   7.573  0.1695  0.7068  0.1588
  127OSM    H9T13565   2.127   4.617   7.553 -0.7980 -2.3650 -2.5801
  127OSM   C10S13566   2.025   4.583   7.757 -0.1843  0.5830  0.0044
  127OSM   H10S13567   2.060   4.674   7.808 -1.1882  0.0041  1.7911
  127OSM   H10T13568   2.097   4.500   7.777  1.6400  1.3331 -2.7782
  127OSM   C11S13569   1.883   4.541   7.806 -0.1286  0.0956 -0.3155
  127OSM   H11S13570   1.866   4.437   7.771  2.3564  0.4167 -2.8297
  127OSM   H11T13571   1.806   4.599   7.750 -1.0991 -0.7874  0.0741
  127OSM   C12S13572   1.862   4.545   7.953  0.9579  0.4175  0.8101
  127OSM   H12S13573   1.759   4.517   7.986  0.5985 -0.7230 -1.1525
  127OSM   H12T13574   1.867   4.653   7.979 -2.3367  0.3916  2.1386
  127OSM   C13S13575   1.967   4.465   8.029 -0.4398 -0.0573 -0.2999
  127OSM   H13S13576   2.067   4.513   8.022  0.1049 -0.6821  2.3100
  127OSM   H13T13577   1.967   4.362   7.987  2.8877 -1.6033  2.9144
  127OSM   C14S13578   1.942   4.456   8.181 -0.6862  0.0759 -0.2968
  127OSM   H14S13579   2.016   4.389   8.231  0.9344  1.0159 -1.3164
  127OSM   H14T13580   1.841   4.412   8.190 -1.1579  0.6734 -2.2087
  127OSM   C15S13581   1.948   4.594   8.242  0.5278  0.0711  0.6431
  127OSM   H15S13582   1.849   4.640   8.219  1.2315  1.5745  0.4669
  127OSM   H15T13583   2.025   4.655   8.191  1.5230 -1.6150  0.0616
  127OSM   C16S13584   1.967   4.596   8.396  0.0207  0.2765  0.5974
  127OSM   H16S13585   1.984   4.702   8.426 -0.4276  0.7597 -0.7673
  127OSM   H16T13586   2.056   4.533   8.415  0.5801  0.3986 -1.3790
  127OSM   C17S13587   1.843   4.537   8.462 -0.1275 -0.0294 -0.4027
  127OSM   H17S13588   1.834   4.429   8.439  0.8241  0.0345 -1.1672
  127OSM   H17T13589   1.750   4.587   8.429  1.7588  3.7811 -0.4633
  127OSM   C18S13590   1.864   4.561   8.613 -0.3630  0.0523 -0.2965
  127OSM   H18S13591   1.771   4.549   8.672 -0.7207 -1.8510 -1.1817
  127OSM   H18T13592   1.900   4.663   8.642  0.1379 -0.7909  2.3079
  127OSM   H18U13593   1.939   4.489   8.651 -0.7711 -0.6056 -0.7262
  127OSM    C1F13594   2.367   4.785   6.963  1.0312 -0.2048  0.2628
  127OSM     OF13595   2.309   4.877   6.901  0.1529  0.2295  0.3868
  127OSM    C2F13596   2.499   4.802   7.042 -0.0042  0.8475 -0.5773
  127OSM    H2F13597   2.579   4.783   6.967  0.7945 -3.5064  1.0511
  127OSM    H2G13598   2.516   4.722   7.117  1.9006  0.6331 -1.1709
  127OSM    C3F13599   2.524   4.944   7.093  0.0215  0.7629  0.4263
  127OSM    H3F13600   2.455   4.960   7.179 -2.2480 -2.3803 -0.6106
  127OSM    H3G13601   2.506   5.019   7.013  2.3060  1.0055  0.0555
  127OSM    C4F13602   2.665   4.970   7.145  0.4804 -0.1032  0.9996
  127OSM    H4F13603   2.715   5.028   7.065  0.4778  0.8494  1.6741
  127OSM    H4G13604   2.715   4.872   7.156  0.6071 -0.5792 -2.5396
  127OSM    C5F13605   2.673   5.059   7.268 -0.1310 -0.0928  0.2418
  127OSM    H5F13606   2.594   5.135   7.250 -0.1417  0.3385  2.0058
  127OSM    H5G13607   2.768   5.116   7.280  0.3689 -0.5699 -1.1614
  127OSM    C6F13608   2.643   4.981   7.398 -0.6638 -0.1700  0.1030
  127OSM    H6F13609   2.595   4.883   7.374  0.3049 -0.2746 -1.5397
  127OSM    H6G13610   2.584   5.044   7.468 -0.3694  0.7072 -0.4336
  127OSM    C7F13611   2.767   4.939   7.478  0.1838 -0.4009 -0.0223
  127OSM    H7F13612   2.842   4.879   7.422 -1.2746 -2.8066  0.4419
  127OSM    H7G13613   2.732   4.864   7.552 -0.1864 -0.0083  0.2049
  127OSM    C8F13614   2.827   5.058   7.554  0.6771 -0.6519  0.4762
  127OSM    H8F13615   2.751   5.134   7.582  2.6962  0.8095  2.3168
  127OSM    H8G13616   2.897   5.115   7.490  0.7633 -2.0389 -0.7022
  127OSM    C9F13617   2.910   5.015   7.677  0.0538 -0.4691  0.2665
  127OSM    H9F13618   3.011   4.974   7.669  1.0733  1.7491  1.0791
  127OSM   C10F13619   2.856   4.998   7.800  0.0887  0.6866 -0.2713
  127OSM   H10F13620   2.928   4.981   7.882  1.4668 -1.5045 -1.8566
  127OSM   C11F13621   2.714   5.021   7.846  0.0553 -1.0818  0.6000
  127OSM   H11F13622   2.686   4.964   7.937 -0.3162  1.3334  2.0876
  127OSM   H11G13623   2.644   4.981   7.770 -1.6455  0.3992  1.3121
  127OSM   C12F13624   2.689   5.172   7.863 -1.1366  0.1716  0.2096
  127OSM   H12F13625   2.589   5.176   7.910 -0.7472  0.1269  1.0718
  127OSM   H12G13626   2.696   5.234   7.771 -0.8914 -0.5929 -0.2938
  127OSM   C13F13627   2.782   5.249   7.967 -0.1371  0.3627 -0.2499
  127OSM   H13F13628   2.752   5.355   7.953 -1.3523 -0.0994 -1.2345
  127OSM   H13G13629   2.891   5.233   7.953 -0.2838 -0.4269 -0.5585
  127OSM   C14F13630   2.760   5.203   8.109  0.1927 -0.2205  0.2132
  127OSM   H14F13631   2.760   5.092   8.119  0.1110 -0.1240  1.4365
  127OSM   H14G13632   2.655   5.223   8.137 -0.8027 -3.7168 -0.5403
  127OSM   C15F13633   2.856   5.253   8.209 -0.1603 -0.1239  0.6092
  127OSM   H15F13634   2.831   5.360   8.200  0.3096 -0.0866 -0.4560
  127OSM   H15G13635   2.964   5.243   8.184 -0.0867  2.1160 -0.1309
  127OSM   C16F13636   2.843   5.187   8.347  0.8873 -0.4036 -0.0155
  127OSM   H16F13637   2.915   5.234   8.417  2.1436 -1.0027 -0.8740
  127OSM   H16G13638   2.847   5.076   8.350 -0.0261 -0.4631 -0.4035
  127OSM   C17F13639   2.702   5.224   8.402 -0.5476 -0.3859  0.5419
  127OSM   H17F13640   2.701   5.189   8.508  0.0589  1.2545  1.1290
  127OSM   H17G13641   2.615   5.182   8.347 -0.6936 -0.2565  0.6680
  127OSM   C18F13642   2.685   5.375   8.417  0.4173  0.5958  0.3816
  127OSM   H18F13643   2.789   5.411   8.436  0.9497 -1.0356  0.8031
  127OSM   H18G13644   2.623   5.394   8.507 -0.2219 -1.8512  0.5334
  127OSM   H18H13645   2.649   5.421   8.323  0.2389 -0.0376  0.1350
  128OSM      N13646   3.880   6.740   6.344  0.2605 -0.5442 -0.9324
  128OSM    C1513647   3.963   6.851   6.398 -0.1135  0.0580  0.1377
  128OSM   H15A13648   4.051   6.807   6.444 -0.2451  1.6313  2.0255
  128OSM   H15B13649   3.914   6.905   6.477  1.0799 -1.8402  2.3358
  128OSM   H15C13650   3.997   6.918   6.321  0.0266  2.5633  2.2514
  128OSM    C1413651   3.941   6.697   6.216  0.3317 -0.3351 -0.5291
  128OSM   H14A13652   4.041   6.659   6.230  1.4981  2.0560 -1.6682
  128OSM   H14B13653   3.936   6.779   6.145  1.5074  1.6010  1.5057
  128OSM   H14C13654   3.885   6.614   6.175 -1.9275  0.1001  1.4657
  128OSM    C1313655   3.887   6.629   6.451 -0.1480 -0.1609  0.4224
  128OSM   H13A13656   3.853   6.666   6.547 -0.4510 -0.3544  0.3867
  128OSM   H13B13657   3.987   6.596   6.477 -0.5488 -1.4966  0.3114
  128OSM   H13C13658   3.835   6.542   6.417  3.8390 -2.4474 -0.4732
  128OSM    C1213659   3.730   6.778   6.317  0.4792 -1.0598 -0.1572
  128OSM   H12A13660   3.665   6.692   6.305  0.4855 -0.9685 -0.9019
  128OSM   H12B13661   3.720   6.846   6.233 -2.0285 -1.3374 -0.1728
  128OSM    C1113662   3.653   6.863   6.426  0.0175  0.2549 -0.6900
  128OSM   H11A13663   3.686   6.828   6.526 -0.2637  0.1537 -0.6293
  128OSM   H11B13664   3.543   6.845   6.418 -0.2058  1.1435  0.2585
  128OSM      P13665   3.590   7.116   6.380  0.3205 -0.1677 -0.1065
  128OSM    O1313666   3.668   7.232   6.335 -0.5611 -0.4010  0.1645
  128OSM    O1413667   3.494   7.061   6.287 -0.5863 -0.1291 -0.6917
  128OSM    O1113668   3.514   7.148   6.514 -0.2852  0.0691 -0.3765
  128OSM    O1213669   3.693   7.000   6.423 -0.4464 -0.6792  0.0689
  128OSM    C1S13670   3.586   7.206   6.625 -0.0799  0.1414 -0.6010
  128OSM    H1S13671   3.614   7.311   6.602  1.2047  0.1116  0.6700
  128OSM    H1T13672   3.677   7.145   6.646 -0.5550 -0.1656  0.7148
  128OSM     NF13673   3.607   7.247   6.859 -0.1310 -0.5086  0.7243
  128OSM    HNF13674   3.615   7.184   6.935 -2.9049 -2.0302 -0.0903
  128OSM    C2S13675   3.510   7.198   6.762  0.1105  0.2587 -0.5141
  128OSM    H2S13676   3.427   7.272   6.752  2.0305  2.5164 -0.5668
  128OSM    C3S13677   3.463   7.051   6.780 -0.6003 -0.9394 -0.1816
  128OSM    H3S13678   3.552   6.985   6.788  2.7604  3.3082  1.9013
  128OSM     O313679   3.381   6.997   6.678  0.0136 -0.7262  0.7397
  128OSM    HO313680   3.382   7.072   6.618 -0.1231 -0.8052  0.6386
  128OSM    C4S13681   3.387   7.042   6.909  0.6005 -0.0604  0.1694
  128OSM    H4S13682   3.436   6.974   6.981 -0.3834 -1.0790 -0.0875
  128OSM    C5S13683   3.269   7.094   6.934 -0.1609  0.1056 -0.0856
  128OSM    H5S13684   3.220   7.144   6.849  0.5556  1.3742  0.2112
  128OSM    C6S13685   3.186   7.069   7.065 -0.3522 -0.2166  0.0879
  128OSM    H6S13686   3.244   7.015   7.143 -0.2868  0.8374  0.7922
  128OSM    H6T13687   3.102   7.001   7.040  0.4336 -1.4713  0.8002
  128OSM    C7S13688   3.126   7.197   7.126 -0.0245  0.3434  0.7133
  128OSM    H7S13689   3.059   7.244   7.051  0.8553  2.2765  1.0647
  128OSM    H7T13690   3.205   7.269   7.157  0.1412 -0.0813  1.2949
  128OSM    C8S13691   3.058   7.172   7.262  0.6240  0.3883  0.0803
  128OSM    H8S13692   2.999   7.079   7.252 -0.6652  1.2492 -0.6605
  128OSM    H8T13693   2.995   7.263   7.260  2.6419  1.8510 -1.3043
  128OSM    C9S13694   3.147   7.175   7.390  0.1924 -0.1820 -0.0324
  128OSM    H9S13695   3.201   7.270   7.411 -0.9602  0.3070  0.8048
  128OSM    H9T13696   3.226   7.097   7.386 -0.7948 -1.3498  1.8135
  128OSM   C10S13697   3.069   7.156   7.521 -0.4735 -0.3604 -1.0539
  128OSM   H10S13698   3.035   7.050   7.520 -0.3021 -0.5001  1.6898
  128OSM   H10T13699   2.974   7.213   7.512 -0.6845 -0.6170 -0.5215
  128OSM   C11S13700   3.148   7.202   7.648 -0.5985  0.3675 -0.7339
  128OSM   H11S13701   3.213   7.291   7.634 -1.8084  1.2912 -0.6679
  128OSM   H11T13702   3.211   7.117   7.682 -0.8925  1.6796  3.5860
  128OSM   C12S13703   3.052   7.234   7.766  0.0158  0.1169 -0.0156
  128OSM   H12S13704   2.993   7.143   7.789  0.2894  0.2279  1.2014
  128OSM   H12T13705   2.991   7.320   7.729 -1.2204 -1.9276 -3.0650
  128OSM   C13S13706   3.137   7.267   7.888 -0.1462  0.4583 -0.4625
  128OSM   H13S13707   3.199   7.358   7.879 -1.5085  1.5996  1.1414
  128OSM   H13T13708   3.211   7.184   7.897 -0.2716  0.5846  3.0100
  128OSM   C14S13709   3.041   7.271   8.011  0.3509 -0.0425  0.0041
  128OSM   H14S13710   2.968   7.188   8.002  1.3498 -0.9544  0.1293
  128OSM   H14T13711   2.980   7.364   8.007  0.1354 -0.2257 -1.2470
  128OSM   C15S13712   3.112   7.265   8.141 -0.5780  0.9528  0.0351
  128OSM   H15S13713   3.186   7.348   8.148  3.1976 -1.9739 -1.5660
  128OSM   H15T13714   3.184   7.181   8.149 -2.7357 -1.0525 -0.3794
  128OSM   C16S13715   3.015   7.264   8.262 -0.1299  0.0507 -0.0387
  128OSM   H16S13716   2.943   7.345   8.239  0.5914  0.3688 -1.2550
  128OSM   H16T13717   3.060   7.300   8.357 -1.2333  1.4609 -0.0339
  128OSM   C17S13718   2.944   7.129   8.282 -0.6637  0.4262  0.5677
  128OSM   H17S13719   3.022   7.052   8.302 -0.9996  0.4443  2.0242
  128OSM   H17T13720   2.896   7.095   8.188 -0.0990  0.3144  0.3160
  128OSM   C18S13721   2.837   7.118   8.389  0.5876 -0.1995 -0.3579
  128OSM   H18S13722   2.741   7.155   8.349  1.2778  0.4809 -1.4445
  128OSM   H18T13723   2.864   7.168   8.485  0.7498 -1.2125  0.1389
  128OSM   H18U13724   2.812   7.013   8.416 -0.5589  0.6189  2.0351
  128OSM    C1F13725   3.661   7.366   6.871  0.2301 -0.4857  0.1231
  128OSM     OF13726   3.649   7.448   6.780  0.8015 -0.2145 -0.0217
  128OSM    C2F13727   3.743   7.394   6.994 -0.3520  0.0620  0.1585
  128OSM    H2F13728   3.852   7.378   6.978 -0.8086 -1.3847 -1.9310
  128OSM    H2G13729   3.722   7.322   7.076 -2.5020  0.7696  0.2972
  128OSM    C3F13730   3.721   7.528   7.056  0.1472 -0.1763 -0.5475
  128OSM    H3F13731   3.612   7.549   7.056  0.2095  0.1358 -1.0987
  128OSM    H3G13732   3.766   7.612   7.001  0.4813  0.3335  0.4773
  128OSM    C4F13733   3.792   7.534   7.192 -0.4091 -0.4054  1.3838
  128OSM    H4F13734   3.903   7.539   7.182 -0.4603 -1.2755  0.1049
  128OSM    H4G13735   3.756   7.449   7.252 -0.7917 -2.8845 -2.0612
  128OSM    C5F13736   3.754   7.659   7.274 -0.2489  0.0510  0.1446
  128OSM    H5F13737   3.645   7.679   7.269  0.1699  2.2996 -2.0738
  128OSM    H5G13738   3.805   7.746   7.227  0.7918 -0.4941  0.2243
  128OSM    C6F13739   3.795   7.653   7.422 -0.8864 -0.2524 -0.2898
  128OSM    H6F13740   3.903   7.628   7.424 -0.7689  0.0189 -1.8004
  128OSM    H6G13741   3.747   7.568   7.475 -1.9142  0.7345  0.4084
  128OSM    C7F13742   3.760   7.775   7.501  0.7157  0.1076  0.3767
  128OSM    H7F13743   3.652   7.791   7.481  0.8902  0.7656 -0.0759
  128OSM    H7G13744   3.809   7.870   7.469 -0.2508  0.6377  0.4119
  128OSM    C8F13745   3.762   7.753   7.656  0.1119 -0.0399 -0.0255
  128OSM    H8F13746   3.836   7.674   7.681  1.5054  0.6011 -1.9417
  128OSM    H8G13747   3.664   7.707   7.686  1.0223 -1.5122  0.8329
  128OSM    C9F13748   3.791   7.884   7.734 -0.1212 -0.8324 -0.3533
  128OSM    H9F13749   3.882   7.935   7.700  0.0614 -1.7766 -1.3425
  128OSM   C10F13750   3.716   7.930   7.843 -0.3132 -0.1603 -0.8665
  128OSM   H10F13751   3.744   8.023   7.894  0.6027 -0.9956  0.2027
  128OSM   C11F13752   3.597   7.864   7.905  0.0518 -0.2957  0.6363
  128OSM   H11F13753   3.542   7.789   7.844 -1.1581 -0.4599  1.8716
  128OSM   H11G13754   3.527   7.947   7.929 -0.3313 -0.0540 -1.1509
  128OSM   C12F13755   3.625   7.778   8.031  0.1189  0.3628 -0.8478
  128OSM   H12F13756   3.690   7.693   8.000 -0.9147 -0.0108 -2.0558
  128OSM   H12G13757   3.536   7.726   8.072  0.2125  1.1050  0.3457
  128OSM   C13F13758   3.679   7.860   8.153 -0.2519 -0.1924  0.0526
  128OSM   H13F13759   3.615   7.948   8.171  1.3389  0.8397  0.8804
  128OSM   H13G13760   3.782   7.895   8.131 -0.9302  1.1316 -1.2092
  128OSM   C14F13761   3.675   7.771   8.280  0.0883 -0.1340 -0.1315
  128OSM   H14F13762   3.569   7.745   8.300 -0.0053  1.3197  1.4341
  128OSM   H14G13763   3.715   7.830   8.365 -1.5330 -1.2800  1.4922
  128OSM   C15F13764   3.770   7.642   8.272  0.2672 -0.4128 -0.8212
  128OSM   H15F13765   3.871   7.681   8.248  1.2712 -1.9076  0.7387
  128OSM   H15G13766   3.727   7.586   8.186  0.1798 -2.7399  0.6537
  128OSM   C16F13767   3.763   7.562   8.403 -0.1222 -0.8099  0.1570
  128OSM   H16F13768   3.665   7.510   8.415  0.1705 -2.3814 -3.2046
  128OSM   H16G13769   3.782   7.635   8.485  0.9883 -0.2995 -0.5306
  128OSM   C17F13770   3.859   7.442   8.417  0.9033  0.1797  0.0267
  128OSM   H17F13771   3.830   7.371   8.337  0.7860  0.3334 -0.0700
  128OSM   H17G13772   3.853   7.393   8.516 -1.5037  0.0210 -0.1494
  128OSM   C18F13773   4.008   7.472   8.397 -0.6483 -0.8752 -0.2118
  128OSM   H18F13774   4.016   7.516   8.296 -1.1849  0.1123  0.1649
  128OSM   H18G13775   4.069   7.378   8.403 -2.6270 -2.1353  1.3665
  128OSM   H18H13776   4.051   7.548   8.466  0.2248  1.2978 -2.9883
  129OSM      N13777   1.031   3.255   6.340 -0.8029  0.0317 -0.6523
  129OSM    C1513778   1.167   3.251   6.271  0.6625  0.1678  0.5139
  129OSM   H15A13779   1.168   3.165   6.205 -0.7700 -0.3836  1.1703
  129OSM   H15B13780   1.241   3.236   6.348  0.6959  0.8051  0.6121
  129OSM   H15C13781   1.187   3.343   6.218  1.0109 -0.5169 -0.5913
  129OSM    C1413782   0.929   3.267   6.235 -0.1049 -0.5337 -0.0706
  129OSM   H14A13783   0.936   3.188   6.162 -0.1188 -2.0298  1.5047
  129OSM   H14B13784   0.941   3.358   6.178 -0.0124 -0.5895 -0.1414
  129OSM   H14C13785   0.834   3.245   6.282  0.6656 -2.0516  0.8481
  129OSM    C1313786   1.024   3.129   6.412 -0.2590  0.3857  0.8785
  129OSM   H13A13787   1.117   3.113   6.465 -0.0555 -1.0392  0.1421
  129OSM   H13B13788   1.033   3.054   6.335  1.2391  0.0535  1.3362
  129OSM   H13C13789   0.940   3.101   6.472  0.5329  0.3380  1.9899
  129OSM    C1213790   1.024   3.375   6.434 -0.1630  0.6410 -0.0044
  129OSM   H12A13791   1.101   3.373   6.511 -0.1694 -1.3166  0.0110
  129OSM   H12B13792   0.929   3.368   6.485  0.0248 -1.6212  0.1174
  129OSM    C1113793   1.048   3.515   6.372 -0.2106 -0.2890  0.3171
  129OSM   H11A13794   1.127   3.499   6.295  0.3925 -0.9862  1.0494
  129OSM   H11B13795   1.077   3.590   6.448 -0.3571  1.7116 -1.5275
  129OSM      P13796   0.814   3.632   6.385  0.2999  0.0950  0.2800
  129OSM    O1313797   0.827   3.781   6.362 -0.4018  1.2690  0.4916
  129OSM    O1413798   0.681   3.577   6.353  0.4480 -0.2906 -0.1192
  129OSM    O1113799   0.841   3.593   6.545  0.3982  0.0222  0.0048
  129OSM    O1213800   0.931   3.562   6.307  0.4440  0.0228  0.1122
  129OSM    C1S13801   0.879   3.706   6.633  0.2556  0.7324  0.1854
  129OSM    H1S13802   0.803   3.786   6.640 -1.7237 -0.9889 -0.6561
  129OSM    H1T13803   0.973   3.755   6.600  1.0766 -1.5284 -0.9962
  129OSM     NF13804   0.939   3.787   6.854  1.0535  0.0718  0.1712
  129OSM    HNF13805   1.030   3.827   6.857  0.4004  1.7174 -0.5937
  129OSM    C2S13806   0.921   3.662   6.780 -0.0027 -0.5914  0.0421
  129OSM    H2S13807   0.837   3.610   6.830 -0.6896  2.3057  2.1581
  129OSM    C3S13808   1.041   3.572   6.782  0.3907 -0.7461 -0.1195
  129OSM    H3S13809   1.127   3.614   6.725  1.3690 -0.2678  1.6270
  129OSM     O313810   1.015   3.454   6.719  0.0078  0.3327  0.1398
  129OSM    HO313811   0.937   3.489   6.675  0.0837 -1.0028 -1.1029
  129OSM    C4S13812   1.085   3.544   6.922 -0.5857  0.8764  0.3551
  129OSM    H4S13813   1.011   3.482   6.975 -1.6333  0.5476 -1.4085
  129OSM    C5S13814   1.196   3.580   6.980  0.0135 -0.2613  0.1645
  129OSM    H5S13815   1.264   3.652   6.931  0.2637 -0.6688 -0.0971
  129OSM    C6S13816   1.243   3.556   7.124 -0.5029 -0.0787  0.3295
  129OSM    H6S13817   1.274   3.654   7.164  0.6057 -2.1674  5.3623
  129OSM    H6T13818   1.336   3.496   7.133  1.1880  2.3597  0.0422
  129OSM    C7S13819   1.134   3.495   7.213 -0.2395  0.2124  0.1405
  129OSM    H7S13820   1.125   3.389   7.184 -1.5177 -0.2368  1.9331
  129OSM    H7T13821   1.031   3.536   7.199 -1.1323 -1.7811  0.4716
  129OSM    C8S13822   1.175   3.508   7.359 -0.0673  0.8397 -0.3874
  129OSM    H8S13823   1.078   3.521   7.413 -0.2217  2.2953 -0.9615
  129OSM    H8T13824   1.249   3.582   7.396  1.0221 -0.5638  0.3278
  129OSM    C9S13825   1.206   3.364   7.407 -0.2424  0.0127  0.0879
  129OSM    H9S13826   1.262   3.313   7.326  0.9787 -1.0699  1.5640
  129OSM    H9T13827   1.109   3.313   7.421 -0.1239  0.0071  0.9419
  129OSM   C10S13828   1.284   3.352   7.538 -0.4880 -0.7869 -0.4167
  129OSM   H10S13829   1.382   3.405   7.534  0.4897 -2.2399  1.9071
  129OSM   H10T13830   1.312   3.246   7.555  1.0461 -0.5670 -1.3635
  129OSM   C11S13831   1.196   3.392   7.657 -0.1656  0.3873  0.1005
  129OSM   H11S13832   1.109   3.323   7.652  1.3999 -1.5990 -0.8423
  129OSM   H11T13833   1.162   3.497   7.642 -1.0184  0.4590  2.1823
  129OSM   C12S13834   1.257   3.384   7.789 -0.5972 -0.6372  0.0718
  129OSM   H12S13835   1.339   3.456   7.811  0.0507 -1.2241 -0.3684
  129OSM   H12T13836   1.305   3.284   7.800  2.3305  0.6223 -0.3924
  129OSM   C13S13837   1.150   3.399   7.902  0.2122 -0.9736  0.1731
  129OSM   H13S13838   1.091   3.305   7.896 -1.4156 -0.0910  1.2408
  129OSM   H13T13839   1.084   3.484   7.873 -1.3477 -2.2222 -0.0992
  129OSM   C14S13840   1.210   3.418   8.041 -0.1227  0.9042  0.0740
  129OSM   H14S13841   1.265   3.514   8.043  1.6188 -0.0504 -0.5254
  129OSM   H14T13842   1.282   3.335   8.056 -1.2553 -0.2030 -0.4393
  129OSM   C15S13843   1.117   3.407   8.166  0.1105  0.4002  0.0409
  129OSM   H15S13844   1.048   3.329   8.127 -0.7046 -0.1902  2.5105
  129OSM   H15T13845   1.053   3.494   8.189 -0.2607 -0.1440  1.1487
  129OSM   C16S13846   1.178   3.347   8.294  0.4215  0.4085 -0.1893
  129OSM   H16S13847   1.251   3.268   8.268  0.8208  1.2308 -1.6817
  129OSM   H16T13848   1.102   3.288   8.349  0.8081  2.2256  2.5079
  129OSM   C17S13849   1.240   3.452   8.387  0.0328  0.4353  0.2676
  129OSM   H17S13850   1.177   3.543   8.391 -0.3889  0.1455  0.3458
  129OSM   H17T13851   1.330   3.480   8.329 -0.5837 -2.6462 -2.5297
  129OSM   C18S13852   1.270   3.402   8.532 -0.1538 -0.2186 -0.5411
  129OSM   H18S13853   1.341   3.470   8.585 -0.6631 -1.2766  1.6125
  129OSM   H18T13854   1.328   3.307   8.528  2.3125  1.1134  0.7931
  129OSM   H18U13855   1.175   3.397   8.590  0.0934 -2.2231 -0.2550
  129OSM    C1F13856   0.834   3.863   6.887 -0.1152  0.3672  0.2570
  129OSM     OF13857   0.719   3.822   6.879 -0.1536 -0.5462 -0.0127
  129OSM    C2F13858   0.868   4.013   6.916 -0.1305  0.5847 -0.5752
  129OSM    H2F13859   0.841   4.071   6.825  2.7277 -1.3363 -2.8466
  129OSM    H2G13860   0.976   4.032   6.933 -0.0949 -0.8310  1.1279
  129OSM    C3F13861   0.791   4.058   7.044  0.3819 -1.2387  0.0923
  129OSM    H3F13862   0.803   3.975   7.117 -1.6457 -1.0799  0.6806
  129OSM    H3G13863   0.688   4.057   7.001  0.6579 -1.4716 -0.5845
  129OSM    C4F13864   0.844   4.186   7.099 -0.7317  0.3697 -0.0300
  129OSM    H4F13865   0.860   4.268   7.025  0.8657  0.6023  0.5383
  129OSM    H4G13866   0.944   4.177   7.145 -0.6009 -3.6164 -0.7471
  129OSM    C5F13867   0.751   4.252   7.205  0.7518 -0.2334 -0.2217
  129OSM    H5F13868   0.653   4.269   7.156  0.7012 -1.7151 -0.6818
  129OSM    H5G13869   0.779   4.357   7.229  0.8737 -0.7767  2.3132
  129OSM    C6F13870   0.727   4.176   7.333 -0.2099  0.4189  0.6276
  129OSM    H6F13871   0.825   4.150   7.378 -0.7284 -2.1143  0.4407
  129OSM    H6G13872   0.697   4.076   7.295 -1.6680  0.9085  0.4478
  129OSM    C7F13873   0.627   4.238   7.421  0.6794 -0.0259  0.1936
  129OSM    H7F13874   0.540   4.269   7.359  0.5714 -0.0876  0.3135
  129OSM    H7G13875   0.666   4.329   7.473 -0.5104  1.7977 -1.9503
  129OSM    C8F13876   0.575   4.149   7.531  0.1663  0.2729 -0.6176
  129OSM    H8F13877   0.539   4.053   7.489 -0.6793  0.1184  0.4240
  129OSM    H8G13878   0.486   4.198   7.577 -0.1409 -0.2815 -0.6088
  129OSM    C9F13879   0.676   4.103   7.639  0.0763 -0.1409 -0.0223
  129OSM    H9F13880   0.765   4.047   7.607  0.7913  0.8492  0.1667
  129OSM   C10F13881   0.672   4.151   7.765 -0.4247 -0.4254  0.5565
  129OSM   H10F13882   0.752   4.104   7.824  0.1954  1.0421  0.9161
  129OSM   C11F13883   0.580   4.249   7.827  0.7388  0.3264 -0.1769
  129OSM   H11F13884   0.486   4.253   7.768 -0.1668  1.4079  1.2617
  129OSM   H11G13885   0.619   4.353   7.822 -1.4544  1.1588 -1.4536
  129OSM   C12F13886   0.544   4.217   7.980 -0.0428  0.1700  0.2588
  129OSM   H12F13887   0.490   4.121   7.985 -0.4416  0.1324 -3.0076
  129OSM   H12G13888   0.469   4.288   8.021  2.4587  2.4225  1.2764
  129OSM   C13F13889   0.667   4.224   8.069  0.2775 -0.3394  0.1043
  129OSM   H13F13890   0.716   4.323   8.062 -0.8072  0.3195  1.3447
  129OSM   H13G13891   0.736   4.138   8.051 -0.7130 -1.4604  1.3768
  129OSM   C14F13892   0.634   4.200   8.213 -0.2546  0.1233  0.2466
  129OSM   H14F13893   0.547   4.264   8.239 -0.8238 -0.7707  0.5488
  129OSM   H14G13894   0.726   4.219   8.272  0.9300 -0.9289 -1.1797
  129OSM   C15F13895   0.612   4.048   8.245  0.8157 -0.2081 -0.9360
  129OSM   H15F13896   0.684   3.973   8.206  0.3653 -1.3350  0.3249
  129OSM   H15G13897   0.513   4.018   8.203  0.3007 -0.9802  0.7429
  129OSM   C16F13898   0.606   4.034   8.402  0.2999 -0.1631 -0.5838
  129OSM   H16F13899   0.521   4.098   8.432  0.2024 -0.2189 -0.7417
  129OSM   H16G13900   0.700   4.081   8.439  0.7528  0.0166 -1.9142
  129OSM   C17F13901   0.594   3.893   8.450  0.4460  0.5495 -0.3158
  129OSM   H17F13902   0.673   3.822   8.420 -0.3134 -0.4421 -0.0456
  129OSM   H17G13903   0.503   3.838   8.418 -0.0904  0.3262  1.4480
  129OSM   C18F13904   0.605   3.887   8.609 -0.9895 -0.0173  0.8398
  129OSM   H18F13905   0.593   3.781   8.639 -0.3073 -0.1404  0.7095
  129OSM   H18G13906   0.532   3.950   8.663 -1.7960  1.8962 -2.1925
  129OSM   H18H13907   0.702   3.930   8.643  0.0781  0.0657 -1.9827
  130OSM      N13908   0.777   6.282   6.216 -0.3484 -0.4788 -0.3412
  130OSM    C1513909   0.853   6.161   6.170 -0.2402  0.7693 -0.3006
  130OSM   H15A13910   0.911   6.105   6.242 -2.2126 -1.4266 -0.2922
  130OSM   H15B13911   0.913   6.191   6.086  0.2946  0.1267 -0.1587
  130OSM   H15C13912   0.784   6.091   6.123 -1.4211  1.2998  0.5702
  130OSM    C1413913   0.697   6.337   6.106  0.5544 -0.1788  0.0370
  130OSM   H14A13914   0.606   6.284   6.085  0.3246  0.6586 -1.1551
  130OSM   H14B13915   0.755   6.355   6.017 -1.7370  0.9639 -1.2757
  130OSM   H14C13916   0.663   6.432   6.143 -0.6119 -0.2951 -0.6987
  130OSM    C1313917   0.682   6.254   6.332 -0.1867  0.0680  0.1015
  130OSM   H13A13918   0.611   6.335   6.328 -1.2784 -0.8131  0.9976
  130OSM   H13B13919   0.730   6.246   6.428  0.1081  0.2711 -0.0278
  130OSM   H13C13920   0.619   6.168   6.315  1.2076 -0.6611 -1.7196
  130OSM    C1213921   0.873   6.396   6.250  0.3270 -0.2303 -0.0398
  130OSM   H12A13922   0.906   6.439   6.157 -0.5918 -0.5236 -0.5089
  130OSM   H12B13923   0.963   6.353   6.290  0.9623  0.8228 -0.2901
  130OSM    C1113924   0.825   6.511   6.346  0.2149  0.1001  0.0369
  130OSM   H11A13925   0.913   6.570   6.380 -0.1079 -0.7726  2.5409
  130OSM   H11B13926   0.773   6.461   6.430 -0.8643 -2.2918 -1.9179
  130OSM      P13927   0.640   6.698   6.329  0.4982 -0.2591 -0.2242
  130OSM    O1313928   0.702   6.829   6.307  1.0389  0.3646 -0.7510
  130OSM    O1413929   0.507   6.683   6.271  0.0839 -0.0099  0.1352
  130OSM    O1113930   0.625   6.680   6.490 -0.1926  0.4898  0.3898
  130OSM    O1213931   0.731   6.588   6.269  0.0705  0.0563  0.5280
  130OSM    C1S13932   0.537   6.762   6.564 -0.0822  0.4639 -0.5846
  130OSM    H1S13933   0.431   6.746   6.534 -1.8524  0.4186  4.7065
  130OSM    H1T13934   0.557   6.869   6.543  0.8938  0.5176  0.5207
  130OSM     NF13935   0.442   6.813   6.781 -0.5832 -0.4736 -0.4957
  130OSM    HNF13936   0.473   6.906   6.797 -0.2607 -0.5715 -0.5403
  130OSM    C2S13937   0.541   6.729   6.720  0.3049  0.9215  0.3382
  130OSM    H2S13938   0.516   6.621   6.730  1.0612  0.7916  0.9706
  130OSM    C3S13939   0.687   6.743   6.773 -0.0849 -0.1016  0.2421
  130OSM    H3S13940   0.727   6.846   6.764 -0.5373  0.1185  0.6642
  130OSM     O313941   0.774   6.657   6.695  0.2040  0.3612 -0.2985
  130OSM    HO313942   0.706   6.642   6.628 -1.8904  0.4856  1.6925
  130OSM    C4S13943   0.687   6.703   6.917  0.3464 -0.6240 -0.9086
  130OSM    H4S13944   0.682   6.598   6.949  0.5837  0.2860  2.5956
  130OSM    C5S13945   0.685   6.789   7.024 -0.3767  0.1519  0.8316
  130OSM    H5S13946   0.678   6.898   7.020  2.2773  0.4011  0.9658
  130OSM    C6S13947   0.673   6.732   7.163 -0.6634 -0.1808  0.1821
  130OSM    H6S13948   0.747   6.652   7.184 -0.1498 -0.1743 -1.4832
  130OSM    H6T13949   0.578   6.677   7.178 -0.8230  0.3584  1.2295
  130OSM    C7S13950   0.707   6.844   7.265 -0.0170 -0.3873 -0.3686
  130OSM    H7S13951   0.629   6.922   7.251  1.9909  2.0551  1.2306
  130OSM    H7T13952   0.799   6.901   7.243 -0.0076 -0.3126 -0.1375
  130OSM    C8S13953   0.692   6.805   7.412  0.4787 -0.3307  1.0783
  130OSM    H8S13954   0.763   6.876   7.460  1.9147 -1.1259  0.2104
  130OSM    H8T13955   0.736   6.703   7.413  1.5340  0.0690 -0.8165
  130OSM    C9S13956   0.555   6.824   7.483 -0.4447  0.8325  0.1037
  130OSM    H9S13957   0.484   6.748   7.443  0.0114  0.5610 -0.1905
  130OSM    H9T13958   0.526   6.929   7.461 -0.1430  0.1849 -4.0932
  130OSM   C10S13959   0.568   6.805   7.633  0.2096 -0.6940 -0.0121
  130OSM   H10S13960   0.642   6.881   7.667 -0.4306 -0.7062  1.5040
  130OSM   H10T13961   0.621   6.709   7.655  0.0179 -0.5103  1.3804
  130OSM   C11S13962   0.438   6.802   7.711  0.2206 -0.0983  0.2385
  130OSM   H11S13963   0.362   6.734   7.666  1.5430 -2.0909  0.8534
  130OSM   H11T13964   0.396   6.904   7.726 -0.6964 -0.2800 -0.9400
  130OSM   C12S13965   0.463   6.745   7.851 -0.1460 -0.3067 -0.2220
  130OSM   H12S13966   0.508   6.646   7.831 -1.5524 -1.2654  1.1473
  130OSM   H12T13967   0.368   6.733   7.908 -0.8704  1.4247 -1.0035
  130OSM   C13S13968   0.552   6.838   7.940  0.4901 -0.0642 -0.2678
  130OSM   H13S13969   0.644   6.845   7.878  0.3702 -1.6034 -0.6648
  130OSM   H13T13970   0.568   6.804   8.045 -1.0015  1.3340  0.4593
  130OSM   C14S13971   0.498   6.978   7.961 -0.1012 -0.1052 -0.0268
  130OSM   H14S13972   0.398   6.972   8.009 -0.5809  0.8108 -0.8780
  130OSM   H14T13973   0.483   7.028   7.863  3.0645  0.8247 -0.1436
  130OSM   C15S13974   0.595   7.064   8.042 -0.0598  0.3572  0.2450
  130OSM   H15S13975   0.688   7.074   7.982 -0.1909  1.1251  0.1627
  130OSM   H15T13976   0.624   7.011   8.135 -2.0623  0.7957  1.1798
  130OSM   C16S13977   0.539   7.205   8.060 -0.4292 -0.1596  0.2020
  130OSM   H16S13978   0.447   7.203   8.122 -1.1944  1.8269 -0.7749
  130OSM   H16T13979   0.518   7.252   7.961 -1.2569  0.8099  0.8134
  130OSM   C17S13980   0.642   7.293   8.132 -0.4010  0.6221  0.2174
  130OSM   H17S13981   0.736   7.267   8.079 -1.5512 -0.2083 -1.5248
  130OSM   H17T13982   0.659   7.260   8.237 -0.2016  0.7230  0.2175
  130OSM   C18S13983   0.620   7.448   8.118 -0.0405  0.8001  0.7114
  130OSM   H18S13984   0.716   7.501   8.135  0.1398  0.8887 -0.4783
  130OSM   H18T13985   0.544   7.487   8.188 -2.4614 -0.6330 -0.9707
  130OSM   H18U13986   0.583   7.466   8.015 -2.2557 -0.4165  1.2348
  130OSM    C1F13987   0.311   6.791   6.786  0.2367 -0.2971 -0.3383
  130OSM     OF13988   0.261   6.686   6.749 -0.2780 -0.0914 -0.2640
  130OSM    C2F13989   0.222   6.902   6.842 -0.2821 -0.5458  0.2754
  130OSM    H2F13990   0.123   6.886   6.796 -1.0333 -0.4140  1.7693
  130OSM    H2G13991   0.266   6.999   6.813 -0.9375 -0.2806  0.1530
  130OSM    C3F13992   0.209   6.895   6.998  0.0011  0.0319 -0.6022
  130OSM    H3F13993   0.179   6.795   7.033 -1.2500  0.2934 -0.8827
  130OSM    H3G13994   0.119   6.958   7.014  2.2578  3.6305 -0.9301
  130OSM    C4F13995   0.325   6.955   7.080  0.4952  0.2884 -0.1953
  130OSM    H4F13996   0.325   7.066   7.073  0.5426  0.4218  1.5555
  130OSM    H4G13997   0.418   6.905   7.046 -0.9269 -2.1816 -0.7394
  130OSM    C5F13998   0.312   6.916   7.233 -0.6626 -1.1503  0.5878
  130OSM    H5F13999   0.417   6.904   7.268 -0.4510 -0.2388  0.2798
  130OSM    H5G14000   0.250   6.825   7.247 -1.0537 -0.9508  0.1830
  130OSM    C6F14001   0.270   7.032   7.320  0.0992 -0.1946  0.9233
  130OSM    H6F14002   0.170   7.067   7.285  0.7034  0.5847 -0.0649
  130OSM    H6G14003   0.344   7.114   7.310 -0.1324 -0.0180  0.6252
  130OSM    C7F14004   0.245   6.987   7.464 -0.6830  0.1141 -0.0091
  130OSM    H7F14005   0.348   6.990   7.505 -0.2896  2.5820 -0.9608
  130OSM    H7G14006   0.221   6.879   7.466  3.0631 -0.8384  1.3119
  130OSM    C8F14007   0.141   7.067   7.549 -0.3343 -0.5449 -0.5041
  130OSM    H8F14008   0.144   7.039   7.656 -1.5214  0.6712 -0.1307
  130OSM    H8G14009   0.039   7.045   7.512 -0.0250 -2.9516 -0.0863
  130OSM    C9F14010   0.167   7.217   7.536 -0.4348  0.1421 -0.1938
  130OSM    H9F14011   0.151   7.246   7.431  2.4993 -0.9076 -1.0149
  130OSM   C10F14012   0.218   7.308   7.622  0.3323 -0.3576 -0.3287
  130OSM   H10F14013   0.231   7.415   7.601  0.8837 -0.4311 -0.3687
  130OSM   C11F14014   0.251   7.273   7.763 -0.1020 -0.6548 -0.3845
  130OSM   H11F14015   0.357   7.299   7.784 -0.8052  0.7518  1.8445
  130OSM   H11G14016   0.224   7.170   7.792 -1.6019  0.1375  1.2439
  130OSM   C12F14017   0.165   7.351   7.860  0.6531 -0.4906 -0.7875
  130OSM   H12F14018   0.060   7.336   7.826  0.4424  0.4803 -0.6068
  130OSM   H12G14019   0.192   7.459   7.849  0.7533  0.1456  3.6709
  130OSM   C13F14020   0.185   7.315   8.010 -0.2496 -0.3938 -0.3186
  130OSM   H13F14021   0.296   7.321   8.008 -0.2433 -0.0492 -3.5049
  130OSM   H13G14022   0.158   7.212   8.042  2.8205 -0.9449  0.9200
  130OSM   C14F14023   0.126   7.425   8.104 -0.4746 -0.7159  0.4667
  130OSM   H14F14024   0.015   7.424   8.096 -0.6176 -0.5492  2.0012
  130OSM   H14G14025   0.156   7.524   8.063 -1.4119 -0.2909  0.7913
  130OSM   C15F14026   0.155   7.406   8.255  0.0893 -0.3840  0.3553
  130OSM   H15F14027   0.133   7.501   8.309 -0.1265  0.1121 -0.5691
  130OSM   H15G14028   0.260   7.372   8.266 -0.2287 -2.0164 -1.2889
  130OSM   C16F14029   0.071   7.292   8.319  0.5098  0.1588 -0.5308
  130OSM   H16F14030   0.066   7.201   8.256  0.4365 -0.6494  0.6152
  130OSM   H16G14031  -0.036   7.320   8.327  0.7944  0.7954  1.4250
  130OSM   C17F14032   0.130   7.248   8.454  0.0941  0.5367 -0.2542
  130OSM   H17F14033   0.161   7.336   8.513  2.3188 -1.3818  1.6349
  130OSM   H17G14034   0.221   7.187   8.433 -0.1122  0.2521 -0.3407
  130OSM   C18F14035   0.034   7.158   8.541 -0.1645  0.2347  0.3195
  130OSM   H18F14036   0.002   7.059   8.501 -1.1356  0.7555 -0.2313
  130OSM   H18G14037  -0.063   7.213   8.547  0.2991  1.1017  0.0125
  130OSM   H18H14038   0.081   7.143   8.641  1.3982  0.9222 -0.2862
  131OSM      N14039   1.544   4.368   5.963 -0.1425  0.0900  0.1495
  131OSM    C1514040   1.529   4.243   5.888 -0.9408  0.2807 -0.1948
  131OSM   H15A14041   1.614   4.216   5.827  0.7424  1.8404  1.3419
  131OSM   H15B14042   1.444   4.252   5.822 -1.3874  0.2843  0.3759
  131OSM   H15C14043   1.497   4.163   5.952 -1.8231  0.8502  0.0835
  131OSM    C1414044   1.562   4.478   5.863 -0.3172  0.0655  0.2871
  131OSM   H14A14045   1.555   4.576   5.908 -2.8127 -0.2015  0.6228
  131OSM   H14B14046   1.480   4.463   5.794 -0.7993 -0.0747  0.8753
  131OSM   H14C14047   1.649   4.470   5.801 -1.6665 -1.7907 -1.4709
  131OSM    C1314048   1.415   4.396   6.020 -0.0654  0.1615  0.5920
  131OSM   H13A14049   1.397   4.312   6.086  1.4877 -0.5909  0.1015
  131OSM   H13B14050   1.337   4.398   5.946  2.6071 -0.5651 -2.4435
  131OSM   H13C14051   1.415   4.493   6.069  0.7639  0.0279  0.8730
  131OSM    C1214052   1.661   4.360   6.059  0.5449 -0.6808  0.1852
  131OSM   H12A14053   1.676   4.459   6.098 -1.7594  0.1180 -0.7811
  131OSM   H12B14054   1.749   4.329   6.004  1.9657  1.6184  0.9975
  131OSM    C1114055   1.647   4.262   6.179 -0.7344  0.2629  0.4538
  131OSM   H11A14056   1.742   4.256   6.236 -1.0269  2.9257  1.3430
  131OSM   H11B14057   1.628   4.164   6.130  0.7308  0.2787 -0.1967
  131OSM      P14058   1.524   4.411   6.354  0.3345 -0.0798  0.3437
  131OSM    O1314059   1.546   4.540   6.289  0.1956 -0.5146 -0.1377
  131OSM    O1414060   1.389   4.400   6.414 -0.1759  0.5662 -0.3017
  131OSM    O1114061   1.635   4.377   6.456 -0.3358 -0.1113  0.0233
  131OSM    O1214062   1.536   4.286   6.261 -0.1612 -0.3633 -0.4035
  131OSM    C1S14063   1.658   4.448   6.579 -0.7071  0.4371 -0.7622
  131OSM    H1S14064   1.576   4.519   6.600 -0.4685  0.2133  1.1307
  131OSM    H1T14065   1.754   4.504   6.572 -0.0161 -0.6260 -0.1190
  131OSM     NF14066   1.702   4.404   6.819  0.2915 -0.2402 -1.4005
  131OSM    HNF14067   1.792   4.413   6.861  0.1250  0.1359 -1.1183
  131OSM    C2S14068   1.692   4.343   6.693 -0.4101  0.8606 -0.1446
  131OSM    H2S14069   1.603   4.276   6.699  2.3129 -2.9077  2.6691
  131OSM    C3S14070   1.822   4.262   6.651  0.7551  0.4894 -0.8631
  131OSM    H3S14071   1.906   4.334   6.655 -0.5707  2.0857  2.1198
  131OSM     O314072   1.807   4.190   6.527  0.1399  0.7037 -0.2553
  131OSM    HO314073   1.738   4.239   6.483 -0.7996  0.0505  0.4609
  131OSM    C4S14074   1.837   4.152   6.752  0.0625  0.0868 -0.4045
  131OSM    H4S14075   1.750   4.085   6.761  2.1650 -2.6691  1.2172
  131OSM    C5S14076   1.936   4.119   6.842  0.7626 -0.0176  0.1909
  131OSM    H5S14077   2.031   4.175   6.847  0.6669  0.4237 -2.0748
  131OSM    C6S14078   1.912   4.001   6.935 -0.3290  0.9637 -0.1299
  131OSM    H6S14079   1.996   3.994   7.007  0.0512 -0.5416 -0.6822
  131OSM    H6T14080   1.904   3.903   6.884 -0.3396 -0.3881  2.2985
  131OSM    C7S14081   1.790   4.010   7.030  0.0358 -0.2165 -0.5982
  131OSM    H7S14082   1.784   3.912   7.083  0.7294 -0.8085 -1.5800
  131OSM    H7T14083   1.696   4.011   6.971 -0.0047 -1.9428 -0.6052
  131OSM    C8S14084   1.803   4.122   7.134  0.1610 -0.6269  0.5771
  131OSM    H8S14085   1.778   4.219   7.086  0.1131 -0.3872  1.0792
  131OSM    H8T14086   1.909   4.138   7.164 -0.5976  3.2122  1.7106
  131OSM    C9S14087   1.725   4.098   7.265  0.3802 -0.3637 -0.3780
  131OSM    H9S14088   1.758   4.000   7.306 -0.6380  0.1908  1.9369
  131OSM    H9T14089   1.618   4.104   7.234  0.3434 -1.1964 -0.4245
  131OSM   C10S14090   1.734   4.199   7.378  0.3885  0.4489  0.5130
  131OSM   H10S14091   1.741   4.297   7.326  0.7893 -0.5041 -1.3341
  131OSM   H10T14092   1.828   4.187   7.435  1.7696  0.0971 -1.7263
  131OSM   C11S14093   1.612   4.200   7.472  0.4760  0.3764  0.2122
  131OSM   H11S14094   1.592   4.093   7.497  2.6509 -0.1558 -0.1398
  131OSM   H11T14095   1.522   4.240   7.420  1.1632  0.3536 -1.0418
  131OSM   C12S14096   1.639   4.283   7.603 -0.4311 -0.3611  0.2689
  131OSM   H12S14097   1.664   4.388   7.576  0.9467 -0.0970  2.3352
  131OSM   H12T14098   1.728   4.242   7.655 -0.0944 -1.7115 -1.2822
  131OSM   C13S14099   1.520   4.264   7.696  0.7702 -0.3199  0.3143
  131OSM   H13S14100   1.520   4.157   7.726 -0.8717 -0.1038  1.2179
  131OSM   H13T14101   1.420   4.291   7.655  0.3864  2.1690  2.6354
  131OSM   C14S14102   1.527   4.339   7.829  0.1618 -0.1259  0.0459
  131OSM   H14S14103   1.545   4.441   7.789 -0.1768 -1.0122 -2.5316
  131OSM   H14T14104   1.617   4.300   7.881 -0.3186 -2.8708 -1.0454
  131OSM   C15S14105   1.407   4.342   7.920 -0.3356 -0.1260 -0.3430
  131OSM   H15S14106   1.372   4.242   7.953 -0.8887 -0.3050 -1.4221
  131OSM   H15T14107   1.323   4.379   7.857  0.3294  0.8941 -0.6567
  131OSM   C16S14108   1.422   4.429   8.048 -0.0128  0.0699  0.5585
  131OSM   H16S14109   1.510   4.390   8.104 -0.5682  0.3259  1.6407
  131OSM   H16T14110   1.327   4.413   8.104 -0.7041  1.4823 -0.1559
  131OSM   C17S14111   1.425   4.578   8.018 -0.4749 -0.0866  0.2770
  131OSM   H17S14112   1.348   4.610   7.945  0.7966 -0.2031 -1.1569
  131OSM   H17T14113   1.522   4.602   7.970  0.0429  0.8048  1.7019
  131OSM   C18S14114   1.423   4.662   8.145 -0.1557  0.6303 -0.4519
  131OSM   H18S14115   1.328   4.641   8.199 -0.6825 -0.9528 -1.9049
  131OSM   H18T14116   1.438   4.769   8.119  1.8471  0.0203 -2.0408
  131OSM   H18U14117   1.506   4.632   8.213 -0.0405  1.3735 -0.2558
  131OSM    C1F14118   1.599   4.463   6.877 -0.2662 -0.7219  0.1461
  131OSM     OF14119   1.486   4.460   6.838  0.5897 -0.3209  0.3204
  131OSM    C2F14120   1.646   4.557   6.984  0.9116  0.5084 -0.0629
  131OSM    H2F14121   1.614   4.657   6.949  2.8315  1.0495 -0.3899
  131OSM    H2G14122   1.757   4.550   6.987  0.9539 -2.2216 -2.5734
  131OSM    C3F14123   1.589   4.512   7.114  0.7410  0.1072 -0.7700
  131OSM    H3F14124   1.659   4.441   7.164  0.7068 -0.7107 -1.8518
  131OSM    H3G14125   1.493   4.456   7.119  1.3753 -1.0582 -1.2153
  131OSM    C4F14126   1.585   4.620   7.226 -0.6204  0.4333 -0.2218
  131OSM    H4F14127   1.498   4.685   7.201 -0.8224  0.5304  0.6959
  131OSM    H4G14128   1.683   4.672   7.221 -1.6426  2.3812 -1.0072
  131OSM    C5F14129   1.549   4.574   7.368 -1.1456 -0.4637  0.4904
  131OSM    H5F14130   1.627   4.501   7.399 -1.3825 -0.3137  1.4647
  131OSM    H5G14131   1.453   4.518   7.366 -1.2687 -0.2419 -0.2483
  131OSM    C6F14132   1.548   4.693   7.460  0.9459 -0.2743 -0.4878
  131OSM    H6F14133   1.518   4.646   7.556  1.0516  0.0226 -0.3113
  131OSM    H6G14134   1.480   4.772   7.421  2.5500  1.2177 -0.3402
  131OSM    C7F14135   1.681   4.769   7.473  0.6702  0.1437 -0.3537
  131OSM    H7F14136   1.725   4.790   7.373  1.1910 -1.5864 -0.5317
  131OSM    H7G14137   1.751   4.697   7.519 -1.0654 -0.1736  1.9528
  131OSM    C8F14138   1.682   4.894   7.567 -0.7764  0.9072 -0.8333
  131OSM    H8F14139   1.634   4.867   7.663  2.7645  0.8428  1.1073
  131OSM    H8G14140   1.624   4.974   7.516 -0.6128  1.4709 -0.1555
  131OSM    C9F14141   1.820   4.928   7.615 -0.4591  0.2940  0.2115
  131OSM    H9F14142   1.888   4.938   7.529 -1.4706  2.8164 -0.3665
  131OSM   C10F14143   1.868   4.964   7.736 -0.3389 -0.1619 -0.2107
  131OSM   H10F14144   1.972   4.995   7.750  0.8217 -2.3958 -2.9551
  131OSM   C11F14145   1.788   4.974   7.864  1.6494 -0.5608 -0.2022
  131OSM   H11F14146   1.730   4.881   7.884 -1.0343  1.2118  0.8126
  131OSM   H11G14147   1.706   5.048   7.854 -0.2022 -2.0184  2.7721
  131OSM   C12F14148   1.865   4.997   7.993  0.7670 -0.3006  0.0619
  131OSM   H12F14149   1.934   5.082   7.974 -1.3758  1.7547  0.9468
  131OSM   H12G14150   1.937   4.917   8.021 -1.4994 -3.2297 -1.8326
  131OSM   C13F14151   1.767   5.012   8.112  0.2849  0.3437  1.2359
  131OSM   H13F14152   1.723   4.911   8.124  1.9533 -0.4585  0.8953
  131OSM   H13G14153   1.685   5.080   8.081  0.6450  0.5491  0.7160
  131OSM   C14F14154   1.825   5.051   8.248  0.3473  0.3031  0.0831
  131OSM   H14F14155   1.875   5.145   8.219 -1.1076  0.1348 -3.5977
  131OSM   H14G14156   1.899   4.971   8.269  0.2277  0.2742  0.4012
  131OSM   C15F14157   1.734   5.064   8.370 -0.7315  0.0360 -0.1225
  131OSM   H15F14158   1.692   4.963   8.391 -0.2695  0.4236  3.0971
  131OSM   H15G14159   1.659   5.146   8.361  1.1474  2.1771  2.1821
  131OSM   C16F14160   1.811   5.108   8.495  0.2535 -0.2198  0.6428
  131OSM   H16F14161   1.839   5.216   8.489 -0.4992  0.0558  1.8304
  131OSM   H16G14162   1.899   5.041   8.489 -0.5223 -1.2574  0.6557
  131OSM   C17F14163   1.730   5.088   8.625  0.0763  0.5335  0.3382
  131OSM   H17F14164   1.710   4.978   8.632 -3.4592  1.0479  0.2872
  131OSM   H17G14165   1.629   5.132   8.612  0.5345  1.5569  0.2009
  131OSM   C18F14166   1.808   5.145   8.745  0.2245  0.2615  0.1457
  131OSM   H18F14167   1.761   5.107   8.838 -0.2096  1.5140  0.4543
  131OSM   H18G14168   1.796   5.255   8.744  2.1120  0.5059  0.6668
  131OSM   H18H14169   1.911   5.103   8.741  0.6848  1.4202 -0.3509
  132OSM      N14170   4.123   1.300   6.653 -0.2060 -0.0808 -0.1484
  132OSM    C1514171   4.190   1.273   6.783  0.0733  0.1283 -0.0856
  132OSM   H15A14172   4.144   1.327   6.865  0.1226  1.5803 -0.9781
  132OSM   H15B14173   4.293   1.305   6.777 -0.0774  0.6560  0.0745
  132OSM   H15C14174   4.200   1.167   6.802  0.3120 -0.0903 -1.3260
  132OSM    C1414175   4.219   1.241   6.553  0.0401 -0.0840  0.3479
  132OSM   H14A14176   4.230   1.133   6.555 -0.8012 -0.1709  1.5356
  132OSM   H14B14177   4.320   1.278   6.565  0.5653 -1.0765 -0.7787
  132OSM   H14C14178   4.192   1.270   6.453 -0.1706  1.1359  0.7429
  132OSM    C1314179   3.992   1.227   6.655  0.6591 -0.1987  0.6718
  132OSM   H13A14180   3.938   1.244   6.563  0.7796 -1.4967  0.3363
  132OSM   H13B14181   3.939   1.253   6.745  0.6545 -0.6828  0.8119
  132OSM   H13C14182   4.019   1.124   6.672  2.1115 -0.0873 -0.7213
  132OSM    C1214183   4.115   1.455   6.629 -0.3039  0.6441 -0.2401
  132OSM   H12A14184   4.209   1.499   6.659 -0.3787  1.1882 -0.7758
  132OSM   H12B14185   4.042   1.497   6.697  0.7645 -1.5878  2.4973
  132OSM    C1114186   4.089   1.500   6.490  0.0778  0.2966  0.4219
  132OSM   H11A14187   4.178   1.489   6.425 -0.1232  1.7015 -0.1210
  132OSM   H11B14188   4.086   1.611   6.486 -0.1738  0.2601 -0.7583
  132OSM      P14189   3.851   1.522   6.392  0.0682  0.5103  0.2165
  132OSM    O1314190   3.887   1.644   6.318 -0.4442 -0.2703 -0.0201
  132OSM    O1414191   3.751   1.438   6.323  0.3367 -0.1604  0.2116
  132OSM    O1114192   3.793   1.561   6.533 -0.8109 -0.7319 -0.3541
  132OSM    O1214193   3.979   1.446   6.430  0.0603  0.5266 -0.0458
  132OSM    C1S14194   3.695   1.472   6.596  0.1489 -0.9534 -0.5870
  132OSM    H1S14195   3.725   1.365   6.593  0.1791 -0.9320 -2.2134
  132OSM    H1T14196   3.594   1.477   6.551  0.3746 -0.3953 -1.0355
  132OSM     NF14197   3.596   1.414   6.808  0.5648 -0.1969  0.4735
  132OSM    HNF14198   3.499   1.437   6.805  0.6751  0.4302  1.4294
  132OSM    C2S14199   3.679   1.508   6.748 -0.2640 -0.7703  0.5576
  132OSM    H2S14200   3.776   1.505   6.801 -1.2239 -1.2570  2.4013
  132OSM    C3S14201   3.624   1.658   6.753  0.8048 -1.3229 -0.3527
  132OSM    H3S14202   3.530   1.670   6.695  1.1970  1.5994 -0.5283
  132OSM     O314203   3.711   1.751   6.705  0.6345 -0.6755 -0.0193
  132OSM    HO314204   3.757   1.714   6.630  0.7417  1.0376 -0.8377
  132OSM    C4S14205   3.598   1.694   6.899  0.0093  0.2528  0.7743
  132OSM    H4S14206   3.669   1.656   6.973  0.4196 -0.5621 -0.0194
  132OSM    C5S14207   3.474   1.726   6.935 -0.2922  0.7083 -0.1270
  132OSM    H5S14208   3.393   1.729   6.860 -1.9374 -2.5533  1.3016
  132OSM    C6S14209   3.437   1.741   7.079  0.2025  0.3081  0.3650
  132OSM    H6S14210   3.355   1.816   7.088 -1.6974 -1.7053  0.4803
  132OSM    H6T14211   3.523   1.785   7.135 -0.4613 -0.7740  2.3564
  132OSM    C7S14212   3.395   1.602   7.143 -0.2428 -0.7163  0.8420
  132OSM    H7S14213   3.481   1.573   7.207 -0.4918 -1.0906  1.0128
  132OSM    H7T14214   3.382   1.531   7.058 -1.8350  1.1777 -0.5736
  132OSM    C8S14215   3.272   1.621   7.223  0.3697 -0.4351  0.0012
  132OSM    H8S14216   3.230   1.521   7.250 -0.4467  0.2617  1.4288
  132OSM    H8T14217   3.188   1.672   7.171 -0.9139  0.3671  2.6397
  132OSM    C9S14218   3.301   1.700   7.350 -0.5756 -0.3888 -0.4396
  132OSM    H9S14219   3.363   1.788   7.325  0.7207 -1.5443 -1.4165
  132OSM    H9T14220   3.362   1.638   7.419 -0.0495  0.7101  0.1061
  132OSM   C10S14221   3.160   1.733   7.409 -0.9864 -0.0092 -0.8863
  132OSM   H10S14222   3.103   1.639   7.419 -0.9177 -0.1308 -1.5604
  132OSM   H10T14223   3.110   1.791   7.329  0.8304  1.6499 -0.8912
  132OSM   C11S14224   3.156   1.823   7.539 -0.4300 -0.0922  0.6772
  132OSM   H11S14225   3.062   1.883   7.547 -0.9387 -1.0688  2.9560
  132OSM   H11T14226   3.246   1.888   7.530  0.7402 -1.8183 -0.6146
  132OSM   C12S14227   3.179   1.738   7.666  0.2957  0.0333  0.3947
  132OSM   H12S14228   3.267   1.674   7.645  1.1880  2.2560 -3.6594
  132OSM   H12T14229   3.093   1.668   7.675  1.1793 -1.4286 -1.7656
  132OSM   C13S14230   3.195   1.823   7.793 -1.1990 -0.6536 -0.0811
  132OSM   H13S14231   3.096   1.874   7.793  0.0464  2.0035 -1.8682
  132OSM   H13T14232   3.265   1.904   7.765 -0.9910 -0.2418  1.5119
  132OSM   C14S14233   3.227   1.745   7.930  0.0071 -0.6597 -0.0998
  132OSM   H14S14234   3.309   1.675   7.902 -1.2767 -1.9561 -0.7772
  132OSM   H14T14235   3.130   1.695   7.955  0.1120  0.4371  2.7553
  132OSM   C15S14236   3.274   1.836   8.044 -0.4263  0.9769  0.2561
  132OSM   H15S14237   3.365   1.895   8.019  0.5533 -0.5815 -0.0135
  132OSM   H15T14238   3.309   1.765   8.121 -2.3836 -0.9593 -0.5407
  132OSM   C16S14239   3.166   1.937   8.092  0.1976 -1.2302  1.0525
  132OSM   H16S14240   3.066   1.900   8.060  0.7681 -0.9903 -1.1593
  132OSM   H16T14241   3.181   2.029   8.032 -1.7148 -0.7926  1.1700
  132OSM   C17S14242   3.187   1.948   8.239 -0.1654 -0.2553  0.0256
  132OSM   H17S14243   3.297   1.951   8.254 -0.4293  0.8019  2.1716
  132OSM   H17T14244   3.147   1.862   8.297  0.3260 -1.4731 -1.3974
  132OSM   C18S14245   3.119   2.081   8.283  0.5570 -0.7386  0.7597
  132OSM   H18S14246   3.008   2.086   8.277  0.6062 -0.4391 -0.0977
  132OSM   H18T14247   3.163   2.167   8.226  0.2739 -0.9890  0.1505
  132OSM   H18U14248   3.140   2.101   8.390  2.6163  0.8014  0.1435
  132OSM    C1F14249   3.634   1.292   6.850  0.2902 -0.8058  0.5132
  132OSM     OF14250   3.737   1.237   6.818  0.4757  0.5714 -0.4611
  132OSM    C2F14251   3.528   1.218   6.924 -0.1241 -0.0400 -0.4248
  132OSM    H2F14252   3.518   1.112   6.895 -4.5646  0.0093  0.1796
  132OSM    H2G14253   3.428   1.261   6.901  0.4108  2.4114  1.3250
  132OSM    C3F14254   3.572   1.227   7.074  0.6834  0.1953 -0.7487
  132OSM    H3F14255   3.576   1.331   7.113 -1.8725  0.5535 -1.2319
  132OSM    H3G14256   3.672   1.186   7.099  0.4580 -0.2770 -0.6171
  132OSM    C4F14257   3.466   1.163   7.167 -0.0308 -0.0174 -0.0919
  132OSM    H4F14258   3.467   1.053   7.151 -0.6772  0.3551 -3.3322
  132OSM    H4G14259   3.364   1.197   7.142 -1.3883 -1.3719  3.0649
  132OSM    C5F14260   3.493   1.199   7.320 -0.3699  0.6215 -0.2969
  132OSM    H5F14261   3.603   1.193   7.336 -0.5925  0.2098  1.2175
  132OSM    H5G14262   3.430   1.126   7.374 -1.3812  2.5793  1.2915
  132OSM    C6F14263   3.448   1.342   7.361 -0.1264  0.6876  0.0519
  132OSM    H6F14264   3.345   1.360   7.324 -0.7650 -1.2515  0.7617
  132OSM    H6G14265   3.519   1.401   7.299 -1.5316  1.2188 -1.0926
  132OSM    C7F14266   3.467   1.372   7.509  0.1093  0.0484  1.1411
  132OSM    H7F14267   3.457   1.480   7.533 -3.1764  0.2741 -0.5953
  132OSM    H7G14268   3.570   1.340   7.534  0.2496  1.5075  2.5490
  132OSM    C8F14269   3.375   1.293   7.614 -0.3638 -0.1521 -0.2914
  132OSM    H8F14270   3.433   1.251   7.699 -3.8901 -0.2563  2.2380
  132OSM    H8G14271   3.350   1.195   7.567  0.4225  1.1087 -3.6265
  132OSM    C9F14272   3.250   1.363   7.658 -0.1106  0.3066  0.3202
  132OSM    H9F14273   3.191   1.401   7.574  0.0765 -0.6610 -0.2647
  132OSM   C10F14274   3.210   1.369   7.785  0.3755  0.0853 -0.3727
  132OSM   H10F14275   3.109   1.411   7.799  0.8519  1.4579 -0.9397
  132OSM   C11F14276   3.278   1.308   7.902 -0.5477 -0.7468 -1.2315
  132OSM   H11F14277   3.365   1.243   7.877 -0.3828 -1.2383  0.4527
  132OSM   H11G14278   3.202   1.242   7.950 -0.2888  1.0166  1.8623
  132OSM   C12F14279   3.321   1.404   8.009 -0.6362  0.1742  0.0372
  132OSM   H12F14280   3.233   1.452   8.058  0.4590  2.6297 -0.2123
  132OSM   H12G14281   3.385   1.484   7.966 -1.8601  0.6450 -0.9730
  132OSM   C13F14282   3.388   1.331   8.119  0.2446  1.1073 -0.3818
  132OSM   H13F14283   3.463   1.386   8.180  0.9800 -0.4641  0.1876
  132OSM   H13G14284   3.436   1.239   8.080 -2.8743 -0.4864 -0.7862
  132OSM   C14F14285   3.295   1.283   8.236 -0.7054 -0.5426  0.5643
  132OSM   H14F14286   3.349   1.212   8.301 -1.0765 -1.1474  0.2147
  132OSM   H14G14287   3.207   1.236   8.187 -0.4750  0.5627 -0.9828
  132OSM   C15F14288   3.232   1.397   8.328 -0.4100 -0.1506  0.1092
  132OSM   H15F14289   3.166   1.461   8.266 -0.9130 -0.6040  0.1717
  132OSM   H15G14290   3.311   1.456   8.380 -1.2801  0.0480  1.2333
  132OSM   C16F14291   3.149   1.339   8.439 -0.3291  0.9123  0.4751
  132OSM   H16F14292   3.216   1.282   8.506 -0.1303  0.7150  0.1132
  132OSM   H16G14293   3.076   1.271   8.390  1.2795 -0.2622 -0.4191
  132OSM   C17F14294   3.082   1.444   8.530 -0.0547 -0.5101 -0.5669
  132OSM   H17F14295   3.006   1.500   8.471  0.1202  2.9130  2.1747
  132OSM   H17G14296   3.155   1.520   8.563  0.6592 -1.9924  1.4458
  132OSM   C18F14297   3.016   1.389   8.663 -0.2722 -0.2609 -0.4376
  132OSM   H18F14298   2.908   1.372   8.641  0.3085 -0.5100 -3.6970
  132OSM   H18G14299   3.020   1.461   8.747 -1.5349 -2.2630  1.4525
  132OSM   H18H14300   3.076   1.304   8.701 -0.1324  0.1409  0.2508
  133SAPE     N14301   5.390   0.327  10.756 -0.0272 -0.6811  0.7052
  133SAPE   HN114302   5.366   0.276  10.843  1.3671 -2.4344  0.1256
  133SAPE   HN214303   5.362   0.427  10.761  0.9080 -0.4265  1.2816
  133SAPE   HN314304   5.328   0.284  10.685 -1.0230 -0.7404  1.5878
  133SAPE   C1214305   5.538   0.320  10.728  0.3571  0.6063 -0.3618
  133SAPE  H12A14306   5.551   0.376  10.633 -0.5325  0.0882 -0.8033
  133SAPE  H12B14307   5.564   0.213  10.717  2.8979  1.0603  0.5894
  133SAPE   C1114308   5.622   0.379  10.849 -0.2269  0.6224 -0.1054
  133SAPE  H11A14309   5.729   0.373  10.821  0.2083 -0.5727  1.6201
  133SAPE  H11B14310   5.607   0.309  10.934  3.4153  0.8307  0.8535
  133SAPE     P14311   5.665   0.645  10.836 -0.0531  0.1410  0.2407
  133SAPE   O1314312   5.760   0.680  10.943  0.1413  0.0541  0.3692
  133SAPE   O1414313   5.711   0.613  10.698  0.2525  0.5277  0.0390
  133SAPE   O1214314   5.584   0.513  10.885  0.8682 -0.0921 -0.0978
  133SAPE   O1114315   5.570   0.767  10.838 -0.0481 -0.1407 -0.1246
  133SAPE    C114316   5.427   0.757  10.827  0.2582  0.6372  0.0649
  133SAPE    HA14317   5.386   0.659  10.860 -1.1698  1.1193 -0.2492
  133SAPE    HB14318   5.394   0.825  10.909  0.8839 -0.3992  1.2086
  133SAPE    C214319   5.358   0.798  10.696  0.0094  0.3094  0.2401
  133SAPE    HS14320   5.274   0.729  10.671 -1.1152  1.2442  1.3355
  133SAPE   O2114321   5.443   0.796  10.584 -0.7344 -0.4514  0.0626
  133SAPE   C2114322   5.463   0.684  10.533 -0.3991 -0.3867 -0.4014
  133SAPE   O2214323   5.412   0.578  10.569  0.8379 -0.1278 -0.0693
  133SAPE   C2214324   5.547   0.704  10.407 -0.1445  0.2635  0.4965
  133SAPE   H2R14325   5.645   0.747  10.437  0.4053 -1.3806  1.1915
  133SAPE   H2S14326   5.575   0.599  10.383  0.1744 -0.2343  2.8329
  133SAPE    C314327   5.309   0.944  10.691  0.2429 -0.0894  0.0797
  133SAPE    HX14328   5.388   1.020  10.675 -0.5290  1.0473  1.4632
  133SAPE    HY14329   5.264   0.972  10.789  2.7266  1.8079  0.7595
  133SAPE   O3114330   5.203   0.947  10.592  0.0547 -0.4372  0.4435
  133SAPE   C3114331   5.213   1.035  10.496  0.1956  0.5719  0.0486
  133SAPE   O3214332   5.302   1.115  10.482 -0.3335 -0.2316 -0.6372
  133SAPE   C3214333   5.101   1.008  10.395 -0.3846  0.1112  0.1093
  133SAPE   H2X14334   5.017   0.946  10.433 -1.1634  2.2074  2.0374
  133SAPE   H2Y14335   5.166   0.962  10.318 -1.5465 -2.5188  0.5735
  133SAPE   C2314336   5.466   0.773  10.295  0.0985 -0.9921  0.5065
  133SAPE   H3R14337   5.360   0.779  10.326  0.1573 -0.9812  0.7042
  133SAPE   H3S14338   5.477   0.707  10.207  2.1446 -0.9163  0.6583
  133SAPE   C2414339   5.505   0.923  10.268  0.0207  0.4622  0.0071
  133SAPE   H4R14340   5.481   0.967  10.367 -1.4981 -0.5993  0.1485
  133SAPE   H4S14341   5.432   0.968  10.198  0.4049  1.6952  0.3807
  133SAPE   C2514342   5.646   0.943  10.218  0.2777  0.2697  0.1816
  133SAPE   H5R14343   5.719   0.909  10.293 -1.5446 -1.7253  1.1383
  133SAPE   C2614344   5.686   0.978  10.096  0.0441 -0.3185 -0.4912
  133SAPE   H6R14345   5.793   0.962  10.083  0.1640 -1.5034  1.4749
  133SAPE   C2714346   5.594   1.019   9.976  0.1027 -1.0092  0.8266
  133SAPE   H7R14347   5.493   1.047  10.014  1.3072  1.3417  2.6226
  133SAPE   H7S14348   5.563   0.933   9.914  0.2633  0.5951 -1.6305
  133SAPE   C2814349   5.650   1.119   9.874  0.3800 -0.0940 -0.1325
  133SAPE   H8R14350   5.682   1.216   9.915 -0.1409  0.2605 -0.5379
  133SAPE   C2914351   5.671   1.095   9.745 -0.4665  0.5886 -0.1361
  133SAPE   H9R14352   5.722   1.173   9.686  1.6612  0.1428  1.0036
  133SAPE  C21014353   5.653   0.958   9.672 -0.0830 -1.1437 -0.1094
  133SAPE  H10R14354   5.566   0.955   9.603  0.1288 -0.0464 -0.4571
  133SAPE  H10S14355   5.641   0.872   9.741 -1.9355 -2.3511 -1.8296
  133SAPE  C21114356   5.776   0.958   9.576 -0.3035 -0.2153  0.2589
  133SAPE  H11R14357   5.763   1.022   9.488 -0.4292 -0.3365  0.1895
  133SAPE  C21214358   5.898   0.902   9.595 -0.1394 -0.2696 -0.2178
  133SAPE  H12R14359   5.970   0.922   9.514 -0.7871 -0.1893 -0.7826
  133SAPE  C21314360   5.931   0.829   9.720 -0.6226  0.4380 -0.2919
  133SAPE  H13R14361   5.846   0.837   9.790 -0.8176 -0.2638 -0.4419
  133SAPE  H13S14362   6.015   0.884   9.769  0.4999 -1.0740 -0.4510
  133SAPE  C21414363   5.967   0.690   9.685 -0.1988  0.1089  0.0215
  133SAPE  H14R14364   6.035   0.681   9.599  2.4505 -1.8908  2.1610
  133SAPE  C21514365   5.926   0.577   9.737  0.6364  0.2918  0.0907
  133SAPE  H15R14366   5.968   0.484   9.697  0.3012 -0.8177  2.1986
  133SAPE  C21614367   5.822   0.558   9.853  0.3814  0.2122  0.0705
  133SAPE  H16R14368   5.808   0.656   9.904  0.3356 -0.0978  0.6535
  133SAPE  H16S14369   5.854   0.489   9.934 -1.0533  0.3950  0.8190
  133SAPE  C21714370   5.686   0.499   9.801  0.1253 -0.5388  0.2336
  133SAPE  H17R14371   5.628   0.468   9.891 -1.3971  0.0444 -0.5053
  133SAPE  H17S14372   5.696   0.406   9.741  0.6724 -0.3677  0.0608
  133SAPE  C21814373   5.609   0.594   9.705  0.5151  0.6751 -0.4304
  133SAPE  H18R14374   5.666   0.643   9.623  0.6838  0.0959 -0.6593
  133SAPE  H18S14375   5.565   0.676   9.766 -0.4314 -0.6877  0.7923
  133SAPE  C21914376   5.480   0.539   9.647 -0.2561 -0.0511  0.0139
  133SAPE  H19R14377   5.425   0.622   9.597 -2.5122 -1.2984  0.2813
  133SAPE  H19S14378   5.409   0.509   9.727 -0.4252  0.7533  0.1703
  133SAPE  C22014379   5.508   0.430   9.547 -0.7283  0.8723 -0.0217
  133SAPE  H20R14380   5.530   0.334   9.599  2.0462  0.9405 -0.9455
  133SAPE  H20S14381   5.593   0.464   9.485 -0.0211  0.7148  0.8456
  133SAPE  H20T14382   5.419   0.418   9.481 -0.6647  0.9098 -0.1142
  133SAPE   C3314383   5.041   1.139  10.319 -1.0652  0.5538 -0.5687
  133SAPE   H3X14384   5.097   1.230  10.351 -0.3043 -0.6606  1.7430
  133SAPE   H3Y14385   4.935   1.154  10.349 -1.0293  1.2468 -0.7466
  133SAPE   C3414386   5.045   1.122  10.166  0.3414  0.1276 -0.2819
  133SAPE   H4X14387   4.991   1.028  10.140 -2.6111  1.1221  1.7957
  133SAPE   H4Y14388   5.152   1.107  10.138  0.3255 -0.8191  0.1059
  133SAPE   C3514389   4.987   1.239  10.085  0.5942 -0.0376 -0.1682
  133SAPE   H5X14390   5.007   1.341  10.125 -0.2458  0.4715 -1.0083
  133SAPE   H5Y14391   4.881   1.236  10.117 -0.0998  0.4238 -2.2697
  133SAPE   C3614392   5.013   1.218   9.934  0.2023 -0.1527  0.2174
  133SAPE   H6X14393   4.962   1.297   9.875  1.4024  0.9799  0.6356
  133SAPE   H6Y14394   4.979   1.115   9.911 -0.5887 -0.3473  2.0592
  133SAPE   C3714395   5.159   1.232   9.897  0.1432 -0.0612 -0.0196
  133SAPE   H7X14396   5.216   1.146   9.938 -2.3935 -0.9576  1.8843
  133SAPE   H7Y14397   5.198   1.328   9.936  1.7094  0.0159 -1.6280
  133SAPE   C3814398   5.178   1.234   9.736  0.5425  0.5210 -0.1973
  133SAPE   H8X14399   5.100   1.309   9.711  1.0351  1.7506  1.7571
  133SAPE   H8Y14400   5.150   1.130   9.708  2.6634  0.2454 -1.5497
  133SAPE   C3914401   5.318   1.273   9.684 -0.0131  0.3034  0.4996
  133SAPE   H9X14402   5.394   1.213   9.739 -0.1889  1.7548  2.4502
  133SAPE   H9Y14403   5.348   1.379   9.700  0.8285  0.2255 -0.4189
  133SAPE  C31014404   5.340   1.246   9.530  0.4486 -0.0155  0.4730
  133SAPE  H10X14405   5.327   1.137   9.512  0.5693  0.2392 -1.3454
  133SAPE  H10Y14406   5.437   1.285   9.494  0.2418  0.4455  0.3987
  133SAPE  C31114407   5.228   1.303   9.444 -0.3771  0.1029  0.8077
  133SAPE  H11X14408   5.206   1.394   9.503  0.4791  0.2342  0.9394
  133SAPE  H11Y14409   5.140   1.235   9.452  0.3784 -0.8183  1.6760
  133SAPE  C31214410   5.256   1.330   9.295  0.0144 -0.3113  0.3540
  133SAPE  H12X14411   5.156   1.362   9.258 -0.1603 -0.8807  0.3204
  133SAPE  H12Y14412   5.276   1.239   9.235  0.9229 -0.9423  1.5731
  133SAPE  C31314413   5.358   1.448   9.282  0.3733 -0.3306  0.4295
  133SAPE  H13X14414   5.463   1.423   9.311 -0.3740 -2.5446  1.4046
  133SAPE  H13Y14415   5.328   1.528   9.353  1.4600 -0.7069  1.3474
  133SAPE  C31414416   5.371   1.509   9.142  0.1608 -0.1451  0.5371
  133SAPE  H14X14417   5.398   1.617   9.146 -0.9015  0.1372  0.3594
  133SAPE  H14Y14418   5.267   1.507   9.102  0.3949  1.0709 -0.1804
  133SAPE  C31514419   5.462   1.427   9.051 -0.1201 -0.2804 -0.6971
  133SAPE  H15X14420   5.431   1.321   9.065 -0.8063  0.1690  1.6294
  133SAPE  H15Y14421   5.569   1.423   9.082  0.1610  1.0338 -1.4324
  133SAPE  C31614422   5.468   1.470   8.900 -0.7016 -0.1874  0.0351
  133SAPE  H16X14423   5.502   1.576   8.892 -1.7057  0.0767 -0.9192
  133SAPE  H16Y14424   5.371   1.463   8.845 -0.9579  1.0519  0.2900
  133SAPE  C31714425   5.558   1.373   8.819 -0.0653  0.2742  0.2868
  133SAPE  H17X14426   5.531   1.268   8.842 -0.0361 -0.2000 -1.7152
  133SAPE  H17Y14427   5.666   1.391   8.840  0.1403  1.3877 -1.5064
  133SAPE  C31814428   5.547   1.402   8.672  0.0954  0.3017 -0.4812
  133SAPE  H18X14429   5.462   1.340   8.638 -1.2831  0.6278  2.1533
  133SAPE  H18Y14430   5.630   1.378   8.601 -1.1972  2.3506 -2.8403
  133SAPE  H18Z14431   5.526   1.510   8.661 -0.2511  0.6563  2.7367
  134SAPE     N14432   0.716   0.811  10.947 -0.3232  0.0597  0.1385
  134SAPE   HN114433   0.759   0.888  11.002 -2.0304  1.2424 -0.0960
  134SAPE   HN214434   0.793   0.769  10.892 -0.2482 -0.6115  0.7416
  134SAPE   HN314435   0.635   0.840  10.889 -0.1285 -1.3588 -0.8854
  134SAPE   C1214436   0.651   0.699  11.037  0.5484  0.8870  0.2460
  134SAPE  H12A14437   0.548   0.729  11.067  0.5060  1.8313 -0.7776
  134SAPE  H12B14438   0.716   0.700  11.127 -1.5187  1.7770  1.8313
  134SAPE   C1114439   0.649   0.562  10.974 -0.9639  0.0078  0.0275
  134SAPE  H11A14440   0.613   0.486  11.045 -0.9057 -0.3217 -0.2906
  134SAPE  H11B14441   0.746   0.518  10.940 -1.4334 -1.0509  0.0223
  134SAPE     P14442   0.530   0.444  10.764  0.3228  0.2557 -0.2604
  134SAPE   O1314443   0.560   0.316  10.837  0.3497  0.0194  1.1441
  134SAPE   O1414444   0.390   0.455  10.734 -0.0827 -0.0158  0.0119
  134SAPE   O1214445   0.564   0.571  10.859 -0.2673  0.3819 -0.8962
  134SAPE   O1114446   0.622   0.459  10.643 -0.1178 -0.6488  0.3776
  134SAPE    C114447   0.706   0.344  10.606  1.0912 -0.6173  0.2324
  134SAPE    HA14448   0.768   0.301  10.688  0.9015  0.0873  0.7496
  134SAPE    HB14449   0.653   0.267  10.546 -0.0676  0.1872  0.1974
  134SAPE    C214450   0.808   0.394  10.489 -0.2707  0.1614 -0.3605
  134SAPE    HS14451   0.875   0.467  10.539 -0.9158  0.5074  0.0140
  134SAPE   O2114452   0.724   0.455  10.394  0.1795 -0.5804 -0.3572
  134SAPE   C2114453   0.771   0.492  10.284  0.0806 -0.1058 -0.0488
  134SAPE   O2214454   0.888   0.498  10.245 -0.4040  0.2329 -0.0266
  134SAPE   C2214455   0.651   0.518  10.191  0.3697 -0.0882 -0.2087
  134SAPE   H2R14456   0.568   0.565  10.250  0.2187 -1.3692  0.6428
  134SAPE   H2S14457   0.682   0.585  10.109  1.0993 -0.2254 -0.0500
  134SAPE    C314458   0.904   0.284  10.438 -0.3614  0.7954 -0.3529
  134SAPE    HX14459   0.960   0.250  10.528 -3.3002 -2.6400  0.4484
  134SAPE    HY14460   0.979   0.324  10.367  0.2842 -1.3694 -0.9676
  134SAPE   O3114461   0.828   0.166  10.386 -0.4559  0.4208  0.3505
  134SAPE   C3114462   0.834   0.051  10.450  0.5253  0.3269 -0.7308
  134SAPE   O3214463   0.900   0.031  10.550 -0.2010 -0.3492 -0.0718
  134SAPE   C3214464   0.744  -0.045  10.383 -0.1589  0.2373 -0.5887
  134SAPE   H2X14465   0.701   0.004  10.293 -4.0458 -1.6619 -0.0084
  134SAPE   H2Y14466   0.661  -0.064  10.455  0.1565  1.7037  0.2144
  134SAPE   C2314467   0.595   0.389  10.116 -0.8714 -0.0832 -0.6145
  134SAPE   H3R14468   0.519   0.400  10.036 -0.4018  4.2150 -0.6820
  134SAPE   H3S14469   0.551   0.318  10.190  0.0156  0.2466  0.2577
  134SAPE   C2414470   0.716   0.303  10.054  0.8419 -0.0283 -0.0156
  134SAPE   H4R14471   0.667   0.206  10.028 -0.5265  0.6460 -0.0280
  134SAPE   H4S14472   0.781   0.277  10.140  0.0890 -1.2578  0.2152
  134SAPE   C2514473   0.801   0.359   9.940 -0.4459 -0.0749 -0.0060
  134SAPE   H5R14474   0.905   0.378   9.971 -0.1276 -0.8812 -0.5654
  134SAPE   C2614475   0.766   0.387   9.810 -0.1998  0.0469 -0.1146
  134SAPE   H6R14476   0.845   0.418   9.739  0.0196 -0.4562 -0.0952
  134SAPE   C2714477   0.637   0.354   9.743 -0.2402  0.0477  0.1278
  134SAPE   H7R14478   0.579   0.273   9.793  0.1499 -1.4978 -1.7834
  134SAPE   H7S14479   0.678   0.316   9.647  0.3361  0.4576  0.2066
  134SAPE   C2814480   0.536   0.466   9.710  0.2196  0.5264 -0.6882
  134SAPE   H8R14481   0.520   0.522   9.803  2.7764  0.3653 -0.0728
  134SAPE   C2914482   0.490   0.505   9.591 -0.3029 -0.2401 -0.3038
  134SAPE   H9R14483   0.419   0.589   9.585 -1.7229 -1.2748  1.2237
  134SAPE  C21014484   0.522   0.448   9.456 -1.3708 -0.7973  0.8390
  134SAPE  H10R14485   0.625   0.411   9.436 -1.5336 -0.2488 -1.2438
  134SAPE  H10S14486   0.505   0.526   9.379  0.8491 -2.7055 -1.7992
  134SAPE  C21114487   0.433   0.330   9.440  0.3292 -0.4132 -0.7441
  134SAPE  H11R14488   0.412   0.278   9.534 -1.4853  0.9359 -0.3572
  134SAPE  C21214489   0.402   0.269   9.320 -0.5178 -0.0435 -1.1290
  134SAPE  H12R14490   0.329   0.188   9.321 -2.1390  1.3584 -1.5217
  134SAPE  C21314491   0.440   0.319   9.180  0.4811  0.3600  0.2598
  134SAPE  H13R14492   0.539   0.367   9.166  0.0900  1.2569  0.4630
  134SAPE  H13S14493   0.370   0.404   9.171 -0.5311 -0.5438 -0.6862
  134SAPE  C21414494   0.408   0.220   9.068  0.1674  0.3774 -0.6391
  134SAPE  H14R14495   0.396   0.119   9.111  0.8626  0.2247 -0.7837
  134SAPE  C21514496   0.409   0.236   8.932 -0.2007 -0.1645 -0.8855
  134SAPE  H15R14497   0.402   0.145   8.870 -1.1141 -0.0894 -0.9132
  134SAPE  C21614498   0.421   0.366   8.859  0.4876 -0.0685 -0.8348
  134SAPE  H16R14499   0.345   0.433   8.904 -0.0957 -0.1361 -1.6922
  134SAPE  H16S14500   0.400   0.360   8.750  0.0255  0.4148 -0.7771
  134SAPE  C21714501   0.558   0.436   8.874  0.4557  0.0131  0.1177
  134SAPE  H17R14502   0.639   0.369   8.837 -1.0878 -2.0831  0.3269
  134SAPE  H17S14503   0.584   0.451   8.981 -0.9277 -2.7949  0.9504
  134SAPE  C21814504   0.575   0.559   8.789 -0.4440 -0.6467 -0.5279
  134SAPE  H18R14505   0.676   0.597   8.818 -0.6499  1.9838 -2.8039
  134SAPE  H18S14506   0.494   0.626   8.824  1.1792  1.2485 -0.1818
  134SAPE  C21914507   0.575   0.535   8.637  0.6389  0.1848 -0.0837
  134SAPE  H19R14508   0.473   0.500   8.608 -0.8587  2.3234  2.2330
  134SAPE  H19S14509   0.648   0.452   8.622 -0.3047 -1.0267  1.6672
  134SAPE  C22014510   0.606   0.657   8.546  0.5777 -0.4995 -0.1505
  134SAPE  H20R14511   0.690   0.718   8.587  1.5867 -0.3332 -2.2869
  134SAPE  H20S14512   0.521   0.727   8.539  1.4910  0.5357 -1.4217
  134SAPE  H20T14513   0.633   0.625   8.443 -2.7631  2.3269 -2.1067
  134SAPE   C3314514   0.791  -0.191  10.350 -0.6776  0.1217 -0.3224
  134SAPE   H3X14515   0.706  -0.250  10.310 -0.8783  1.6013 -2.2111
  134SAPE   H3Y14516   0.830  -0.241  10.441  0.8293 -2.2511 -2.1697
  134SAPE   C3414517   0.894  -0.184  10.231  0.1419 -0.0319  0.2014
  134SAPE   H4X14518   0.940  -0.282  10.207  0.4905  0.8195 -3.2962
  134SAPE   H4Y14519   0.982  -0.128  10.270 -0.7255  1.9194 -0.5143
  134SAPE   C3514520   0.849  -0.114  10.102 -0.9266  0.6864 -0.3683
  134SAPE   H5X14521   0.808  -0.013  10.123 -1.1807  0.2182  1.5944
  134SAPE   H5Y14522   0.786  -0.183  10.042 -2.4019 -0.3849  2.2439
  134SAPE   C3614523   0.975  -0.082  10.012 -0.1271 -0.3103 -0.6602
  134SAPE   H6X14524   1.010  -0.181   9.973 -1.1569 -1.6396  1.5866
  134SAPE   H6Y14525   1.062  -0.045  10.071 -0.3438 -1.1704  0.2411
  134SAPE   C3714526   0.947   0.016   9.894 -0.1954  0.1222 -0.8665
  134SAPE   H7X14527   0.907   0.111   9.936 -0.8683 -0.7740  0.6301
  134SAPE   H7Y14528   0.863  -0.031   9.839 -1.8949  3.2146 -1.1059
  134SAPE   C3814529   1.069   0.036   9.811 -0.1453 -0.1339  0.3408
  134SAPE   H8X14530   1.109  -0.064   9.783  0.0492  0.0707 -0.1192
  134SAPE   H8Y14531   1.142   0.088   9.877 -0.2412 -0.5717  0.7978
  134SAPE   C3914532   1.048   0.126   9.689  0.4766  0.0801  0.2863
  134SAPE   H9X14533   1.137   0.153   9.629 -0.2434  2.6171  0.2424
  134SAPE   H9Y14534   1.014   0.224   9.728  0.3373  0.1337  0.0371
  134SAPE  C31014535   0.927   0.090   9.603 -0.6273 -0.7059  0.2997
  134SAPE  H10X14536   0.832   0.081   9.660 -0.6989 -1.5762  0.0629
  134SAPE  H10Y14537   0.949  -0.014   9.571  0.1477 -1.3021  2.5640
  134SAPE  C31114538   0.921   0.177   9.480  0.4234 -0.3900 -0.8933
  134SAPE  H11X14539   1.015   0.205   9.428  1.2175 -0.4384  0.4821
  134SAPE  H11Y14540   0.854   0.262   9.502 -0.5827 -1.3376 -0.1705
  134SAPE  C31214541   0.840   0.110   9.368  0.4875  0.6874 -1.1190
  134SAPE  H12X14542   0.745   0.077   9.415  0.2414  2.8657  0.0531
  134SAPE  H12Y14543   0.901   0.027   9.326 -0.0286  0.8189 -2.1526
  134SAPE  C31314544   0.800   0.192   9.246  0.1088 -0.0097  0.4180
  134SAPE  H13X14545   0.740   0.281   9.275 -2.1447 -0.9073 -1.1312
  134SAPE  H13Y14546   0.732   0.118   9.197 -1.6547  1.5980  0.2969
  134SAPE  C31414547   0.924   0.237   9.167  0.4068  0.2263 -0.5542
  134SAPE  H14X14548   1.002   0.161   9.188 -0.9606 -0.7266  1.3906
  134SAPE  H14Y14549   0.966   0.333   9.204 -0.7437  0.1232  1.1419
  134SAPE  C31514550   0.895   0.231   9.019 -0.4870  0.3889 -0.0167
  134SAPE  H15X14551   0.806   0.297   9.009 -0.6979 -0.1129 -1.7765
  134SAPE  H15Y14552   0.865   0.133   8.977  1.6298  0.6245 -2.2829
  134SAPE  C31614553   1.009   0.287   8.936  0.8495  0.2468  0.1631
  134SAPE  H16X14554   1.105   0.233   8.947  0.3534 -0.9690 -1.2011
  134SAPE  H16Y14555   1.022   0.391   8.973 -1.5534  0.4937  0.4704
  134SAPE  C31714556   0.966   0.282   8.785 -0.4058 -0.2072 -0.3069
  134SAPE  H17X14557   0.883   0.353   8.765  0.4180  0.6793 -0.6195
  134SAPE  H17Y14558   0.939   0.182   8.742 -1.0852 -0.3395  0.3998
  134SAPE  C31814559   1.085   0.330   8.699 -0.1940 -0.0086 -0.1254
  134SAPE  H18X14560   1.053   0.375   8.603  1.3125  0.2241 -0.5352
  134SAPE  H18Y14561   1.158   0.247   8.688  0.7149  0.8371 -0.6495
  134SAPE  H18Z14562   1.128   0.414   8.759 -0.9709  0.2473  0.1017
  135SAPE     N14563   1.222   1.127  10.755 -0.4344 -0.0222 -0.3278
  135SAPE   HN114564   1.270   1.036  10.743 -0.2142  0.0766 -0.1811
  135SAPE   HN214565   1.279   1.213  10.751 -1.5459  0.6998 -1.4445
  135SAPE   HN314566   1.170   1.127  10.845 -0.2429  0.9466 -0.2115
  135SAPE   C1214567   1.129   1.152  10.643  0.6991  0.6698 -0.3298
  135SAPE  H12A14568   1.181   1.155  10.544  1.1017 -0.3158 -0.1651
  135SAPE  H12B14569   1.055   1.231  10.665  0.6343 -0.3904  4.1678
  135SAPE   C1114570   1.029   1.032  10.649  0.3435  0.4307  0.3299
  135SAPE  H11A14571   0.962   1.058  10.563 -0.1445  0.5106  0.7285
  135SAPE  H11B14572   0.961   1.048  10.736 -0.6719 -0.7186 -0.2132
  135SAPE     P14573   0.997   0.780  10.657 -0.3320 -0.4272  0.2664
  135SAPE   O1314574   0.938   0.776  10.795 -0.2456 -0.1358 -0.1410
  135SAPE   O1414575   0.909   0.778  10.536  0.0619 -0.2403 -0.1768
  135SAPE   O1214576   1.086   0.903  10.637  0.4345 -0.6121  0.0012
  135SAPE   O1114577   1.100   0.666  10.631 -0.2120 -0.3166  0.7074
  135SAPE    C114578   1.186   0.602  10.720  0.0566  0.4345  0.5238
  135SAPE    HA14579   1.293   0.611  10.692  0.1079 -2.0514 -0.3404
  135SAPE    HB14580   1.180   0.651  10.819 -0.6705 -2.0832  1.8320
  135SAPE    C214581   1.165   0.455  10.739  0.2523 -0.1862 -0.4264
  135SAPE    HS14582   1.245   0.425  10.810  1.0718 -0.5238 -1.4499
  135SAPE   O2114583   1.169   0.386  10.611  0.0205  0.2101 -0.0330
  135SAPE   C2114584   1.286   0.363  10.570  0.5659  0.2483 -0.5033
  135SAPE   O2214585   1.389   0.381  10.636  0.0120  0.2539 -0.5512
  135SAPE   C2214586   1.284   0.298  10.430 -0.3415 -0.0766 -0.3765
  135SAPE   H2R14587   1.201   0.340  10.370 -0.3786  1.1538  0.4910
  135SAPE   H2S14588   1.379   0.333  10.384 -0.8853 -1.1979 -2.4745
  135SAPE    C314589   1.028   0.429  10.825  0.1068 -0.3416  0.3683
  135SAPE    HX14590   1.017   0.322  10.853  0.9351 -0.2652  1.0037
  135SAPE    HY14591   0.949   0.452  10.750 -0.5298 -0.6398  0.9348
  135SAPE   O3114592   1.005   0.510  10.942  0.9306  0.0437  0.2729
  135SAPE   C3114593   1.087   0.479  11.044  0.5431 -0.3662  0.0247
  135SAPE   O3214594   1.170   0.390  11.041 -0.1960 -0.2917  0.0418
  135SAPE   C3214595   1.053   0.572  11.166  0.3227 -0.2438 -0.0483
  135SAPE   H2X14596   0.987   0.657  11.137  0.7684  0.5662  1.2597
  135SAPE   H2Y14597   1.144   0.633  11.182  0.3210  0.5785 -2.6405
  135SAPE   C2314598   1.292   0.148  10.440  0.5465  0.4466 -0.5867
  135SAPE   H3R14599   1.215   0.120  10.515  2.0961  0.5191  1.0776
  135SAPE   H3S14600   1.384   0.116  10.492 -0.6908  0.0636  1.4875
  135SAPE   C2414601   1.279   0.081  10.300 -0.4458 -0.6406 -0.0116
  135SAPE   H4R14602   1.196   0.124  10.241  0.2365 -0.2828 -0.7223
  135SAPE   H4S14603   1.250  -0.023  10.327  1.1497 -0.7949  1.2895
  135SAPE   C2514604   1.410   0.085  10.225  0.1026  0.8536  0.6765
  135SAPE   H5R14605   1.470  -0.002  10.259 -3.1790 -1.1976  1.6760
  135SAPE   C2614606   1.443   0.148  10.114  0.4499 -0.5443  0.3651
  135SAPE   H6R14607   1.546   0.127  10.082  0.0212 -1.2014 -0.6118
  135SAPE   C2714608   1.361   0.246  10.027 -0.0571  0.4430 -0.3170
  135SAPE   H7R14609   1.274   0.273  10.091  0.3127 -0.1844  0.4706
  135SAPE   H7S14610   1.312   0.206   9.936 -1.7040  1.1239  0.2340
  135SAPE   C2814611   1.433   0.372   9.996  0.6055 -0.4279 -0.2924
  135SAPE   H8R14612   1.501   0.402  10.078  0.6194 -3.2578  0.8765
  135SAPE   C2914613   1.412   0.454   9.897 -0.6113  0.4809  0.2980
  135SAPE   H9R14614   1.482   0.538   9.899  2.2654 -1.7480  1.9297
  135SAPE  C21014615   1.331   0.430   9.772 -0.0948 -0.0271  0.1571
  135SAPE  H10R14616   1.329   0.525   9.715 -0.1881 -0.4303 -0.5211
  135SAPE  H10S14617   1.227   0.402   9.800 -0.1731  1.0701  1.0652
  135SAPE  C21114618   1.381   0.322   9.682 -0.4212  0.2417  0.6266
  135SAPE  H11R14619   1.454   0.249   9.721 -0.8350 -0.6208 -0.1743
  135SAPE  C21214620   1.361   0.317   9.546  0.0398 -0.7741 -0.1794
  135SAPE  H12R14621   1.389   0.233   9.480  1.2499 -0.3796 -0.1803
  135SAPE  C21314622   1.285   0.419   9.460 -0.0369  1.2858  0.3525
  135SAPE  H13R14623   1.206   0.473   9.518 -2.3429 -1.0882 -0.3785
  135SAPE  H13S14624   1.237   0.352   9.385  2.5465 -0.2505 -0.0490
  135SAPE  C21414625   1.390   0.506   9.395  0.1381 -0.7138  0.6551
  135SAPE  H14R14626   1.469   0.541   9.463  0.7044  0.2478 -0.4498
  135SAPE  C21514627   1.404   0.548   9.266  0.4768 -0.3519  0.6314
  135SAPE  H15R14628   1.481   0.623   9.241  0.2252 -0.3571 -0.1740
  135SAPE  C21614629   1.292   0.534   9.163 -0.2592  0.9137  0.4780
  135SAPE  H16R14630   1.194   0.574   9.194  0.0113  0.3798  2.1143
  135SAPE  H16S14631   1.272   0.425   9.156  1.4551  0.4948  1.4701
  135SAPE  C21714632   1.340   0.586   9.021  0.2822 -0.3894  0.0975
  135SAPE  H17R14633   1.351   0.696   9.015 -1.4763 -0.2468 -1.9209
  135SAPE  H17S14634   1.254   0.567   8.952 -1.0448 -1.1534  1.9013
  135SAPE  C21814635   1.454   0.515   8.952  0.0794  0.3662 -0.7114
  135SAPE  H18R14636   1.440   0.407   8.971  1.5001  0.4482  1.0101
  135SAPE  H18S14637   1.547   0.551   9.000 -0.1936  0.7709 -0.4758
  135SAPE  C21914638   1.459   0.544   8.800 -0.4635 -0.2932 -0.0944
  135SAPE  H19R14639   1.464   0.654   8.786 -1.6939 -0.0375  1.2383
  135SAPE  H19S14640   1.364   0.516   8.751 -0.5581  0.0975 -0.1404
  135SAPE  C22014641   1.580   0.477   8.734 -0.2778  0.4903 -0.4694
  135SAPE  H20R14642   1.573   0.366   8.733  2.6458  0.2227  0.1655
  135SAPE  H20S14643   1.663   0.491   8.805 -1.4273 -3.1172  1.8782
  135SAPE  H20T14644   1.610   0.503   8.630  0.7920 -1.6068 -0.7527
  135SAPE   C3314645   1.018   0.485  11.292  0.2651  0.0120  0.0118
  135SAPE   H3X14646   1.034   0.548  11.383  0.8957  0.7635 -0.6050
  135SAPE   H3Y14647   1.102   0.415  11.311 -0.2045 -0.8341 -0.9807
  135SAPE   C3414648   0.886   0.417  11.299  0.5784  0.8829  0.0533
  135SAPE   H4X14649   0.886   0.340  11.219  1.1899 -0.3678  1.2230
  135SAPE   H4Y14650   0.801   0.486  11.278 -0.6148 -1.0048 -1.7212
  135SAPE   C3514651   0.846   0.336  11.428  0.2542 -0.1277 -0.2161
  135SAPE   H5X14652   0.750   0.283  11.412  0.8508 -1.0421 -0.8655
  135SAPE   H5Y14653   0.834   0.418  11.502  2.7990  1.1642 -1.1140
  135SAPE   C3614654   0.946   0.230  11.481  1.0376 -0.9789  0.3684
  135SAPE   H6X14655   1.041   0.268  11.525  1.1556 -0.7407 -0.0782
  135SAPE   H6Y14656   0.963   0.167  11.391 -1.4783 -1.1487 -0.0761
  135SAPE   C3714657   0.867   0.145  11.583  0.1872  0.4300  0.0990
  135SAPE   H7X14658   0.759   0.132  11.558  0.1464  1.7747 -0.5437
  135SAPE   H7Y14659   0.871   0.193  11.683  0.3349 -1.1163  0.8643
  135SAPE   C3814660   0.923   0.001  11.601 -0.1203  0.0894 -0.3239
  135SAPE   H8X14661   1.032   0.022  11.588 -0.2436  0.0873 -1.4816
  135SAPE   H8Y14662   0.889  -0.076  11.528  2.3470 -1.0505 -0.3642
  135SAPE   C3914663   0.889  -0.060  11.736  0.6639 -0.2454  0.2738
  135SAPE   H9X14664   0.892  -0.171  11.746 -0.6174 -0.1671  2.1718
  135SAPE   H9Y14665   0.782  -0.032  11.739  0.7531  0.2517 -0.7628
  135SAPE  C31014666   0.975  -0.005  11.854 -0.4032 -0.4832  0.1416
  135SAPE  H10X14667   0.993   0.104  11.842  1.6368 -0.7588  0.4492
  135SAPE  H10Y14668   1.074  -0.051  11.834  0.1859  0.1269  1.5595
  135SAPE  C31114669   0.917  -0.022  11.995 -0.1766  0.3330 -0.1875
  135SAPE  H11X14670   0.821   0.033  12.005 -1.7573 -2.2821 -0.1499
  135SAPE  H11Y14671   0.983   0.035  12.064 -0.6915  0.7846 -0.0552
  135SAPE  C31214672   0.911  -0.166  12.039 -0.5042 -0.0466  0.1775
  135SAPE  H12X14673   1.014  -0.205  12.029 -0.2639  1.0924 -2.5266
  135SAPE  H12Y14674   0.841  -0.229  11.981 -0.4779 -2.1560  2.2781
  135SAPE  C31314675   0.868  -0.177  12.190  0.4290  0.0582  0.0254
  135SAPE  H13X14676   0.764  -0.139  12.204  0.7795  0.5208  1.4792
  135SAPE  H13Y14677   0.936  -0.116  12.252  0.2321  1.4934 -1.1203
  135SAPE  C31414678   0.860  -0.314  12.256 -0.5161 -0.0714 -0.9097
  135SAPE  H14X14679   0.961  -0.356  12.241 -0.4253  0.1604 -0.9427
  135SAPE  H14Y14680   0.772  -0.375  12.227 -3.4588  1.8655  2.8615
  135SAPE  C31514681   0.851  -0.299  12.413  0.3672  0.0446 -0.3345
  135SAPE  H15X14682   0.949  -0.263  12.451  0.0240  0.6235  0.0165
  135SAPE  H15Y14683   0.845  -0.401  12.457 -1.8837 -0.9417 -2.6818
  135SAPE  C31614684   0.722  -0.228  12.453 -0.7227 -0.2148 -0.2269
  135SAPE  H16X14685   0.640  -0.261  12.385 -0.0053 -1.8576 -0.3397
  135SAPE  H16Y14686   0.748  -0.120  12.450 -1.6201  0.0101 -0.3389
  135SAPE  C31714687   0.675  -0.269  12.594 -0.6579  0.2344 -0.3191
  135SAPE  H17X14688   0.636  -0.373  12.581 -1.8371  0.2616  2.2498
  135SAPE  H17Y14689   0.580  -0.215  12.613 -0.8060 -0.9071  2.8894
  135SAPE  C31814690   0.775  -0.263  12.711 -0.2037 -0.0247 -0.6722
  135SAPE  H18X14691   0.861  -0.197  12.685 -1.7199  1.8493 -1.1914
  135SAPE  H18Y14692   0.814  -0.364  12.736  0.0012 -0.7261 -3.5418
  135SAPE  H18Z14693   0.727  -0.222  12.803  1.1777  2.5452 -0.9834
  136SAPE     N14694   3.267   5.985  11.206  0.0306  0.8941  0.1426
  136SAPE   HN114695   3.266   5.882  11.222  0.9939  0.8634  0.0219
  136SAPE   HN214696   3.344   6.014  11.269  0.0899 -0.3242  0.6523
  136SAPE   HN314697   3.177   6.027  11.238  0.0287  0.9004  0.1285
  136SAPE   C1214698   3.294   6.033  11.067 -0.6335  0.0362  0.0888
  136SAPE  H12A14699   3.292   6.144  11.059 -1.6638  0.2045  2.0426
  136SAPE  H12B14700   3.219   5.985  11.000  1.0897 -2.7826 -0.0200
  136SAPE   C1114701   3.434   5.994  11.020  0.7111  0.5175  0.1014
  136SAPE  H11A14702   3.440   6.017  10.912  1.8437 -1.6000 -0.3503
  136SAPE  H11B14703   3.449   5.885  11.037 -1.3098  0.4828  2.2290
  136SAPE     P14704   3.681   6.034  11.101 -0.4707 -0.3721 -0.0795
  136SAPE   O1314705   3.758   6.152  11.147  0.0975 -0.1784 -0.0189
  136SAPE   O1414706   3.706   5.903  11.168 -0.2493 -0.3848 -0.2280
  136SAPE   O1214707   3.529   6.068  11.105 -0.6154 -0.1328 -0.3118
  136SAPE   O1114708   3.708   6.009  10.953  0.8738  0.2935 -0.1480
  136SAPE    C114709   3.684   5.882  10.890 -0.7225 -0.0376  0.1981
  136SAPE    HA14710   3.744   5.802  10.939 -1.3730 -0.5399  0.1905
  136SAPE    HB14711   3.578   5.854  10.873 -0.2510  0.1605 -4.1181
  136SAPE    C214712   3.737   5.883  10.746  0.1625  0.2383 -0.0118
  136SAPE    HS14713   3.847   5.899  10.753  0.4779 -1.4986 -0.3833
  136SAPE   O2114714   3.695   5.993  10.667  0.5289  0.0686  0.5154
  136SAPE   C2114715   3.770   6.107  10.666  0.3690 -0.6717  0.1037
  136SAPE   O2214716   3.870   6.126  10.732 -0.4628 -0.4420  0.1907
  136SAPE   C2214717   3.706   6.198  10.566 -0.0825 -0.6218  0.5719
  136SAPE   H2R14718   3.649   6.140  10.490 -0.6632 -0.3787  0.8167
  136SAPE   H2S14719   3.629   6.261  10.615 -2.1087 -1.7478 -0.9904
  136SAPE    C314720   3.715   5.750  10.673 -0.1499 -0.0177 -0.1709
  136SAPE    HX14721   3.614   5.708  10.693  0.9793 -2.6142  0.5346
  136SAPE    HY14722   3.783   5.682  10.730 -0.6962 -0.8613 -0.5039
  136SAPE   O3114723   3.751   5.758  10.533  0.3006 -0.3445 -0.2885
  136SAPE   C3114724   3.659   5.804  10.456  0.1827  0.0793  0.2536
  136SAPE   O3214725   3.540   5.813  10.484  0.1476  0.4295 -0.3855
  136SAPE   C3214726   3.727   5.855  10.329 -0.2225  0.1872  0.8022
  136SAPE   H2X14727   3.837   5.849  10.341  0.0619 -0.3395 -1.5455
  136SAPE   H2Y14728   3.690   5.959  10.322  1.6406  0.8108 -0.7739
  136SAPE   C2314729   3.798   6.296  10.478 -0.8460 -0.0660  0.9415
  136SAPE   H3R14730   3.857   6.366  10.542 -0.9271  0.8332  0.0457
  136SAPE   H3S14731   3.728   6.341  10.405  1.5323  0.4083 -1.1675
  136SAPE   C2414732   3.903   6.210  10.398  0.3441 -0.7244 -0.1112
  136SAPE   H4R14733   3.845   6.128  10.349  0.3505  0.2505 -1.8421
  136SAPE   H4S14734   3.981   6.155  10.455  1.2880 -0.0164 -0.6876
  136SAPE   C2514735   3.976   6.294  10.297 -0.0163 -0.7085  0.9483
  136SAPE   H5R14736   4.059   6.344  10.350 -1.4136  2.1002  0.6680
  136SAPE   C2614737   3.938   6.323  10.166  0.6424 -0.1730  0.7543
  136SAPE   H6R14738   3.996   6.389  10.100 -1.6048  2.7099  1.4508
  136SAPE   C2714739   3.818   6.257  10.099  0.1954 -0.0737 -0.0548
  136SAPE   H7R14740   3.762   6.339  10.050  3.4505  1.6828 -1.1605
  136SAPE   H7S14741   3.764   6.191  10.169  3.0090 -0.9710  1.4256
  136SAPE   C2814742   3.859   6.163   9.991  0.2402 -0.5850  0.7073
  136SAPE   H8R14743   3.940   6.093  10.016 -1.2656 -2.3274  0.9014
  136SAPE   C2914744   3.806   6.159   9.863 -0.6915  0.3538 -0.5921
  136SAPE   H9R14745   3.844   6.079   9.797  0.6531 -0.4530  1.0944
  136SAPE  C21014746   3.707   6.262   9.802  0.2541 -0.5945 -0.0391
  136SAPE  H10R14747   3.641   6.307   9.879  1.0774  1.2531 -0.3491
  136SAPE  H10S14748   3.631   6.204   9.745 -1.0089  0.5615  0.4085
  136SAPE  C21114749   3.782   6.378   9.735  0.5808  0.3358  0.5293
  136SAPE  H11R14750   3.818   6.448   9.813  0.9701  1.5767 -0.7149
  136SAPE  C21214751   3.795   6.407   9.604 -0.5083  0.4178 -0.4007
  136SAPE  H12R14752   3.840   6.500   9.564  1.1331 -0.2434 -0.1705
  136SAPE  C21314753   3.728   6.311   9.507  0.2994 -0.6110 -0.5032
  136SAPE  H13R14754   3.623   6.302   9.541 -0.0753  1.0129 -1.1225
  136SAPE  H13S14755   3.778   6.213   9.516  2.4731  0.4971  0.0871
  136SAPE  C21414756   3.723   6.353   9.356 -0.3387  0.0380  0.3968
  136SAPE  H14R14757   3.783   6.442   9.333  0.1403 -0.0175  1.3824
  136SAPE  C21514758   3.681   6.269   9.258  0.0211  0.0111 -0.1677
  136SAPE  H15R14759   3.669   6.315   9.159  3.1626  2.6045  0.4794
  136SAPE  C21614760   3.624   6.134   9.290 -0.0154  0.3872  0.7044
  136SAPE  H16R14761   3.519   6.123   9.253  0.7335 -3.2306 -0.8320
  136SAPE  H16S14762   3.626   6.101   9.396 -0.0343 -1.3369  0.2020
  136SAPE  C21714763   3.717   6.035   9.223  0.4510 -0.4919 -0.7153
  136SAPE  H17R14764   3.816   6.047   9.274 -0.7287 -1.2150  1.9508
  136SAPE  H17S14765   3.730   6.043   9.113  3.7463  0.3327 -0.3956
  136SAPE  C21814766   3.670   5.895   9.252 -0.0628 -0.0354  0.0966
  136SAPE  H18R14767   3.574   5.883   9.198 -0.9442  1.7785  1.1495
  136SAPE  H18S14768   3.661   5.881   9.362  1.7680 -0.4731  0.2225
  136SAPE  C21914769   3.762   5.774   9.210  0.0830  0.2143  0.0866
  136SAPE  H19R14770   3.748   5.690   9.281 -0.5209 -0.6990 -1.0743
  136SAPE  H19S14771   3.868   5.806   9.215  0.6073 -1.2958 -0.7868
  136SAPE  C22014772   3.730   5.722   9.076  0.6584 -0.1915  0.0154
  136SAPE  H20R14773   3.759   5.795   8.998  0.0249 -0.4473 -0.4703
  136SAPE  H20S14774   3.621   5.712   9.057  0.9941  0.4335 -2.7270
  136SAPE  H20T14775   3.776   5.621   9.067 -1.2297 -1.2198  1.2744
  136SAPE   C3314776   3.693   5.785  10.195 -0.0304 -0.4006  0.2766
  136SAPE   H3X14777   3.600   5.837  10.163  0.7155  1.3153  0.7620
  136SAPE   H3Y14778   3.667   5.678  10.210 -1.7884  0.2491  2.7218
  136SAPE   C3414779   3.804   5.791  10.087  0.1152 -1.0550 -0.0674
  136SAPE   H4X14780   3.881   5.715  10.112 -0.7037 -1.8070  0.2105
  136SAPE   H4Y14781   3.849   5.893  10.090 -2.7236  0.4145 -2.3183
  136SAPE   C3514782   3.746   5.760   9.953 -0.1385  0.4726  0.1572
  136SAPE   H5X14783   3.707   5.861   9.928 -0.0414  0.1989 -1.1895
  136SAPE   H5Y14784   3.664   5.686   9.948 -1.9669  2.4944 -1.2704
  136SAPE   C3614785   3.852   5.728   9.845  0.2020  0.3454 -0.8406
  136SAPE   H6X14786   3.914   5.646   9.887  0.6636  1.2187  0.2306
  136SAPE   H6Y14787   3.917   5.818   9.841 -0.3902  0.7443 -2.3419
  136SAPE   C3714788   3.804   5.696   9.704 -0.5160  0.6014 -0.1370
  136SAPE   H7X14789   3.715   5.758   9.684 -0.6242 -0.2259 -2.6973
  136SAPE   H7Y14790   3.767   5.592   9.690  1.2957  0.0367 -1.1995
  136SAPE   C3814791   3.907   5.735   9.601 -0.6017  0.6461 -0.2384
  136SAPE   H8X14792   3.937   5.840   9.619 -0.4736  0.4184  0.9198
  136SAPE   H8Y14793   3.862   5.718   9.501  2.6739 -0.8961 -1.6086
  136SAPE   C3914794   4.022   5.628   9.611 -0.2487 -0.5423  0.0014
  136SAPE   H9X14795   3.988   5.522   9.605 -2.8554  0.3044 -2.0178
  136SAPE   H9Y14796   4.055   5.640   9.716 -0.0328  1.0601 -0.2279
  136SAPE  C31014797   4.152   5.651   9.530 -0.3111  0.2610 -0.8389
  136SAPE  H10X14798   4.242   5.589   9.549 -0.0103  0.1221 -2.5279
  136SAPE  H10Y14799   4.176   5.757   9.553  0.8638 -0.1410 -0.1352
  136SAPE  C31114800   4.121   5.640   9.378 -0.4428  0.4545  0.1765
  136SAPE  H11X14801   4.209   5.660   9.313 -1.1796  1.4273 -0.5431
  136SAPE  H11Y14802   4.059   5.730   9.364 -0.7763  0.6545  2.4346
  136SAPE  C31214803   4.052   5.509   9.335 -0.3398 -0.0261 -0.6511
  136SAPE  H12X14804   3.952   5.513   9.383  0.2460  3.6037  0.5609
  136SAPE  H12Y14805   4.117   5.427   9.373 -0.0373  1.1353  1.4885
  136SAPE  C31314806   4.023   5.504   9.183 -0.1622  0.3485  0.3922
  136SAPE  H13X14807   4.119   5.494   9.128 -1.2847 -3.0805 -1.2625
  136SAPE  H13Y14808   3.973   5.599   9.153  0.0748  0.1875 -0.5373
  136SAPE  C31414809   3.935   5.382   9.157  0.0627  0.8265  0.0307
  136SAPE  H14X14810   3.829   5.381   9.190  0.0554 -1.5749  0.0816
  136SAPE  H14Y14811   3.978   5.304   9.224 -2.4479  0.9435  1.9400
  136SAPE  C31514812   3.959   5.327   9.021 -0.7636 -0.1846  0.2230
  136SAPE  H15X14813   4.069   5.319   9.002 -0.2090  3.2720  1.3114
  136SAPE  H15Y14814   3.926   5.400   8.945 -1.1410 -0.9740 -0.3886
  136SAPE  C31614815   3.899   5.177   9.003 -0.1829 -0.3856  0.5547
  136SAPE  H16X14816   3.791   5.177   9.025 -0.3956 -3.3077 -0.0368
  136SAPE  H16Y14817   3.955   5.119   9.080 -1.4934  0.1677  1.9729
  136SAPE  C31714818   3.897   5.129   8.857  0.1556 -0.0348  0.9237
  136SAPE  H17X14819   3.821   5.190   8.803  1.2875 -1.5578 -2.6739
  136SAPE  H17Y14820   3.875   5.020   8.854 -1.1568  0.2247 -1.1626
  136SAPE  C31814821   4.032   5.145   8.782 -0.2666 -0.1902  0.2649
  136SAPE  H18X14822   4.052   5.253   8.768  0.8380  0.0012  2.7205
  136SAPE  H18Y14823   4.025   5.104   8.679 -0.1804 -2.1296  0.9776
  136SAPE  H18Z14824   4.114   5.100   8.842  0.1522 -1.4227 -1.1843
  137SAPE     N14825   1.350   1.552  10.992  0.1079  0.1747 -0.2785
  137SAPE   HN114826   1.439   1.552  11.045 -0.0565 -0.8514  0.0157
  137SAPE   HN214827   1.300   1.469  11.029  3.2795 -1.5564  0.4507
  137SAPE   HN314828   1.377   1.532  10.893 -0.3939 -0.2247 -0.3436
  137SAPE   C1214829   1.275   1.677  11.005 -0.7427  0.3897 -0.0669
  137SAPE  H12A14830   1.261   1.699  11.113  0.1747 -1.2757  0.4115
  137SAPE  H12B14831   1.174   1.664  10.961 -0.7450 -0.7720  0.2520
  137SAPE   C1114832   1.348   1.778  10.913  0.2679  0.1673 -0.3145
  137SAPE  H11A14833   1.281   1.865  10.896  1.3192  0.6517 -2.2216
  137SAPE  H11B14834   1.354   1.733  10.812 -0.1448 -2.9812  0.9437
  137SAPE     P14835   1.609   1.843  10.894 -0.2969  0.3188  0.1781
  137SAPE   O1314836   1.672   1.961  10.949 -0.2684 -0.7728  0.6327
  137SAPE   O1414837   1.693   1.721  10.898 -0.3774  0.2654  0.3062
  137SAPE   O1214838   1.469   1.823  10.977 -0.3877  0.3395  0.1970
  137SAPE   O1114839   1.565   1.877  10.746  0.8266 -0.5348 -0.5133
  137SAPE    C114840   1.592   2.011  10.687  0.4433  0.3318  0.7808
  137SAPE    HA14841   1.681   2.064  10.727  0.7305  0.8941 -0.5646
  137SAPE    HB14842   1.608   1.990  10.579  0.5976 -0.6645  0.9920
  137SAPE    C214843   1.471   2.113  10.692  0.2326  0.2259 -0.1964
  137SAPE    HS14844   1.458   2.139  10.799  0.9945  0.7019 -0.2044
  137SAPE   O2114845   1.354   2.043  10.641  0.1349 -0.5322 -0.4060
  137SAPE   C2114846   1.243   2.055  10.711 -0.0263 -0.0108  1.4728
  137SAPE   O2214847   1.228   2.111  10.815  0.6018  0.8144 -0.3247
  137SAPE   C2214848   1.134   2.001  10.622  0.9181  0.6371  0.4531
  137SAPE   H2R14849   1.183   1.958  10.532  1.1640 -1.6480  1.6076
  137SAPE   H2S14850   1.106   1.906  10.672  2.6941 -0.4271 -0.4584
  137SAPE    C314851   1.503   2.239  10.609  0.1946  0.8921 -0.5093
  137SAPE    HX14852   1.600   2.275  10.651  0.9028 -0.0181 -1.3208
  137SAPE    HY14853   1.418   2.306  10.635 -0.5648 -0.0280 -0.5680
  137SAPE   O3114854   1.518   2.209  10.472 -0.4069 -0.0455  0.5427
  137SAPE   C3114855   1.405   2.204  10.407 -0.5000  0.1487  0.3361
  137SAPE   O3214856   1.297   2.238  10.448 -0.1251 -0.7333  0.3689
  137SAPE   C3214857   1.423   2.136  10.276  0.3373  0.2563 -0.3536
  137SAPE   H2X14858   1.415   2.032  10.314  0.0182  0.8639  1.3241
  137SAPE   H2Y14859   1.529   2.154  10.247  0.1600  1.5326 -0.2447
  137SAPE   C2314860   1.010   2.095  10.594 -0.0214 -0.0384 -0.1670
  137SAPE   H3R14861   1.045   2.170  10.520 -0.3789  2.5504  2.0908
  137SAPE   H3S14862   0.987   2.153  10.686  0.0884 -2.2419  1.3331
  137SAPE   C2414863   0.884   2.017  10.539  0.3285 -0.2305 -0.0018
  137SAPE   H4R14864   0.840   1.945  10.611 -0.2585 -0.3571 -0.4750
  137SAPE   H4S14865   0.931   1.947  10.467 -0.3207 -1.5635  0.8294
  137SAPE   C2514866   0.771   2.099  10.479  0.6198 -0.8297 -0.3897
  137SAPE   H5R14867   0.738   2.183  10.543  1.1327 -0.7687 -0.2051
  137SAPE   C2614868   0.719   2.089  10.354 -0.3116  0.5204 -0.0806
  137SAPE   H6R14869   0.633   2.154  10.331 -0.7963  0.1879  0.7737
  137SAPE   C2714870   0.762   1.988  10.243  0.1556  0.2007 -0.5087
  137SAPE   H7R14871   0.719   1.890  10.273 -1.7291  0.9919 -0.4377
  137SAPE   H7S14872   0.869   1.962  10.250 -0.0148 -0.3031  0.4549
  137SAPE   C2814873   0.736   2.033  10.100 -0.0769 -0.8389 -0.0244
  137SAPE   H8R14874   0.756   2.139  10.079  2.5977 -1.4490 -0.9020
  137SAPE   C2914875   0.687   1.952   9.999  0.2597 -0.3734 -0.4827
  137SAPE   H9R14876   0.666   1.990   9.898 -2.1226 -1.0843 -0.3211
  137SAPE  C21014877   0.664   1.800   9.996  0.1151 -0.3372  0.2157
  137SAPE  H10R14878   0.685   1.759  10.097 -1.9639  2.0221  1.7366
  137SAPE  H10S14879   0.744   1.769   9.925 -0.6889  2.4371 -2.1366
  137SAPE  C21114880   0.529   1.759   9.939 -0.4408 -0.2591 -0.1173
  137SAPE  H11R14881   0.451   1.729  10.011  0.0390 -2.4086 -0.4347
  137SAPE  C21214882   0.502   1.742   9.805 -0.2106 -0.5257  0.0656
  137SAPE  H12R14883   0.398   1.719   9.776  0.1151 -0.8820 -0.8420
  137SAPE  C21314884   0.589   1.776   9.683  0.1654  0.3082  0.6057
  137SAPE  H13R14885   0.600   1.686   9.618  1.5038  1.7240 -1.2268
  137SAPE  H13S14886   0.686   1.809   9.724  0.0282  0.1197  1.0897
  137SAPE  C21414887   0.529   1.887   9.606  0.3718  0.3946  0.1626
  137SAPE  H14R14888   0.487   1.969   9.667  2.2590 -0.6074  3.0541
  137SAPE  C21514889   0.534   1.920   9.477 -0.4275 -0.1894  0.4368
  137SAPE  H15R14890   0.500   2.020   9.447 -0.6576 -0.9061 -1.8504
  137SAPE  C21614891   0.609   1.834   9.369  0.3333  0.1332  0.2193
  137SAPE  H16R14892   0.626   1.736   9.418 -1.4369  1.2035  3.2857
  137SAPE  H16S14893   0.700   1.887   9.333  0.1470 -1.7859 -3.5451
  137SAPE  C21714894   0.525   1.826   9.244 -0.1676 -0.0048  0.1380
  137SAPE  H17R14895   0.428   1.774   9.262 -0.5706 -0.1190 -2.0890
  137SAPE  H17S14896   0.578   1.750   9.183 -2.5268 -1.6382 -0.0390
  137SAPE  C21814897   0.503   1.957   9.166  0.6918 -0.0143 -0.3791
  137SAPE  H18R14898   0.601   2.001   9.137  1.7370 -1.2847  1.0123
  137SAPE  H18S14899   0.448   2.031   9.228 -0.0096 -1.0528  0.2565
  137SAPE  C21914900   0.406   1.930   9.047 -0.7258 -0.4298  0.3806
  137SAPE  H19R14901   0.360   2.030   9.033  0.0974  0.0682  1.1461
  137SAPE  H19S14902   0.322   1.867   9.083  0.4541 -1.6574  1.0849
  137SAPE  C22014903   0.500   1.888   8.928  0.2403 -0.6687  0.1646
  137SAPE  H20R14904   0.588   1.953   8.908  0.5085 -0.4249  1.9473
  137SAPE  H20S14905   0.439   1.881   8.835  1.5943  1.0183 -0.9073
  137SAPE  H20T14906   0.538   1.786   8.950  2.4681 -0.0219 -0.3842
  137SAPE   C3314907   1.322   2.185  10.175  0.3082 -0.1238  0.2205
  137SAPE   H3X14908   1.302   2.294  10.174  1.3109  0.0951 -2.3207
  137SAPE   H3Y14909   1.224   2.139  10.202  0.6862 -1.1893 -0.1405
  137SAPE   C3414910   1.363   2.145  10.034  0.1865 -0.7897  1.1880
  137SAPE   H4X14911   1.371   2.035  10.018 -0.1972 -0.8545  1.4394
  137SAPE   H4Y14912   1.457   2.196  10.004 -1.1321 -0.3276 -2.5749
  137SAPE   C3514913   1.254   2.185   9.933 -0.4210 -0.2592  0.3655
  137SAPE   H5X14914   1.233   2.291   9.960  1.0015  0.3028 -0.6044
  137SAPE   H5Y14915   1.161   2.130   9.959  1.2700 -3.3609  0.2694
  137SAPE   C3614916   1.281   2.174   9.782  0.4135 -0.6656 -0.4826
  137SAPE   H6X14917   1.308   2.068   9.760 -2.1337 -1.3532 -0.5937
  137SAPE   H6Y14918   1.370   2.238   9.761 -2.0771  2.2661 -3.1313
  137SAPE   C3714919   1.149   2.214   9.714 -0.1560  0.1949  0.0044
  137SAPE   H7X14920   1.129   2.319   9.745 -1.3559  0.2774 -0.9969
  137SAPE   H7Y14921   1.075   2.142   9.755  1.4512 -0.8919  1.1157
  137SAPE   C3814922   1.132   2.223   9.559  0.2600  0.2618 -0.5344
  137SAPE   H8X14923   1.027   2.249   9.538 -0.1115 -1.6577 -1.2311
  137SAPE   H8Y14924   1.152   2.124   9.514  1.7156 -0.2041  0.9951
  137SAPE   C3914925   1.227   2.325   9.501 -0.0021  0.0399  0.2291
  137SAPE   H9X14926   1.327   2.309   9.547  0.3081  2.0562  0.3698
  137SAPE   H9Y14927   1.178   2.422   9.522  0.4908  0.8702 -2.1365
  137SAPE  C31014928   1.241   2.316   9.340  0.5746  0.2473 -0.4901
  137SAPE  H10X14929   1.153   2.355   9.284  0.8675 -2.0454 -2.7346
  137SAPE  H10Y14930   1.243   2.208   9.313 -2.5338 -0.6190  2.0551
  137SAPE  C31114931   1.360   2.387   9.282 -0.0261 -0.3666 -0.5632
  137SAPE  H11X14932   1.458   2.342   9.311  0.7794  0.8653 -1.2784
  137SAPE  H11Y14933   1.359   2.488   9.329 -0.7013 -0.4005 -0.4996
  137SAPE  C31214934   1.356   2.403   9.123  0.0589  0.1491 -0.6887
  137SAPE  H12X14935   1.446   2.454   9.083 -0.3095  0.4994 -1.0759
  137SAPE  H12Y14936   1.272   2.474   9.106  0.3621  0.9634  0.9793
  137SAPE  C31314937   1.329   2.263   9.061  0.1036  0.3307  0.1692
  137SAPE  H13X14938   1.220   2.243   9.061 -0.0980  1.3583  1.1585
  137SAPE  H13Y14939   1.381   2.190   9.128  0.2993 -0.2896 -0.6397
  137SAPE  C31414940   1.386   2.255   8.917 -0.6181 -0.2872  0.4232
  137SAPE  H14X14941   1.362   2.155   8.875  1.7135 -0.0711 -1.6407
  137SAPE  H14Y14942   1.494   2.274   8.934 -0.5110 -0.6426  0.1387
  137SAPE  C31514943   1.325   2.363   8.824 -0.2075 -0.8562  1.0082
  137SAPE  H15X14944   1.320   2.465   8.868 -2.3811 -1.0429  1.3357
  137SAPE  H15Y14945   1.216   2.342   8.813 -0.5202  1.2788 -0.7703
  137SAPE  C31614946   1.388   2.363   8.686  0.0955  0.0436  0.0311
  137SAPE  H16X14947   1.489   2.409   8.691  1.1158 -2.1164  0.5832
  137SAPE  H16Y14948   1.328   2.434   8.626 -0.8213 -1.9605 -1.5238
  137SAPE  C31714949   1.396   2.227   8.608 -0.2877 -0.2912  0.7595
  137SAPE  H17X14950   1.298   2.177   8.592 -0.9317  1.0065  0.5008
  137SAPE  H17Y14951   1.446   2.156   8.677 -0.9466 -0.0961  1.4548
  137SAPE  C31814952   1.467   2.250   8.472  0.4936  0.4471 -0.2696
  137SAPE  H18X14953   1.433   2.175   8.397  0.0112  0.0842  0.2976
  137SAPE  H18Y14954   1.578   2.241   8.479  0.3133 -1.9801  0.8161
  137SAPE  H18Z14955   1.445   2.349   8.428  2.1362  1.6348  1.4191
  138SAPE     N14956   3.271   2.349  10.822 -0.3390  0.2451 -0.2376
  138SAPE   HN114957   3.177   2.316  10.855 -0.8490  1.8874  0.0515
  138SAPE   HN214958   3.335   2.352  10.904 -0.9790 -3.4194  0.5844
  138SAPE   HN314959   3.256   2.442  10.778 -2.2616  0.9076  1.5944
  138SAPE   C1214960   3.341   2.256  10.725  0.5302  0.2365  0.2273
  138SAPE  H12A14961   3.292   2.253  10.626 -0.1165  0.1176  0.5450
  138SAPE  H12B14962   3.339   2.151  10.763 -0.6317 -0.7006 -2.2286
  138SAPE   C1114963   3.487   2.292  10.702  1.3354  0.0009 -0.4748
  138SAPE  H11A14964   3.500   2.380  10.635  0.9895  0.0510 -0.4758
  138SAPE  H11B14965   3.539   2.206  10.653  2.8872 -1.1432  2.8375
  138SAPE     P14966   3.672   2.224  10.878 -0.0034 -0.6436  0.2234
  138SAPE   O1314967   3.742   2.294  10.987 -0.3421  0.3548 -0.5796
  138SAPE   O1414968   3.625   2.090  10.920 -0.3521  0.7620  0.3129
  138SAPE   O1214969   3.550   2.315  10.828 -0.5099 -0.1672 -0.3001
  138SAPE   O1114970   3.768   2.206  10.753 -0.5835 -0.5683  0.0708
  138SAPE    C114971   3.813   2.321  10.689  0.0400  0.0871  0.0231
  138SAPE    HA14972   3.753   2.413  10.706 -1.0662 -0.6987  0.5211
  138SAPE    HB14973   3.920   2.348  10.707 -0.0485  3.9225 -3.6942
  138SAPE    C214974   3.829   2.286  10.539  0.6748 -0.1828  0.3152
  138SAPE    HS14975   3.722   2.281  10.510  0.9521 -1.2951 -0.5845
  138SAPE   O2114976   3.885   2.151  10.515 -0.0831 -0.1746 -0.0514
  138SAPE   C2114977   3.841   2.097  10.404 -0.0355 -0.4955  0.7367
  138SAPE   O2214978   3.758   2.145  10.327  0.4689  0.4568 -0.6411
  138SAPE   C2214979   3.928   1.970  10.391 -0.0932 -0.2634  0.6217
  138SAPE   H2R14980   4.034   1.999  10.375 -0.1798 -0.2358  0.0780
  138SAPE   H2S14981   3.923   1.913  10.486 -0.0375 -0.4329  0.5223
  138SAPE    C314982   3.897   2.393  10.464  0.1021 -0.7539 -0.2994
  138SAPE    HX14983   3.906   2.367  10.356 -0.6781  1.0029 -0.8311
  138SAPE    HY14984   4.000   2.385  10.503 -0.3642 -1.8535  0.7306
  138SAPE   O3114985   3.835   2.520  10.487 -0.1698  0.3981 -0.2237
  138SAPE   C3114986   3.919   2.625  10.472 -0.0762  0.5444 -0.3377
  138SAPE   O3214987   4.028   2.622  10.419  0.0758 -0.6117 -0.2834
  138SAPE   C3214988   3.849   2.751  10.514 -0.2231 -0.6910 -0.5660
  138SAPE   H2X14989   3.830   2.753  10.623  3.2945  0.4066  0.1773
  138SAPE   H2Y14990   3.753   2.752  10.458  0.5271 -0.8723 -1.9259
  138SAPE   C2314991   3.883   1.879  10.268  0.1438 -0.6090 -0.0503
  138SAPE   H3R14992   3.862   1.941  10.178  0.1819 -1.9509 -1.0307
  138SAPE   H3S14993   3.790   1.826  10.297  0.8296 -1.3812  0.8049
  138SAPE   C2414994   3.983   1.768  10.221  1.0366  0.1838  0.1704
  138SAPE   H4R14995   3.932   1.741  10.126  0.3550  0.3882  0.4734
  138SAPE   H4S14996   3.972   1.676  10.282 -0.8822  0.2080 -0.0909
  138SAPE   C2514997   4.125   1.806  10.200 -0.3672 -0.0559 -0.0537
  138SAPE   H5R14998   4.166   1.850  10.292 -1.7977  0.3316  0.4284
  138SAPE   C2614999   4.195   1.806  10.086  0.3742  0.1092  0.2771
  138SAPE   H6R15000   4.297   1.845  10.090 -0.1948  1.5282  2.0160
  138SAPE   C2715001   4.164   1.767   9.944  0.4710 -0.0638 -1.1542
  138SAPE   H7R15002   4.171   1.656   9.945 -1.6388 -0.2291  0.0187
  138SAPE   H7S15003   4.251   1.784   9.877  0.4670 -0.0335 -1.1521
  138SAPE   C2815004   4.034   1.810   9.884 -0.1076 -0.1448 -0.3740
  138SAPE   H8R15005   3.983   1.891   9.938 -0.8347 -1.2988  0.7243
  138SAPE   C2915006   3.975   1.759   9.778 -0.3830  0.0703  0.3698
  138SAPE   H9R15007   3.879   1.802   9.748 -1.1731 -1.4025  0.7081
  138SAPE  C21015008   4.030   1.646   9.693  0.0808  0.1483 -0.0419
  138SAPE  H10R15009   4.135   1.631   9.725  0.1269  1.5057  0.5331
  138SAPE  H10S15010   4.043   1.683   9.589  1.5499 -1.7567 -0.5900
  138SAPE  C21115011   3.963   1.507   9.694  0.2676 -0.2599 -1.0113
  138SAPE  H11R15012   3.932   1.459   9.788  0.6953 -1.1619 -1.3162
  138SAPE  C21215013   3.936   1.434   9.590 -0.0943  0.5477  0.2361
  138SAPE  H12R15014   3.898   1.332   9.599  0.5455  0.3115  0.3463
  138SAPE  C21315015   3.983   1.481   9.451  0.6391  0.3074 -0.3937
  138SAPE  H13R15016   4.091   1.504   9.449  0.6949 -0.0016 -1.5513
  138SAPE  H13S15017   3.928   1.578   9.443 -0.3418 -0.0017  1.8115
  138SAPE  C21415018   3.949   1.380   9.346  0.4741  0.1889  0.3359
  138SAPE  H14R15019   3.918   1.275   9.363  1.0989 -0.3557 -1.5398
  138SAPE  C21515020   3.978   1.409   9.224 -0.0888  0.6308 -0.4172
  138SAPE  H15R15021   3.963   1.321   9.159 -0.9518  0.2084  0.3460
  138SAPE  C21615022   4.046   1.537   9.174  0.5253  0.5706  0.3412
  138SAPE  H16R15023   4.150   1.525   9.138 -0.0246 -0.5058 -0.9973
  138SAPE  H16S15024   4.067   1.612   9.252  0.9276  1.1934 -0.3546
  138SAPE  C21715025   3.956   1.597   9.057  0.2712  0.5748 -0.1468
  138SAPE  H17R15026   3.933   1.538   8.965 -0.7577  1.1942 -0.3024
  138SAPE  H17S15027   4.013   1.690   9.038 -0.3379  1.2088  1.0741
  138SAPE  C21815028   3.812   1.638   9.102  0.1460 -0.2740  0.1175
  138SAPE  H18R15029   3.829   1.704   9.190 -0.3642 -2.2603  1.7919
  138SAPE  H18S15030   3.756   1.547   9.134 -3.8801  1.6378 -0.8982
  138SAPE  C21915031   3.724   1.708   8.994  0.3468  0.3659  0.5872
  138SAPE  H19R15032   3.702   1.654   8.900 -0.0813  2.4897 -0.6078
  138SAPE  H19S15033   3.775   1.801   8.963  0.5834  0.9286  2.5344
  138SAPE  C22015034   3.585   1.747   9.044  0.1855 -0.6187  0.4911
  138SAPE  H20R15035   3.590   1.814   9.132 -1.8800 -0.4382  0.5079
  138SAPE  H20S15036   3.520   1.664   9.079  0.0529 -1.4250 -1.5239
  138SAPE  H20T15037   3.533   1.790   8.956 -0.3324  1.0973  1.5859
  138SAPE   C3315038   3.931   2.876  10.480  0.1454 -0.7993 -0.4403
  138SAPE   H3X15039   3.956   2.880  10.372 -0.7089  1.9902 -0.6220
  138SAPE   H3Y15040   4.028   2.875  10.533 -0.3388  2.4799  0.7170
  138SAPE   C3415041   3.879   3.015  10.526 -0.1658  0.0283  0.0825
  138SAPE   H4X15042   3.889   3.016  10.636  0.8635 -2.9257  0.0940
  138SAPE   H4Y15043   3.775   3.033  10.490 -0.0334  1.8452  0.5020
  138SAPE   C3515044   3.958   3.140  10.472 -0.4203 -0.1506 -0.5309
  138SAPE   H5X15045   4.065   3.125  10.498 -0.6921  1.2639  1.7042
  138SAPE   H5Y15046   3.919   3.229  10.527 -0.8239  0.4575 -1.7715
  138SAPE   C3615047   3.968   3.165  10.318 -0.0723 -0.0425 -0.3975
  138SAPE   H6X15048   4.024   3.081  10.272 -1.2708 -1.2607  0.3008
  138SAPE   H6Y15049   4.034   3.253  10.303 -0.9048  0.3609 -2.0278
  138SAPE   C3715050   3.833   3.203  10.243 -0.0810 -0.0687 -0.3273
  138SAPE   H7X15051   3.812   3.308  10.274  4.5546  0.6378  1.1804
  138SAPE   H7Y15052   3.741   3.145  10.265 -0.6915  0.7174 -0.7309
  138SAPE   C3815053   3.858   3.199  10.095  0.1967  0.4147  0.3037
  138SAPE   H8X15054   3.905   3.111  10.046  0.5094  1.2907 -1.0164
  138SAPE   H8Y15055   3.935   3.279  10.087 -0.2993  0.7333 -1.8919
  138SAPE   C3915056   3.737   3.227  10.007 -1.0852  0.3667  0.3627
  138SAPE   H9X15057   3.699   3.329  10.028 -1.4722  0.3039 -0.0270
  138SAPE   H9Y15058   3.670   3.140  10.024 -3.9296  1.7173 -2.9488
  138SAPE  C31015059   3.772   3.214   9.857 -0.3144  0.1121 -0.2970
  138SAPE  H10X15060   3.822   3.117   9.839  2.3557  1.5168 -1.1082
  138SAPE  H10Y15061   3.842   3.294   9.821  0.3329 -0.3204 -0.0188
  138SAPE  C31115062   3.642   3.222   9.776 -0.0808 -0.4167 -0.1595
  138SAPE  H11X15063   3.589   3.319   9.784  0.6340 -0.0784  0.6166
  138SAPE  H11Y15064   3.575   3.146   9.822 -1.0596 -0.3839 -1.4660
  138SAPE  C31215065   3.660   3.186   9.628 -0.1993 -0.2633 -0.0122
  138SAPE  H12X15066   3.746   3.116   9.623  0.8419  0.6203  3.3378
  138SAPE  H12Y15067   3.682   3.279   9.571 -2.3782  0.4727  0.2692
  138SAPE  C31315068   3.532   3.119   9.566 -0.5372  0.1621  0.4639
  138SAPE  H13X15069   3.441   3.157   9.617  0.1987  1.7822  0.6369
  138SAPE  H13Y15070   3.534   3.011   9.593  0.2652 -0.0528 -0.4088
  138SAPE  C31415071   3.526   3.144   9.412  0.0097  1.0913 -0.3039
  138SAPE  H14X15072   3.576   3.059   9.360 -1.1503  0.7961 -0.9718
  138SAPE  H14Y15073   3.584   3.237   9.391  0.6696  1.1824  1.7681
  138SAPE  C31515074   3.386   3.173   9.353 -0.0957 -0.5124  0.1114
  138SAPE  H15X15075   3.342   3.273   9.373  0.2568 -0.1101 -1.0410
  138SAPE  H15Y15076   3.322   3.100   9.405 -0.5821 -1.3802 -1.6441
  138SAPE  C31615077   3.375   3.153   9.193 -0.0288  0.1674  0.8505
  138SAPE  H16X15078   3.380   3.047   9.162  2.2058  0.9680 -1.9058
  138SAPE  H16Y15079   3.457   3.200   9.134 -0.7269 -0.0473 -0.3316
  138SAPE  C31715080   3.234   3.192   9.139 -0.4783 -0.1217 -0.5253
  138SAPE  H17X15081   3.235   3.183   9.028 -1.5013 -2.2171 -0.4136
  138SAPE  H17Y15082   3.218   3.300   9.160  1.1548  0.0125  0.1778
  138SAPE  C31815083   3.112   3.129   9.201 -0.8957  0.3032  0.5686
  138SAPE  H18X15084   3.118   3.020   9.183  0.2355  0.4222  0.1560
  138SAPE  H18Y15085   3.023   3.170   9.149 -0.3878 -1.8185 -2.1779
  138SAPE  H18Z15086   3.111   3.152   9.310  2.4459 -0.4177  0.8627
  139SAPE     N15087   4.057   6.080  10.911  0.3382  0.5869  0.5648
  139SAPE   HN115088   4.138   6.084  10.845 -0.7622 -1.9296 -1.0841
  139SAPE   HN215089   4.059   5.982  10.944 -0.4750  0.5954  0.6431
  139SAPE   HN315090   3.964   6.104  10.872 -0.3792 -0.8060  1.3675
  139SAPE   C1215091   4.090   6.183  11.014 -0.1204 -0.0406  0.1141
  139SAPE  H12A15092   4.184   6.147  11.062 -0.3281 -1.7431 -0.7170
  139SAPE  H12B15093   4.001   6.191  11.080 -0.3719 -0.7600 -0.1360
  139SAPE   C1115094   4.106   6.313  10.945  0.9655 -0.2772 -1.0433
  139SAPE  H11A15095   4.100   6.393  11.022 -0.8922  0.1032 -1.5555
  139SAPE  H11B15096   4.012   6.332  10.889 -1.3235 -0.9220  2.2839
  139SAPE     P15097   4.322   6.446  10.841 -0.0912 -0.0150 -0.0726
  139SAPE   O1315098   4.406   6.462  10.963 -0.0061 -0.0444 -0.2361
  139SAPE   O1415099   4.395   6.419  10.715 -0.5081  0.0856 -0.9309
  139SAPE   O1215100   4.223   6.326  10.857  0.5893 -0.4254 -0.5619
  139SAPE   O1115101   4.223   6.570  10.818  0.2279  0.5653 -0.5982
  139SAPE    C115102   4.133   6.564  10.706 -0.7349  1.0804  0.0918
  139SAPE    HA15103   4.146   6.475  10.641  2.5486 -1.0100  3.2625
  139SAPE    HB15104   4.026   6.564  10.738 -0.4060  1.9319  1.2511
  139SAPE    C215105   4.138   6.692  10.618 -0.1354  0.0645 -0.3058
  139SAPE    HS15106   4.082   6.668  10.525  0.1056 -0.4258 -0.3279
  139SAPE   O2115107   4.270   6.739  10.588  0.2527  0.1639  0.5261
  139SAPE   C2115108   4.325   6.659  10.493 -0.4748  0.1838 -0.5122
  139SAPE   O2215109   4.274   6.561  10.440 -0.0019 -0.2876 -0.0693
  139SAPE   C2215110   4.469   6.710  10.464  0.9463 -0.2311  0.0104
  139SAPE   H2R15111   4.514   6.715  10.565  1.4176 -0.1442 -0.2039
  139SAPE   H2S15112   4.518   6.628  10.407  0.1770 -0.7399  0.0637
  139SAPE    C315113   4.058   6.812  10.682 -0.4590 -0.5528  0.2091
  139SAPE    HX15114   4.121   6.851  10.764 -2.0227  1.7734  0.4069
  139SAPE    HY15115   3.959   6.785  10.723 -0.4225 -0.0435  0.6470
  139SAPE   O3115116   4.048   6.923  10.597  0.8076  0.1735 -0.1728
  139SAPE   C3115117   3.933   6.921  10.529  0.5135 -0.4975 -0.6110
  139SAPE   O3215118   3.838   6.843  10.541  0.2338 -0.1669 -0.1363
  139SAPE   C3215119   3.937   7.027  10.424  0.5443  0.0369  0.2140
  139SAPE   H2X15120   3.936   7.128  10.471 -0.9943 -0.5053  1.4492
  139SAPE   H2Y15121   3.851   7.010  10.356  0.1787 -0.7082  0.8540
  139SAPE   C2315122   4.478   6.847  10.400 -0.1528  0.4554 -0.6025
  139SAPE   H3R15123   4.585   6.871  10.382 -0.2104  0.1842 -1.3783
  139SAPE   H3S15124   4.426   6.920  10.465 -0.5777 -0.3123 -0.0650
  139SAPE   C2415125   4.415   6.850  10.264  0.5709  0.6889  0.7811
  139SAPE   H4R15126   4.310   6.833  10.294  0.8684  2.6175  3.1369
  139SAPE   H4S15127   4.459   6.776  10.194 -2.0563  0.7231 -1.0472
  139SAPE   C2515128   4.426   6.998  10.214 -0.2797  0.5923 -0.1164
  139SAPE   H5R15129   4.354   7.063  10.266 -1.5409 -1.2946  0.6386
  139SAPE   C2615130   4.501   7.053  10.120 -0.6456 -1.0184  0.5806
  139SAPE   H6R15131   4.504   7.162  10.112  0.1299 -0.8991  2.1183
  139SAPE   C2715132   4.606   6.987  10.030 -0.1677  0.1067 -0.2270
  139SAPE   H7R15133   4.624   6.879  10.047 -0.3368  0.2802  1.1187
  139SAPE   H7S15134   4.704   7.036  10.044  0.8217 -1.6425 -0.7537
  139SAPE   C2815135   4.565   7.003   9.884 -0.6958 -0.7022 -0.3880
  139SAPE   H8R15136   4.520   7.099   9.856  0.3175 -0.9471 -3.1745
  139SAPE   C2915137   4.559   6.900   9.792  0.2092 -0.3986  0.4731
  139SAPE   H9R15138   4.507   6.927   9.699  1.3973 -2.0176 -0.7108
  139SAPE  C21015139   4.598   6.754   9.805 -0.7282  1.1128  0.1682
  139SAPE  H10R15140   4.537   6.688   9.740 -1.4723  1.3967  0.5611
  139SAPE  H10S15141   4.585   6.723   9.911  1.0928  2.9402  1.0114
  139SAPE  C21115142   4.748   6.744   9.776  1.0860 -0.3496  0.0409
  139SAPE  H11R15143   4.809   6.803   9.846  0.1938  0.3967  0.2052
  139SAPE  C21215144   4.816   6.680   9.676 -0.0064 -0.1522 -0.7163
  139SAPE  H12R15145   4.926   6.672   9.676  0.0685  0.8107  0.1663
  139SAPE  C21315146   4.751   6.606   9.561 -0.5386 -0.3885  0.2989
  139SAPE  H13R15147   4.756   6.678   9.477 -0.7231  3.1080  3.0514
  139SAPE  H13S15148   4.645   6.589   9.588 -0.8474  0.6660 -0.2106
  139SAPE  C21415149   4.821   6.478   9.534  0.1429 -0.1299  0.2789
  139SAPE  H14R15150   4.800   6.402   9.610 -0.3810  0.7849  1.0625
  139SAPE  C21515151   4.905   6.442   9.436 -0.5261  0.1090  1.0051
  139SAPE  H15R15152   4.951   6.343   9.434 -2.9249 -1.1105  2.3855
  139SAPE  C21615153   4.951   6.533   9.327  0.1331 -0.2826  0.2084
  139SAPE  H16R15154   5.061   6.532   9.338 -0.1056 -0.5689  3.3628
  139SAPE  H16S15155   4.894   6.629   9.318 -0.3029 -0.5052  0.5776
  139SAPE  C21715156   4.931   6.470   9.188 -0.0203 -0.2845  0.0963
  139SAPE  H17R15157   4.978   6.370   9.177  0.3609 -0.1421  0.4256
  139SAPE  H17S15158   4.984   6.536   9.117 -0.9933  0.0103 -0.3766
  139SAPE  C21815159   4.786   6.468   9.148  0.4853  0.0410  0.5597
  139SAPE  H18R15160   4.740   6.412   9.232  1.5200 -1.7756 -0.0189
  139SAPE  H18S15161   4.772   6.404   9.058  1.2028 -1.2937  1.3490
  139SAPE  C21915162   4.720   6.602   9.111 -0.2734 -0.5451 -0.9637
  139SAPE  H19R15163   4.763   6.646   9.018  0.8614 -0.1047 -0.2573
  139SAPE  H19S15164   4.728   6.672   9.197  0.3279 -1.0240 -0.6240
  139SAPE  C22015165   4.571   6.581   9.094  0.0469 -0.2126 -0.4529
  139SAPE  H20R15166   4.535   6.531   9.186 -3.9381  0.1412 -1.6520
  139SAPE  H20S15167   4.544   6.525   9.002 -1.8361  1.6312 -1.0817
  139SAPE  H20T15168   4.521   6.679   9.086  0.9042  0.4723  1.7516
  139SAPE   C3315169   4.056   7.015  10.324 -0.1204 -0.5894 -0.2443
  139SAPE   H3X15170   4.155   6.981  10.363  0.0029 -0.6747 -0.6288
  139SAPE   H3Y15171   4.062   7.123  10.300 -0.2974 -0.0666  1.8428
  139SAPE   C3415172   4.036   6.947  10.190  0.4308  0.3741  0.8799
  139SAPE   H4X15173   4.130   6.956  10.131 -0.0467 -1.6876 -0.3089
  139SAPE   H4Y15174   3.953   7.001  10.139  3.1745  2.2234 -2.0351
  139SAPE   C3515175   4.008   6.801  10.195  0.1079  0.6344 -0.1942
  139SAPE   H5X15176   3.903   6.779  10.224  0.0708 -0.3952 -1.0604
  139SAPE   H5Y15177   4.079   6.754  10.266 -0.2988 -0.0297 -0.2178
  139SAPE   C3615178   4.018   6.735  10.061 -0.3822 -0.0219  0.3808
  139SAPE   H6X15179   3.980   6.807   9.985  0.2346  2.0468  1.9427
  139SAPE   H6Y15180   3.956   6.643  10.056 -1.0205  0.4104 -3.7240
  139SAPE   C3715181   4.161   6.698  10.034 -0.5059 -0.3454  0.0661
  139SAPE   H7X15182   4.197   6.614  10.097  1.2596  0.5686  0.3462
  139SAPE   H7Y15183   4.233   6.780  10.058 -0.0059 -1.2859  1.9971
  139SAPE   C3815184   4.203   6.657   9.887 -0.0769  0.1127 -0.1299
  139SAPE   H8X15185   4.128   6.581   9.857  0.0024 -0.9006  1.9986
  139SAPE   H8Y15186   4.301   6.605   9.894 -0.2386 -0.2927 -0.7977
  139SAPE   C3915187   4.210   6.768   9.791  0.0525 -0.0618 -0.2246
  139SAPE   H9X15188   4.282   6.843   9.830  1.2112 -0.7778 -0.9132
  139SAPE   H9Y15189   4.120   6.830   9.772  1.9420  3.1553  0.5693
  139SAPE  C31015190   4.268   6.712   9.655  0.2496  0.2345  0.3607
  139SAPE  H10X15191   4.352   6.639   9.661 -0.6920 -0.9796 -0.7918
  139SAPE  H10Y15192   4.302   6.793   9.586 -0.6433  0.1770 -0.1580
  139SAPE  C31115193   4.148   6.652   9.575  0.3093  0.0122 -0.0174
  139SAPE  H11X15194   4.079   6.736   9.553  1.5556  0.3865 -3.1416
  139SAPE  H11Y15195   4.109   6.568   9.635 -1.1445 -1.7330 -3.1540
  139SAPE  C31215196   4.196   6.597   9.438  0.7290  0.2367  0.3870
  139SAPE  H12X15197   4.264   6.510   9.453  0.0462 -0.8401 -2.2341
  139SAPE  H12Y15198   4.257   6.667   9.377  2.4056 -1.0049  0.5800
  139SAPE  C31315199   4.066   6.543   9.359  0.0420  0.0939  0.5179
  139SAPE  H13X15200   3.982   6.616   9.357 -0.3939 -0.3861  0.9481
  139SAPE  H13Y15201   4.007   6.463   9.409 -2.3683  0.6264 -1.2849
  139SAPE  C31415202   4.091   6.498   9.214 -0.1700  0.3110 -0.6743
  139SAPE  H14X15203   4.176   6.426   9.209  0.5895  1.1874 -0.6918
  139SAPE  H14Y15204   4.122   6.586   9.154 -0.4671  0.6170 -0.3836
  139SAPE  C31515205   3.959   6.441   9.149 -0.2119  0.7672  0.3351
  139SAPE  H15X15206   3.876   6.510   9.176 -1.2670 -0.2574 -0.1650
  139SAPE  H15Y15207   3.947   6.337   9.187  0.8759 -0.1401 -1.6626
  139SAPE  C31615208   3.960   6.441   8.993 -0.4472  0.7009  0.4891
  139SAPE  H16X15209   3.856   6.427   8.958 -0.1893 -1.4538  0.4774
  139SAPE  H16Y15210   3.988   6.544   8.961 -1.0007  0.5133 -0.6579
  139SAPE  C31715211   4.029   6.321   8.928 -0.1969  0.7192 -0.6711
  139SAPE  H17X15212   4.004   6.230   8.987 -0.5366  0.6417 -0.9292
  139SAPE  H17Y15213   4.138   6.340   8.924  0.2035 -1.2740 -0.3087
  139SAPE  C31815214   3.975   6.293   8.788  0.5134  0.1429  0.1653
  139SAPE  H18X15215   3.878   6.240   8.790  0.3920  0.3991  1.8911
  139SAPE  H18Y15216   4.044   6.242   8.717  0.7755  0.2207  0.3642
  139SAPE  H18Z15217   3.944   6.392   8.746  0.1277  0.7920  1.8897
  140SAPE     N15218   1.452   5.310  10.983  0.0110 -0.1999 -0.0121
  140SAPE   HN115219   1.537   5.249  10.984  0.6270  0.5816  2.1815
  140SAPE   HN215220   1.458   5.388  10.915 -1.4198 -0.8006 -0.8680
  140SAPE   HN315221   1.432   5.347  11.078 -0.0246  0.0387 -0.1115
  140SAPE   C1215222   1.340   5.214  10.930 -0.6608 -0.0220 -0.0840
  140SAPE  H12A15223   1.340   5.135  11.008  0.3488  1.2274  1.2281
  140SAPE  H12B15224   1.389   5.169  10.840  1.1715  0.2702  0.7313
  140SAPE   C1115225   1.198   5.275  10.921  0.6109  0.3628  0.2280
  140SAPE  H11A15226   1.130   5.188  10.913  2.3887 -0.9768 -1.3995
  140SAPE  H11B15227   1.183   5.341  10.832  2.0840 -1.4057 -1.4167
  140SAPE     P15228   1.093   5.281  11.166  0.1515  0.0820  0.0459
  140SAPE   O1315229   1.194   5.196  11.239 -0.4129  0.2263 -0.0438
  140SAPE   O1415230   1.040   5.388  11.250 -0.3760 -0.2351  0.3707
  140SAPE   O1215231   1.171   5.346  11.039  0.0448  0.4635 -0.0543
  140SAPE   O1115232   0.974   5.199  11.105 -0.0062 -0.2166  0.2190
  140SAPE    C115233   0.959   5.059  11.114 -0.5847  0.3225 -0.3305
  140SAPE    HA15234   1.059   5.015  11.094 -0.4154  1.3049 -1.8325
  140SAPE    HB15235   0.915   5.032  11.212  1.3820  0.3947  0.6202
  140SAPE    C215236   0.866   4.999  11.012 -0.1821  0.1714  0.5241
  140SAPE    HS15237   0.877   4.888  11.006 -2.2298 -0.0549  0.3202
  140SAPE   O2115238   0.885   5.057  10.885  0.0326 -0.3960  0.3250
  140SAPE   C2115239   0.880   4.979  10.778 -0.7505  0.3005 -0.6885
  140SAPE   O2215240   0.839   4.862  10.780 -0.5485 -0.5125  0.4125
  140SAPE   C2215241   0.932   5.063  10.657 -0.6341 -0.4098  0.1096
  140SAPE   H2R15242   0.881   5.161  10.655 -0.4374 -0.2825  0.9312
  140SAPE   H2S15243   1.040   5.082  10.678 -0.0609  0.1341 -2.8920
  140SAPE    C315244   0.725   5.033  11.050  0.4846  0.0522  0.1741
  140SAPE    HX15245   0.718   5.143  11.069  0.8555 -0.2798  2.5407
  140SAPE    HY15246   0.704   4.977  11.144 -0.9432 -2.1235 -1.3457
  140SAPE   O3115247   0.630   4.996  10.955  0.6530  0.1459 -0.1027
  140SAPE   C3115248   0.583   4.870  10.959 -0.3536  0.6369  0.3607
  140SAPE   O3215249   0.622   4.775  11.023 -0.4177  0.2511 -0.0376
  140SAPE   C3215250   0.455   4.857  10.878  0.0946 -0.3904  0.1635
  140SAPE   H2X15251   0.395   4.945  10.910  0.1576 -0.2583 -0.0747
  140SAPE   H2Y15252   0.411   4.766  10.923 -1.4088  0.0142 -0.4369
  140SAPE   C2315253   0.903   4.996  10.522  0.5253  0.0306  0.2335
  140SAPE   H3R15254   0.796   4.967  10.514  0.3157  0.9552 -0.4005
  140SAPE   H3S15255   0.964   4.903  10.519 -1.8757 -1.6174 -0.7042
  140SAPE   C2415256   0.942   5.094  10.407 -0.5912 -0.1823  0.5831
  140SAPE   H4R15257   1.032   5.154  10.430 -0.0399  0.2931 -2.4137
  140SAPE   H4S15258   0.855   5.163  10.393 -0.2169  0.1313 -0.2702
  140SAPE   C2515259   0.966   5.004  10.283  0.1115 -0.3375  0.1882
  140SAPE   H5R15260   1.005   4.903  10.304  1.5756  0.0561 -0.5410
  140SAPE   C2615261   0.924   5.032  10.161 -0.2863 -0.9528 -0.2701
  140SAPE   H6R15262   0.953   4.972  10.073  2.3203 -1.0449  0.5856
  140SAPE   C2715263   0.848   5.153  10.123 -0.5675  0.2824 -0.2883
  140SAPE   H7R15264   0.905   5.192  10.036 -1.0186  2.7825  0.4717
  140SAPE   H7S15265   0.862   5.235  10.196  1.1864  0.7734 -1.1204
  140SAPE   C2815266   0.706   5.123  10.084 -0.1576  0.0082  0.1727
  140SAPE   H8R15267   0.656   5.059  10.159 -0.8129 -0.9841 -1.0570
  140SAPE   C2915268   0.641   5.163   9.977  0.8242 -0.3878  0.5600
  140SAPE   H9R15269   0.534   5.147   9.957  0.4245  2.0469  0.4532
  140SAPE  C21015270   0.694   5.245   9.859  0.0519  0.3450 -0.7076
  140SAPE  H10R15271   0.734   5.169   9.790  1.0407  0.7195 -0.5570
  140SAPE  H10S15272   0.777   5.311   9.891  0.5891 -0.6997  0.1253
  140SAPE  C21115273   0.583   5.330   9.804 -0.5548 -0.9480 -0.8516
  140SAPE  H11R15274   0.514   5.379   9.874  1.0237  0.8456 -0.4722
  140SAPE  C21215275   0.571   5.355   9.675 -0.5365 -0.0542  0.0486
  140SAPE  H12R15276   0.491   5.427   9.652  1.1900  1.8811 -0.2747
  140SAPE  C21315277   0.647   5.319   9.549  0.1246  0.2818 -0.1031
  140SAPE  H13R15278   0.565   5.285   9.483  0.1085  2.8716 -1.5126
  140SAPE  H13S15279   0.706   5.226   9.567  1.3665  0.2821 -3.5521
  140SAPE  C21415280   0.732   5.432   9.492  0.7255 -0.5566 -0.3971
  140SAPE  H14R15281   0.820   5.465   9.549  1.1354 -0.4337 -1.0841
  140SAPE  C21515282   0.720   5.479   9.375 -0.0725 -0.3803  0.2912
  140SAPE  H15R15283   0.792   5.557   9.345  0.5984 -0.7887  0.8070
  140SAPE  C21615284   0.606   5.459   9.278  0.0339 -0.2477  0.7569
  140SAPE  H16R15285   0.547   5.553   9.268  0.4977 -0.0197  0.0455
  140SAPE  H16S15286   0.541   5.379   9.317  0.6915 -1.0174  0.3026
  140SAPE  C21715287   0.646   5.417   9.131  0.6990  0.8974 -0.0817
  140SAPE  H17R15288   0.719   5.488   9.087  0.2447  0.2798 -1.8923
  140SAPE  H17S15289   0.554   5.410   9.069 -0.6916  0.0825  1.9530
  140SAPE  C21815290   0.721   5.275   9.132  0.4003  0.0195 -0.9171
  140SAPE  H18R15291   0.662   5.198   9.186 -0.8759 -0.5989 -3.0729
  140SAPE  H18S15292   0.821   5.285   9.179  0.3257 -0.6736 -0.5997
  140SAPE  C21915293   0.746   5.221   8.993 -0.2580 -0.1484 -0.1553
  140SAPE  H19R15294   0.809   5.130   8.993  1.0700  0.7328  0.9312
  140SAPE  H19S15295   0.804   5.299   8.938 -1.2097 -0.6349 -1.9322
  140SAPE  C22015296   0.624   5.184   8.916 -0.0067 -0.0779  0.1748
  140SAPE  H20R15297   0.578   5.094   8.962 -0.5315  1.6503  3.2621
  140SAPE  H20S15298   0.649   5.149   8.814 -0.7620  0.2766 -0.1441
  140SAPE  H20T15299   0.552   5.269   8.909 -0.0694 -0.2590 -3.0340
  140SAPE   C3315300   0.481   4.836  10.726 -0.5823  0.1108 -0.1466
  140SAPE   H3X15301   0.528   4.745  10.684  3.4185  1.9572 -0.2476
  140SAPE   H3Y15302   0.542   4.924  10.694 -1.7292  0.7552 -0.6366
  140SAPE   C3415303   0.345   4.837  10.652 -1.1628 -0.5407 -0.2132
  140SAPE   H4X15304   0.291   4.926  10.692  0.4530  0.4225 -0.0738
  140SAPE   H4Y15305   0.291   4.743  10.675 -1.8629  0.3219  1.9469
  140SAPE   C3515306   0.376   4.859  10.492  0.0464  0.1317 -0.9951
  140SAPE   H5X15307   0.445   4.777  10.465 -1.9546 -1.7834 -0.5623
  140SAPE   H5Y15308   0.426   4.958  10.482 -0.9278  0.9772  1.7500
  140SAPE   C3615309   0.247   4.846  10.410 -0.2248 -0.6455 -0.4200
  140SAPE   H6X15310   0.187   4.939  10.419 -1.2516 -1.2414 -0.8858
  140SAPE   H6Y15311   0.189   4.767  10.462 -1.3365  1.6399  2.0742
  140SAPE   C3715312   0.264   4.823  10.263  1.0920  0.4219  0.2153
  140SAPE   H7X15313   0.158   4.824  10.229  1.0676  0.2178  0.2854
  140SAPE   H7Y15314   0.322   4.734  10.229 -0.9461 -1.3314  1.0698
  140SAPE   C3815315   0.335   4.942  10.187  0.9597  0.0648 -0.5382
  140SAPE   H8X15316   0.444   4.958  10.203  0.9830  0.2021 -0.8315
  140SAPE   H8Y15317   0.280   5.024  10.237  0.7567 -0.9428  0.9598
  140SAPE   C3915318   0.296   4.949  10.046 -0.5308  0.0795  0.2520
  140SAPE   H9X15319   0.324   5.048  10.005 -2.0241 -0.1313 -1.4158
  140SAPE   H9Y15320   0.186   4.938  10.034 -0.2995 -2.7057  0.1690
  140SAPE  C31015321   0.381   4.859   9.952 -0.0899  0.2134  0.2388
  140SAPE  H10X15322   0.380   4.757   9.996  3.2877 -0.1922 -0.3689
  140SAPE  H10Y15323   0.489   4.884   9.949 -0.1890  0.5449 -1.3172
  140SAPE  C31115324   0.331   4.859   9.812 -0.1700  0.0601  0.1579
  140SAPE  H11X15325   0.224   4.832   9.800  0.7669 -2.8115 -3.8738
  140SAPE  H11Y15326   0.384   4.779   9.755  1.0079  0.9589 -0.0413
  140SAPE  C31215327   0.356   4.988   9.734 -0.0526  0.0543 -0.0496
  140SAPE  H12X15328   0.464   5.011   9.718  0.1635 -1.1926 -0.4763
  140SAPE  H12Y15329   0.317   5.061   9.807  0.4049 -0.1332  0.3860
  140SAPE  C31315330   0.270   5.003   9.613  1.0450 -0.9709 -0.0759
  140SAPE  H13X15331   0.163   4.976   9.626  0.4090  1.0480 -0.7364
  140SAPE  H13Y15332   0.316   4.931   9.543  3.2001 -0.2639  0.5372
  140SAPE  C31415333   0.267   5.138   9.539  0.0266 -0.4925 -0.4401
  140SAPE  H14X15334   0.374   5.143   9.510  0.2355  0.1741  0.3919
  140SAPE  H14Y15335   0.243   5.226   9.602 -0.1995 -1.9162  1.5429
  140SAPE  C31515336   0.179   5.131   9.415  0.1899  0.6449 -0.1310
  140SAPE  H15X15337   0.071   5.142   9.441 -0.0615 -0.1077 -0.8237
  140SAPE  H15Y15338   0.194   5.026   9.383  1.6794  0.2657  1.6140
  140SAPE  C31615339   0.224   5.223   9.303 -0.0030 -0.5279 -0.9416
  140SAPE  H16X15340   0.333   5.200   9.303 -0.2052 -1.5734  0.1349
  140SAPE  H16Y15341   0.201   5.327   9.334  1.1903 -0.6446  0.4541
  140SAPE  C31715342   0.170   5.187   9.162 -0.0827 -0.5398 -0.1645
  140SAPE  H17X15343   0.069   5.232   9.164  1.1104  2.4144  1.5590
  140SAPE  H17Y15344   0.175   5.077   9.148  2.7003 -0.4066 -0.8645
  140SAPE  C31815345   0.256   5.253   9.051 -0.2242 -0.5084 -0.0518
  140SAPE  H18X15346   0.202   5.244   8.955 -0.2278  1.1246 -0.2230
  140SAPE  H18Y15347   0.349   5.196   9.032 -0.5372 -0.9607 -0.2517
  140SAPE  H18Z15348   0.271   5.360   9.077  2.3854 -0.6934 -0.5078
  141SAPE     N15349   1.448   6.256  11.279 -0.1821  0.0132 -0.1678
  141SAPE   HN115350   1.434   6.212  11.185 -3.1665  2.8853 -1.2538
  141SAPE   HN215351   1.531   6.210  11.322  0.0459 -0.5032 -1.1200
  141SAPE   HN315352   1.357   6.234  11.325 -0.6595 -0.1839 -1.1660
  141SAPE   C1215353   1.460   6.402  11.266 -0.0396 -0.8793  0.1674
  141SAPE  H12A15354   1.421   6.438  11.364 -1.8113 -0.6020 -0.5912
  141SAPE  H12B15355   1.394   6.440  11.185 -0.5306  0.7139  1.2705
  141SAPE   C1115356   1.604   6.448  11.224 -0.1056 -0.5628 -0.4324
  141SAPE  H11A15357   1.673   6.454  11.310  0.5724 -2.2691 -0.8024
  141SAPE  H11B15358   1.577   6.550  11.191  1.1133 -0.0956 -0.0249
  141SAPE     P15359   1.756   6.442  11.016  0.2521  0.1354  0.2135
  141SAPE   O1315360   1.840   6.544  11.090 -0.4179 -0.0853  0.0683
  141SAPE   O1415361   1.819   6.342  10.930  0.6473  0.4025 -0.1653
  141SAPE   O1215362   1.660   6.369  11.121 -0.1394 -0.9086  0.3222
  141SAPE   O1115363   1.640   6.520  10.931 -0.4686  0.3026  0.5413
  141SAPE    C115364   1.554   6.439  10.850 -0.3327 -0.5623  0.6019
  141SAPE    HA15365   1.537   6.343  10.902 -1.9657  0.2726  1.6847
  141SAPE    HB15366   1.455   6.489  10.850 -0.4557 -0.6910  3.4241
  141SAPE    C215367   1.604   6.401  10.706 -0.2255  0.7510 -0.6004
  141SAPE    HS15368   1.669   6.312  10.720  2.2723  2.6489  0.8205
  141SAPE   O2115369   1.698   6.494  10.649 -0.2020 -0.3951  0.0380
  141SAPE   C2115370   1.652   6.612  10.609 -0.8696 -0.0382  0.1731
  141SAPE   O2215371   1.543   6.658  10.625  0.2272 -0.6852  0.0218
  141SAPE   C2215372   1.763   6.682  10.539 -0.8765 -0.1121 -0.5197
  141SAPE   H2R15373   1.717   6.774  10.496 -0.4319  0.3085 -0.1034
  141SAPE   H2S15374   1.845   6.705  10.609 -0.8233  0.8889 -0.8981
  141SAPE    C315375   1.491   6.364  10.609  0.1732 -0.3816  0.5140
  141SAPE    HX15376   1.433   6.458  10.597  1.0776 -0.0302 -1.6286
  141SAPE    HY15377   1.428   6.281  10.648  0.8477 -1.6446 -0.9899
  141SAPE   O3115378   1.538   6.343  10.477 -0.4642 -0.1355 -0.2893
  141SAPE   C3115379   1.599   6.229  10.460 -0.5406  0.1293 -0.4518
  141SAPE   O3215380   1.613   6.134  10.536 -0.0100 -0.5011 -0.3932
  141SAPE   C3215381   1.680   6.245  10.333  0.5763  0.9264  0.1802
  141SAPE   H2X15382   1.748   6.158  10.326  0.1513  0.5315  0.8259
  141SAPE   H2Y15383   1.746   6.334  10.338  2.1826 -0.2118 -0.2816
  141SAPE   C2315384   1.791   6.605  10.407  0.4603  0.0548 -0.0907
  141SAPE   H3R15385   1.690   6.579  10.369 -0.9998  0.0110  3.5270
  141SAPE   H3S15386   1.837   6.506  10.426  1.9580  0.1689 -2.5627
  141SAPE   C2415387   1.873   6.693  10.310  0.0210 -0.0058 -0.1779
  141SAPE   H4R15388   1.975   6.692  10.353 -1.2379 -0.0910  3.0260
  141SAPE   H4S15389   1.830   6.796  10.312 -0.7399 -0.3264  0.0652
  141SAPE   C2515390   1.872   6.648  10.163  0.2135 -0.6785 -0.5650
  141SAPE   H5R15391   1.775   6.614  10.124  0.1726  0.4186 -1.4620
  141SAPE   C2615392   1.978   6.665  10.088  0.2111 -0.7888  0.5741
  141SAPE   H6R15393   1.968   6.626   9.985 -0.7686 -0.9091  0.7057
  141SAPE   C2715394   2.120   6.716  10.119  0.6299 -0.5415 -0.1906
  141SAPE   H7R15395   2.116   6.785  10.206  1.0350 -1.0739  0.2586
  141SAPE   H7S15396   2.151   6.766  10.024 -0.4743 -1.2152 -0.9280
  141SAPE   C2815397   2.219   6.603  10.157  0.3586  0.5282 -0.1521
  141SAPE   H8R15398   2.233   6.572  10.261  0.4290 -0.3806 -0.4241
  141SAPE   C2915399   2.317   6.548  10.077 -0.2495 -0.4167 -0.6009
  141SAPE   H9R15400   2.375   6.466  10.120 -4.0441 -3.7537 -1.2601
  141SAPE  C21015401   2.341   6.587   9.932  0.0784 -0.2629 -0.3144
  141SAPE  H10R15402   2.448   6.617   9.923  0.1802 -0.5402 -0.0323
  141SAPE  H10S15403   2.293   6.677   9.889 -1.9663 -2.0725 -2.0529
  141SAPE  C21115404   2.318   6.465   9.845 -0.0246  0.3631 -0.2769
  141SAPE  H11R15405   2.280   6.372   9.891  1.9443 -0.5366 -0.3609
  141SAPE  C21215406   2.349   6.463   9.710  0.6594  0.0828 -0.3571
  141SAPE  H12R15407   2.323   6.370   9.658 -1.0544  0.1788  0.2797
  141SAPE  C21315408   2.395   6.571   9.623  0.0752  0.1860 -0.1320
  141SAPE  H13R15409   2.375   6.674   9.660  1.2536 -0.1308  1.5018
  141SAPE  H13S15410   2.339   6.574   9.527 -0.5746 -0.0859  0.2348
  141SAPE  C21415411   2.539   6.563   9.596  0.3143  0.1910  0.3610
  141SAPE  H14R15412   2.592   6.568   9.693 -1.2311  3.5346  1.1978
  141SAPE  C21515413   2.603   6.549   9.473  0.1160  0.1952 -0.4195
  141SAPE  H15R15414   2.712   6.556   9.466  0.1544  0.4219  0.2852
  141SAPE  C21615415   2.533   6.536   9.338 -0.0882 -0.7410  0.7082
  141SAPE  H16R15416   2.533   6.624   9.269  2.3245 -0.8138  0.5302
  141SAPE  H16S15417   2.424   6.521   9.351 -0.8646  0.7518 -2.8669
  141SAPE  C21715418   2.573   6.426   9.232  0.8977 -0.3849  0.6111
  141SAPE  H17R15419   2.493   6.431   9.155  0.9562 -2.2472  0.3799
  141SAPE  H17S15420   2.569   6.332   9.291 -0.5834  1.1432  3.1298
  141SAPE  C21815421   2.716   6.443   9.184 -0.0919 -0.0710  0.3187
  141SAPE  H18R15422   2.777   6.453   9.276 -0.4258 -1.6920  0.7488
  141SAPE  H18S15423   2.743   6.539   9.135 -1.4226 -0.7449 -1.9171
  141SAPE  C21915424   2.758   6.340   9.083  0.1717 -0.4344  0.0372
  141SAPE  H19R15425   2.681   6.316   9.007 -0.5815 -0.4005  0.7777
  141SAPE  H19S15426   2.755   6.247   9.145 -0.1955  1.7548  3.5605
  141SAPE  C22015427   2.894   6.369   9.029  0.5830  0.5671 -0.4827
  141SAPE  H20R15428   2.969   6.379   9.110 -1.7823  0.7812  1.7910
  141SAPE  H20S15429   2.888   6.469   8.981 -1.1689  0.7965  0.1461
  141SAPE  H20T15430   2.926   6.288   8.960  1.0231 -1.1745  1.6543
  141SAPE   C3315431   1.595   6.233  10.199 -0.6574 -0.0791 -1.0922
  141SAPE   H3X15432   1.648   6.255  10.103 -1.9598  1.4440 -1.5141
  141SAPE   H3Y15433   1.515   6.309  10.208 -0.1114  0.6050 -1.7959
  141SAPE   C3415434   1.550   6.086  10.196 -0.1400  0.4190  0.6140
  141SAPE   H4X15435   1.497   6.070  10.293  1.6636 -0.8064  1.4481
  141SAPE   H4Y15436   1.647   6.035  10.211 -0.1921  0.1620  0.0886
  141SAPE   C3515437   1.481   6.036  10.072  0.4112  0.2798 -0.1032
  141SAPE   H5X15438   1.387   6.090  10.048  1.5205  0.7201 -4.2637
  141SAPE   H5Y15439   1.456   5.931  10.097 -1.2475  1.0992  2.0173
  141SAPE   C3615440   1.574   6.036   9.944  0.1154  0.3781  0.0128
  141SAPE   H6X15441   1.550   5.948   9.880  2.0038  0.5766 -1.0337
  141SAPE   H6Y15442   1.676   6.026   9.986 -0.3773 -2.0136  0.8039
  141SAPE   C3715443   1.567   6.163   9.865 -0.4663 -0.0743 -0.3977
  141SAPE   H7X15444   1.660   6.215   9.896  1.4223 -3.6095  0.3891
  141SAPE   H7Y15445   1.479   6.224   9.893 -0.3722  0.0136 -0.2882
  141SAPE   C3815446   1.572   6.147   9.713 -0.0137  0.0499 -0.4806
  141SAPE   H8X15447   1.524   6.239   9.672  1.2600  0.4633 -1.1030
  141SAPE   H8Y15448   1.519   6.054   9.682 -0.5579  0.4315 -0.7074
  141SAPE   C3915449   1.718   6.149   9.656 -0.2094 -0.6377 -0.3696
  141SAPE   H9X15450   1.781   6.088   9.725  1.3692  0.8976 -0.3883
  141SAPE   H9Y15451   1.745   6.255   9.674 -0.2518 -0.5608 -0.7511
  141SAPE  C31015452   1.725   6.098   9.510  0.2170  0.4540 -0.1240
  141SAPE  H10X15453   1.694   5.992   9.511 -0.8837  0.7327 -1.4714
  141SAPE  H10Y15454   1.834   6.099   9.486  1.0729 -1.9380  2.9344
  141SAPE  C31115455   1.651   6.191   9.418  0.0400  0.2360 -0.2900
  141SAPE  H11X15456   1.549   6.214   9.456  1.0926  3.2036  1.0138
  141SAPE  H11Y15457   1.640   6.144   9.318 -0.0976  1.7397 -1.0045
  141SAPE  C31215458   1.704   6.334   9.411 -0.3968 -1.0830  0.0610
  141SAPE  H12X15459   1.813   6.319   9.393 -0.5749  0.0405 -2.4719
  141SAPE  H12Y15460   1.680   6.386   9.506 -1.2655 -0.7640 -0.3222
  141SAPE  C31315461   1.671   6.414   9.286  0.2732 -0.0882  0.1809
  141SAPE  H13X15462   1.659   6.524   9.295 -1.8324 -0.3757  1.3449
  141SAPE  H13Y15463   1.568   6.381   9.263 -1.2119  1.4553  3.8345
  141SAPE  C31415464   1.767   6.384   9.175  0.4560  0.2665  0.0893
  141SAPE  H14X15465   1.731   6.426   9.079 -0.4769 -0.7292 -0.0130
  141SAPE  H14Y15466   1.781   6.276   9.154  0.9308  0.6445 -1.7181
  141SAPE  C31515467   1.910   6.442   9.192  0.2306 -0.7167  0.2167
  141SAPE  H15X15468   1.973   6.433   9.101 -1.0758 -1.6408 -0.6309
  141SAPE  H15Y15469   1.966   6.397   9.277  0.7305 -1.0247 -0.2668
  141SAPE  C31615470   1.914   6.599   9.226  0.3669  0.2747 -0.1213
  141SAPE  H16X15471   1.893   6.619   9.333 -2.4528  0.3652 -0.6080
  141SAPE  H16Y15472   1.827   6.638   9.167 -1.6033 -3.6295 -0.1140
  141SAPE  C31715473   2.046   6.678   9.200  0.1686  0.8599 -0.2903
  141SAPE  H17X15474   2.028   6.785   9.223 -1.9381  0.4948 -0.0041
  141SAPE  H17Y15475   2.082   6.658   9.097 -1.1411 -1.7774 -0.3469
  141SAPE  C31815476   2.153   6.626   9.291  0.3162  0.7576 -0.3183
  141SAPE  H18X15477   2.249   6.682   9.291  0.7102  0.0953 -0.6787
  141SAPE  H18Y15478   2.179   6.519   9.276 -2.7109 -0.1711  0.1849
  141SAPE  H18Z15479   2.111   6.625   9.394 -0.9023 -3.7379 -0.6313
  142SAPE     N15480   3.195   5.001  11.256 -0.0529  0.1294 -0.2682
  142SAPE   HN115481   3.288   4.969  11.290  0.3413 -2.1598 -3.1806
  142SAPE   HN215482   3.197   5.099  11.223  3.5363  1.2481  2.5371
  142SAPE   HN315483   3.135   5.008  11.341 -2.1017 -3.1767 -1.2582
  142SAPE   C1215484   3.134   4.902  11.163 -0.3087  0.2121  0.2002
  142SAPE  H12A15485   3.167   4.803  11.202  1.8742  0.6284 -0.4175
  142SAPE  H12B15486   3.176   4.917  11.061  0.6372  0.5621  0.6230
  142SAPE   C1115487   2.987   4.890  11.162  0.2479 -0.5337 -0.5496
  142SAPE  H11A15488   2.967   4.844  11.261  1.6217 -0.6179 -0.2907
  142SAPE  H11B15489   2.946   4.824  11.082 -0.5592 -0.4979 -0.1699
  142SAPE     P15490   2.804   5.057  11.230  0.0014 -0.2695  0.2276
  142SAPE   O1315491   2.836   5.041  11.374  0.4222  0.6404  0.2773
  142SAPE   O1415492   2.763   5.191  11.180  0.1654  0.5038  0.2990
  142SAPE   O1215493   2.928   5.017  11.154 -0.1476  0.2397 -0.5076
  142SAPE   O1115494   2.706   4.950  11.169  0.3383  0.3028 -0.7937
  142SAPE    C115495   2.603   4.991  11.078  0.2026 -0.1856  0.2522
  142SAPE    HA15496   2.551   5.085  11.105 -0.0577 -0.6338  1.3389
  142SAPE    HB15497   2.644   4.994  10.974 -0.4292 -1.0165 -0.0317
  142SAPE    C215498   2.488   4.886  11.086 -0.7981  0.0994 -0.2780
  142SAPE    HS15499   2.449   4.880  11.190 -0.3699 -2.5159 -0.2123
  142SAPE   O2115500   2.533   4.759  11.045 -0.2947 -0.5986  0.4266
  142SAPE   C2115501   2.475   4.647  11.086 -0.2871 -0.2489 -0.6729
  142SAPE   O2215502   2.385   4.645  11.170  0.6324  0.7615  0.3741
  142SAPE   C2215503   2.540   4.528  11.023  0.1232 -0.4278  0.0097
  142SAPE   H2R15504   2.642   4.562  10.995 -0.5209  0.8166 -0.8755
  142SAPE   H2S15505   2.554   4.440  11.091 -1.1103 -0.5876  0.0692
  142SAPE    C315506   2.375   4.913  10.980 -0.2626  0.0799 -1.2190
  142SAPE    HX15507   2.357   5.022  10.994 -1.6479 -0.2132 -0.4761
  142SAPE    HY15508   2.291   4.847  11.010  0.0040 -0.4462 -1.6105
  142SAPE   O3115509   2.409   4.887  10.844  0.1625  0.0549 -0.3949
  142SAPE   C3115510   2.320   4.924  10.755 -0.9398 -0.0703  0.1331
  142SAPE   O3215511   2.212   4.971  10.779  0.4492 -0.1775  0.4988
  142SAPE   C3215512   2.373   4.901  10.611 -0.3421  0.4802  0.1857
  142SAPE   H2X15513   2.378   4.790  10.605  0.6594  0.5735 -1.2065
  142SAPE   H2Y15514   2.478   4.938  10.611 -0.7550  1.7124  1.1670
  142SAPE   C2315515   2.455   4.466  10.912 -0.7327  0.6837 -0.5935
  142SAPE   H3R15516   2.356   4.447  10.959 -0.8608  0.4569 -0.9524
  142SAPE   H3S15517   2.503   4.373  10.876 -1.9850 -0.2246  0.0199
  142SAPE   C2415518   2.433   4.553  10.786  0.7767 -0.3421  0.3297
  142SAPE   H4R15519   2.374   4.640  10.821 -0.3092 -0.8087 -0.3172
  142SAPE   H4S15520   2.367   4.494  10.720  0.9211  0.4833 -0.5719
  142SAPE   C2515521   2.560   4.602  10.722 -0.2276  0.4272  0.0765
  142SAPE   H5R15522   2.604   4.676  10.791  2.0619 -2.2274  1.6788
  142SAPE   C2615523   2.605   4.576  10.599 -0.3813 -0.7308  0.6821
  142SAPE   H6R15524   2.694   4.625  10.557 -0.8676  0.2733  0.7932
  142SAPE   C2715525   2.529   4.485  10.506 -0.4773  0.3449  0.4178
  142SAPE   H7R15526   2.566   4.518  10.407 -3.1895  2.7894  0.0959
  142SAPE   H7S15527   2.422   4.511  10.491  0.1491  1.9586 -1.7325
  142SAPE   C2815528   2.546   4.339  10.527  0.5508  0.6659  0.4758
  142SAPE   H8R15529   2.570   4.314  10.631 -3.4997  0.7778  1.5899
  142SAPE   C2915530   2.538   4.248  10.426  0.5128  0.6320  0.3522
  142SAPE   H9R15531   2.557   4.143  10.452 -1.3846  0.1572 -0.0700
  142SAPE  C21015532   2.512   4.270  10.278  0.0782  0.3445 -0.2100
  142SAPE  H10R15533   2.433   4.346  10.264 -0.4726 -0.6562 -3.3627
  142SAPE  H10S15534   2.463   4.173  10.254  1.1732  0.0703 -1.5127
  142SAPE  C21115535   2.633   4.309  10.203 -0.6672  0.1174 -0.6675
  142SAPE  H11R15536   2.717   4.359  10.253 -1.0050  0.3409 -0.3206
  142SAPE  C21215537   2.644   4.280  10.075 -0.6664 -0.1688  0.6846
  142SAPE  H12R15538   2.735   4.306  10.020 -0.9130 -0.2407  0.2352
  142SAPE  C21315539   2.536   4.218   9.983 -0.5635  0.5081  0.1069
  142SAPE  H13R15540   2.532   4.288   9.896 -1.3971  2.6380  1.7642
  142SAPE  H13S15541   2.432   4.225  10.022 -1.6372 -0.8492 -2.2643
  142SAPE  C21415542   2.575   4.075   9.952 -0.0093 -0.3582 -0.9181
  142SAPE  H14R15543   2.564   4.015  10.043  2.9503  0.9624  0.4602
  142SAPE  C21515544   2.626   4.026   9.841  0.3093  0.6506 -0.4307
  142SAPE  H15R15545   2.652   3.920   9.826  0.0098  0.5707 -0.3871
  142SAPE  C21615546   2.662   4.110   9.712 -0.2832  0.2054 -0.5296
  142SAPE  H16R15547   2.772   4.109   9.694  0.0780 -1.7627  1.3325
  142SAPE  H16S15548   2.614   4.210   9.718 -2.6611 -0.9057  0.4134
  142SAPE  C21715549   2.600   4.043   9.589 -0.2155  0.2764  0.0070
  142SAPE  H17R15550   2.491   4.034   9.610 -0.2855 -0.8424 -0.7382
  142SAPE  H17S15551   2.638   3.939   9.593  1.7148  0.9130 -0.8350
  142SAPE  C21815552   2.632   4.110   9.459 -0.6123  0.0591  0.3617
  142SAPE  H18R15553   2.734   4.155   9.464 -0.2046 -0.9412  1.4677
  142SAPE  H18S15554   2.557   4.183   9.422  0.2046  0.3949 -0.6881
  142SAPE  C21915555   2.646   4.000   9.348  0.1100  0.2788 -0.1896
  142SAPE  H19R15556   2.564   3.925   9.359 -0.1014  0.5457  0.0743
  142SAPE  H19S15557   2.739   3.943   9.371 -0.2550 -0.3807 -0.3143
  142SAPE  C22015558   2.645   4.056   9.209  0.3682 -0.0711  0.1936
  142SAPE  H20R15559   2.554   4.116   9.190  0.3061 -1.4048 -5.1859
  142SAPE  H20S15560   2.659   3.971   9.139 -2.3287 -1.3886  1.1091
  142SAPE  H20T15561   2.733   4.125   9.210  0.1844  0.1666  0.6560
  142SAPE   C3315562   2.285   4.958  10.497  0.6690  0.1158  0.1878
  142SAPE   H3X15563   2.269   5.067  10.506  2.2610  0.4731 -0.9491
  142SAPE   H3Y15564   2.181   4.919  10.491  1.3206 -1.7235  0.2612
  142SAPE   C3415565   2.350   4.931  10.364  0.2027  0.2167 -0.0187
  142SAPE   H4X15566   2.362   4.824  10.337  0.4577  0.6948 -1.9368
  142SAPE   H4Y15567   2.455   4.967  10.368  0.4754 -0.5421 -0.2143
  142SAPE   C3515568   2.295   5.013  10.247 -0.0852  0.0986  0.6004
  142SAPE   H5X15569   2.374   5.055  10.181  0.3198 -0.6956  0.5740
  142SAPE   H5Y15570   2.238   5.098  10.289 -2.0600 -1.0969  0.4901
  142SAPE   C3615571   2.201   4.939  10.150 -0.6451  0.6975  0.3504
  142SAPE   H6X15572   2.099   4.959  10.187 -0.7183 -0.9744  1.1348
  142SAPE   H6Y15573   2.219   4.829  10.149 -0.7875  0.6694 -0.7347
  142SAPE   C3715574   2.209   4.982  10.004  0.5947  0.3572 -0.1576
  142SAPE   H7X15575   2.312   4.989   9.961 -0.0667  0.9842 -1.7123
  142SAPE   H7Y15576   2.173   5.087  10.007  0.5509  0.3486 -0.3817
  142SAPE   C3815577   2.122   4.901   9.908 -0.2137 -0.5557 -0.4135
  142SAPE   H8X15578   2.017   4.925   9.938  0.5197  1.0926  0.9848
  142SAPE   H8Y15579   2.141   4.793   9.925 -1.7037 -0.9938 -1.3239
  142SAPE   C3915580   2.137   4.939   9.758 -0.2055  0.2298 -0.6168
  142SAPE   H9X15581   2.228   4.907   9.703 -2.2187 -2.1960 -2.8346
  142SAPE   H9Y15582   2.125   5.048   9.743 -0.8077  0.3612  0.6575
  142SAPE  C31015583   2.025   4.861   9.680  0.8949  0.3226  1.0128
  142SAPE  H10X15584   1.928   4.892   9.723  0.2378  0.3747 -0.4493
  142SAPE  H10Y15585   2.035   4.752   9.695  1.9802  0.4958  1.6494
  142SAPE  C31115586   2.028   4.900   9.527  0.0595 -0.2001 -0.8387
  142SAPE  H11X15587   2.009   5.009   9.527  1.1700  0.0322  1.1135
  142SAPE  H11Y15588   1.936   4.865   9.475 -2.1452  2.9458  0.6241
  142SAPE  C31215589   2.155   4.872   9.450 -0.3601 -0.1125  0.1213
  142SAPE  H12X15590   2.216   4.793   9.498 -0.1195  1.8024  3.2322
  142SAPE  H12Y15591   2.216   4.964   9.438 -1.4656  1.1596  3.2344
  142SAPE  C31315592   2.117   4.830   9.310 -1.1100  0.4078 -0.4111
  142SAPE  H13X15593   2.031   4.897   9.287 -1.1163  1.1322  1.5569
  142SAPE  H13Y15594   2.066   4.732   9.300 -2.3479  1.2394 -3.8193
  142SAPE  C31415595   2.231   4.846   9.206 -0.1979 -0.1244 -0.2703
  142SAPE  H14X15596   2.320   4.788   9.240  0.0685  0.7774  0.5968
  142SAPE  H14Y15597   2.273   4.949   9.209 -0.5303  0.0788 -1.7273
  142SAPE  C31515598   2.188   4.810   9.065 -0.1351 -0.0921  0.6785
  142SAPE  H15X15599   2.264   4.848   8.995 -1.1614 -0.3352 -0.6019
  142SAPE  H15Y15600   2.098   4.867   9.035 -0.2870 -1.2603 -1.2925
  142SAPE  C31615601   2.157   4.663   9.052  0.4686 -0.3245 -0.1505
  142SAPE  H16X15602   2.077   4.612   9.109  1.9009 -0.9355  1.4228
  142SAPE  H16Y15603   2.247   4.608   9.088  0.8727  0.2670 -0.2322
  142SAPE  C31715604   2.137   4.621   8.907 -0.2628  0.7080 -0.7258
  142SAPE  H17X15605   2.048   4.668   8.860 -0.4504 -0.6032 -1.7622
  142SAPE  H17Y15606   2.099   4.517   8.916  0.2770  0.4793 -0.9922
  142SAPE  C31815607   2.257   4.620   8.812  0.6029 -0.5392  1.1312
  142SAPE  H18X15608   2.228   4.590   8.709  0.9136  1.2752  0.4670
  142SAPE  H18Y15609   2.344   4.558   8.840  1.9409  1.2985  1.2557
  142SAPE  H18Z15610   2.297   4.723   8.795 -0.6855 -0.3608 -1.1336
  143SAPE     N15611   3.926   5.332  10.854 -0.0374  0.0592  0.1980
  143SAPE   HN115612   3.935   5.435  10.842  3.0044 -0.2317 -1.0050
  143SAPE   HN215613   4.007   5.304  10.796 -0.4155 -1.0539  0.1831
  143SAPE   HN315614   3.841   5.310  10.798 -1.4042  2.7084  1.0531
  143SAPE   C1215615   3.932   5.292  11.002  0.1546  0.9774 -0.2342
  143SAPE  H12A15616   3.833   5.313  11.049  1.0540  2.0511  1.2943
  143SAPE  H12B15617   4.008   5.357  11.051 -1.5114  2.0638  1.0125
  143SAPE   C1115618   3.968   5.145  11.032  0.3628  0.0722 -0.1420
  143SAPE  H11A15619   4.078   5.129  11.044 -0.0127 -1.6217  1.6887
  143SAPE  H11B15620   3.933   5.080  10.949 -0.7811  1.4321 -0.7530
  143SAPE     P15621   3.968   5.050  11.272  0.3920  0.3831 -0.3683
  143SAPE   O1315622   4.076   5.138  11.323  0.0627 -0.4876 -0.2443
  143SAPE   O1415623   3.866   5.012  11.375 -0.4159 -0.0190 -0.1781
  143SAPE   O1215624   3.899   5.105  11.148 -0.2019  0.3667  0.4396
  143SAPE   O1115625   4.032   4.921  11.214 -0.1659 -0.0976 -0.2087
  143SAPE    C115626   4.158   4.868  11.260  0.0925 -0.3776 -0.3992
  143SAPE    HA15627   4.180   4.903  11.363 -2.3506 -1.0153  0.4062
  143SAPE    HB15628   4.150   4.759  11.277  0.7200 -0.0410  2.5126
  143SAPE    C215629   4.270   4.897  11.154 -1.0033 -0.5897 -0.5797
  143SAPE    HS15630   4.275   5.003  11.122 -0.1066 -1.8773 -5.6566
  143SAPE   O2115631   4.241   4.806  11.046  0.2771 -0.3638  0.5051
  143SAPE   C2115632   4.236   4.871  10.928 -0.0212 -0.9215  0.1428
  143SAPE   O2215633   4.269   4.986  10.904 -0.6033 -0.7552  0.2342
  143SAPE   C2215634   4.190   4.774  10.832  0.0208  0.0928 -0.0680
  143SAPE   H2R15635   4.274   4.708  10.802  0.3737  0.5782 -0.1605
  143SAPE   H2S15636   4.105   4.714  10.872  1.1314 -0.3806  1.6588
  143SAPE    C315637   4.408   4.849  11.196 -0.4035 -0.0690 -0.3871
  143SAPE    HX15638   4.416   4.739  11.183 -2.4484 -0.7127  2.7771
  143SAPE    HY15639   4.422   4.863  11.305 -0.7744  0.4209 -0.3988
  143SAPE   O3115640   4.505   4.931  11.127 -0.4937  0.1866  0.1384
  143SAPE   C3115641   4.604   4.867  11.067 -0.3443  0.5244  0.2780
  143SAPE   O3215642   4.620   4.742  11.076  0.1715  0.0188  0.6019
  143SAPE   C3215643   4.687   4.960  10.980 -0.2051  0.0069  0.5025
  143SAPE   H2X15644   4.782   4.981  11.033 -0.0756  2.1393 -0.4860
  143SAPE   H2Y15645   4.634   5.055  10.957 -0.3762 -1.0315 -4.6376
  143SAPE   C2315646   4.142   4.844  10.693 -0.7495  0.4298 -0.9151
  143SAPE   H3R15647   4.109   4.762  10.626 -1.8338  0.7036 -0.7406
  143SAPE   H3S15648   4.227   4.887  10.636 -0.4920 -1.2143 -1.8009
  143SAPE   C2415649   4.022   4.937  10.701 -0.1741 -0.1611  0.5249
  143SAPE   H4R15650   4.015   4.989  10.603  0.4166 -0.6923  0.1931
  143SAPE   H4S15651   4.049   5.020  10.769  0.1532  0.1778 -0.0130
  143SAPE   C2515652   3.899   4.860  10.742 -0.4981 -1.0219  0.5652
  143SAPE   H5R15653   3.880   4.844  10.849  1.1026 -0.7367  0.9166
  143SAPE   C2615654   3.811   4.810  10.652 -0.4455  0.5350 -0.2735
  143SAPE   H6R15655   3.727   4.748  10.686 -0.0504  0.8889  1.4777
  143SAPE   C2715656   3.827   4.820  10.504  0.1438 -0.1774  1.0224
  143SAPE   H7R15657   3.924   4.771  10.477  1.5379  2.0454  1.7331
  143SAPE   H7S15658   3.835   4.924  10.468 -0.8094 -0.6688 -0.7216
  143SAPE   C2815659   3.723   4.752  10.422  0.3204  0.4202  0.2165
  143SAPE   H8R15660   3.735   4.643  10.411  0.9330  0.4874  0.2158
  143SAPE   C2915661   3.624   4.818  10.356 -0.0162  0.1007  0.7629
  143SAPE   H9R15662   3.540   4.757  10.319  0.1478 -0.8862  1.9620
  143SAPE  C21015663   3.603   4.969  10.367  0.7072  0.3702 -0.0380
  143SAPE  H10R15664   3.555   5.001  10.273 -1.2320 -3.4588 -0.5089
  143SAPE  H10S15665   3.694   5.031  10.382 -0.3089  1.3463  2.9218
  143SAPE  C21115666   3.515   4.992  10.487 -0.0005 -0.7786 -0.0560
  143SAPE  H11R15667   3.563   5.010  10.584 -0.3280 -0.5526  0.0636
  143SAPE  C21215668   3.383   5.013  10.483 -0.7944 -0.2065 -0.4096
  143SAPE  H12R15669   3.330   5.026  10.579 -0.3328 -1.1983 -0.0035
  143SAPE  C21315670   3.289   5.004  10.363  0.2667  0.0676 -0.1723
  143SAPE  H13R15671   3.303   5.084  10.288 -1.7345 -0.4152 -1.1221
  143SAPE  H13S15672   3.184   5.024  10.394 -0.0936 -0.5732 -0.9551
  143SAPE  C21415673   3.288   4.869  10.287 -0.3375  0.1173 -0.9896
  143SAPE  H14R15674   3.350   4.792  10.335  1.3111 -0.1482 -3.3597
  143SAPE  C21515675   3.225   4.860  10.169  0.1343 -0.6303  0.7743
  143SAPE  H15R15676   3.211   4.761  10.124 -4.9410 -1.0799  2.7027
  143SAPE  C21615677   3.140   4.960  10.095  0.6628 -0.0623 -0.1272
  143SAPE  H16R15678   3.081   5.029  10.159 -1.0560  0.1074 -1.8125
  143SAPE  H16S15679   3.063   4.904  10.037  0.1676  1.4933 -1.0479
  143SAPE  C21715680   3.223   5.042   9.998  0.1578  0.0269  0.5109
  143SAPE  H17R15681   3.287   4.970   9.943  2.0627 -0.0073  2.6245
  143SAPE  H17S15682   3.286   5.111  10.058 -0.4301 -0.8002  2.1293
  143SAPE  C21815683   3.148   5.119   9.893 -0.0122  1.1271 -0.6765
  143SAPE  H18R15684   3.077   5.186   9.946 -3.0204 -1.1505 -1.5200
  143SAPE  H18S15685   3.091   5.051   9.826 -1.2473 -0.8261  2.1910
  143SAPE  C21915686   3.241   5.194   9.800 -0.0263  0.1414 -0.3303
  143SAPE  H19R15687   3.313   5.122   9.756 -0.7785 -0.2046 -1.0131
  143SAPE  H19S15688   3.299   5.266   9.863 -0.5836  0.6666 -0.4053
  143SAPE  C22015689   3.183   5.264   9.679  0.3236  0.7319 -0.2049
  143SAPE  H20R15690   3.259   5.287   9.601  1.2289 -1.0274  0.1188
  143SAPE  H20S15691   3.122   5.354   9.701 -0.8553  0.0625 -0.6492
  143SAPE  H20T15692   3.111   5.198   9.626 -1.3475  2.0012  0.3980
  143SAPE   C3315693   4.725   4.896  10.846 -0.0289 -0.8065  0.9482
  143SAPE   H3X15694   4.646   4.836  10.798 -0.0091  0.5050 -0.8103
  143SAPE   H3Y15695   4.819   4.836  10.852  0.2045 -0.5308  0.1045
  143SAPE   C3415696   4.753   5.003  10.735  0.0053 -0.1749  0.2703
  143SAPE   H4X15697   4.824   5.073  10.784  2.3889 -2.1183 -0.1917
  143SAPE   H4Y15698   4.660   5.052  10.700  1.1140  1.1279 -0.9881
  143SAPE   C3515699   4.830   4.949  10.606  0.1114 -0.1304 -0.6108
  143SAPE   H5X15700   4.923   4.903  10.646 -1.0031 -1.0025  1.0681
  143SAPE   H5Y15701   4.848   5.039  10.544  0.2360  0.5103  0.3382
  143SAPE   C3615702   4.740   4.841  10.537  0.4042 -0.7927 -0.0218
  143SAPE   H6X15703   4.635   4.873  10.519  0.1249 -1.7750 -0.1979
  143SAPE   H6Y15704   4.739   4.747  10.596 -0.0840 -1.9809 -1.8355
  143SAPE   C3715705   4.791   4.808  10.396 -0.0749  0.3260  0.4920
  143SAPE   H7X15706   4.898   4.777  10.396 -1.2046 -4.2602 -0.4987
  143SAPE   H7Y15707   4.777   4.893  10.326  0.4451  0.1413  0.1499
  143SAPE   C3815708   4.712   4.695  10.329 -0.0858 -0.4879 -0.1398
  143SAPE   H8X15709   4.605   4.719  10.348  0.2976 -0.3406  2.1442
  143SAPE   H8Y15710   4.748   4.597  10.368  2.3770 -0.7759 -2.8225
  143SAPE   C3915711   4.722   4.693  10.177 -0.1715 -0.2104  0.5937
  143SAPE   H9X15712   4.830   4.685  10.156  0.4373 -2.8836  3.8411
  143SAPE   H9Y15713   4.671   4.783  10.135 -0.9416 -0.8629  0.1039
  143SAPE  C31015714   4.642   4.573  10.120  0.4854  0.5560 -0.5128
  143SAPE  H10X15715   4.533   4.594  10.122  0.3992  0.1485 -0.7996
  143SAPE  H10Y15716   4.663   4.478  10.173 -0.4565 -0.0910 -1.2551
  143SAPE  C31115717   4.671   4.547   9.977  0.0765  0.3198 -0.2849
  143SAPE  H11X15718   4.781   4.537   9.973  0.2049  1.2940  0.3631
  143SAPE  H11Y15719   4.648   4.645   9.930 -1.1384  1.0420  1.6778
  143SAPE  C31215720   4.583   4.438   9.914 -0.2596 -0.3792 -0.1708
  143SAPE  H12X15721   4.484   4.436   9.966  0.4527 -0.2635  1.2404
  143SAPE  H12Y15722   4.628   4.340   9.940  0.3057  0.4351  2.1243
  143SAPE  C31315723   4.573   4.451   9.756 -0.0027  0.1444 -0.7847
  143SAPE  H13X15724   4.676   4.439   9.715  0.5319  0.1466  0.5253
  143SAPE  H13Y15725   4.536   4.554   9.737  0.1591  0.5978  1.1520
  143SAPE  C31415726   4.472   4.355   9.703 -1.0436  0.0451 -0.8353
  143SAPE  H14X15727   4.378   4.356   9.761  0.7179  1.8923  2.2502
  143SAPE  H14Y15728   4.500   4.247   9.709  0.3430  0.4314  0.1812
  143SAPE  C31515729   4.436   4.386   9.556 -0.0342  0.1621  0.9003
  143SAPE  H15X15730   4.527   4.415   9.500  0.4020 -1.4392  0.7385
  143SAPE  H15Y15731   4.374   4.479   9.555  0.4118  0.7046 -4.2614
  143SAPE  C31615732   4.357   4.272   9.490 -0.5746  0.1510  0.2103
  143SAPE  H16X15733   4.263   4.255   9.547 -0.5004  1.6148  0.8123
  143SAPE  H16Y15734   4.413   4.176   9.499 -0.4233  0.0209 -1.8034
  143SAPE  C31715735   4.334   4.284   9.337 -0.4491 -0.2249 -0.4160
  143SAPE  H17X15736   4.434   4.273   9.292 -0.5918 -3.2995 -0.1754
  143SAPE  H17Y15737   4.275   4.374   9.308 -0.8546 -0.8271 -1.4961
  143SAPE  C31815738   4.250   4.167   9.277 -0.7234  0.6254  0.2393
  143SAPE  H18X15739   4.288   4.066   9.304 -0.7460  0.4553 -0.3441
  143SAPE  H18Y15740   4.257   4.173   9.166 -0.0697  0.5520  0.2715
  143SAPE  H18Z15741   4.146   4.161   9.316  0.0669 -2.8010  2.2129
  144SAPE     N15742   5.584   2.756  11.413  0.1103  0.7324 -0.1339
  144SAPE   HN115743   5.501   2.706  11.375 -1.3464  2.7321  0.2785
  144SAPE   HN215744   5.648   2.687  11.459 -1.8828  0.2204  2.0436
  144SAPE   HN315745   5.536   2.812  11.486  0.8929 -0.9113  1.7561
  144SAPE   C1215746   5.661   2.848  11.323 -0.0958  0.0682 -0.2407
  144SAPE  H12A15747   5.755   2.879  11.374  0.3202  0.8154 -1.3954
  144SAPE  H12B15748   5.609   2.944  11.303 -1.6250 -0.8093 -0.6863
  144SAPE   C1115749   5.697   2.785  11.189  0.2139  0.2612  0.8003
  144SAPE  H11A15750   5.728   2.682  11.215 -1.3201  0.2210  2.7057
  144SAPE  H11B15751   5.778   2.842  11.138  0.1738  0.6509  1.1698
  144SAPE     P15752   5.501   2.652  11.069  0.9592  0.1813 -0.3719
  144SAPE   O1315753   5.476   2.573  11.192  0.9649 -0.0990  0.5345
  144SAPE   O1415754   5.377   2.698  10.996 -0.3611 -0.1485 -0.5148
  144SAPE   O1215755   5.587   2.782  11.100  0.1793  0.4427  0.7608
  144SAPE   O1115756   5.575   2.567  10.967 -0.0810 -0.0932 -0.1293
  144SAPE    C115757   5.671   2.632  10.880  0.2021  0.9754 -0.2630
  144SAPE    HA15758   5.671   2.743  10.885  1.5489  0.9945 -0.3710
  144SAPE    HB15759   5.773   2.594  10.904  0.0343  0.1687 -0.7931
  144SAPE    C215760   5.659   2.603  10.723  0.2282 -0.4611  0.2738
  144SAPE    HS15761   5.724   2.680  10.676  2.3663 -1.1317  1.9368
  144SAPE   O2115762   5.522   2.611  10.680  0.5844  0.0383 -0.8296
  144SAPE   C2115763   5.476   2.729  10.648 -0.3081  0.1958 -0.8997
  144SAPE   O2215764   5.539   2.834  10.667 -0.6249  0.0583 -0.4216
  144SAPE   C2215765   5.346   2.720  10.579  0.1529  0.4139  0.7721
  144SAPE   H2R15766   5.331   2.613  10.556  0.8277  0.2552  1.0728
  144SAPE   H2S15767   5.259   2.750  10.642  0.8432  1.2518  1.3577
  144SAPE    C315768   5.708   2.465  10.679  0.1809  0.4075  0.2180
  144SAPE    HX15769   5.654   2.393  10.744 -1.3306  2.4149  1.2795
  144SAPE    HY15770   5.818   2.464  10.694  0.9403 -0.7770 -3.9408
  144SAPE   O3115771   5.695   2.440  10.536  0.5335  0.0286 -0.3928
  144SAPE   C3115772   5.579   2.379  10.493  0.5407 -0.1093 -0.5370
  144SAPE   O3215773   5.494   2.335  10.567 -0.0697 -0.3685  0.2790
  144SAPE   C3215774   5.580   2.379  10.337  0.0298  0.3626  0.1051
  144SAPE   H2X15775   5.684   2.361  10.301 -0.8831 -0.2630 -2.4506
  144SAPE   H2Y15776   5.553   2.481  10.302  0.5365  0.8804  1.1944
  144SAPE   C2315777   5.330   2.813  10.452  0.6962  0.2437 -1.1652
  144SAPE   H3R15778   5.401   2.784  10.373 -0.2055 -2.2064 -1.1507
  144SAPE   H3S15779   5.356   2.919  10.476  0.4616  0.2289 -0.8307
  144SAPE   C2415780   5.183   2.811  10.392 -0.7531 -1.1272  0.5160
  144SAPE   H4R15781   5.182   2.885  10.308  1.8825 -0.6748  0.8185
  144SAPE   H4S15782   5.112   2.852  10.467 -0.0753 -0.6473  0.8994
  144SAPE   C2515783   5.126   2.676  10.344 -0.0027 -0.0080  0.3690
  144SAPE   H5R15784   5.123   2.596  10.419  1.8952 -1.2984 -0.8398
  144SAPE   C2615785   5.092   2.644  10.221 -0.2330 -0.2065  0.4360
  144SAPE   H6R15786   5.059   2.543  10.194  2.2883 -0.9299 -0.1941
  144SAPE   C2715787   5.112   2.737  10.101  0.0841  0.3862  0.4126
  144SAPE   H7R15788   5.057   2.830  10.125  0.1605  0.6256 -0.3016
  144SAPE   H7S15789   5.065   2.680  10.019  1.8592 -1.0387  0.3263
  144SAPE   C2815790   5.252   2.786  10.069  0.2969  0.3105 -0.8099
  144SAPE   H8R15791   5.315   2.793  10.159 -0.2935 -2.8114 -0.0404
  144SAPE   C2915792   5.305   2.826   9.947 -0.4748 -0.5842 -0.4178
  144SAPE   H9R15793   5.403   2.875   9.940 -1.0809  0.5512 -1.1863
  144SAPE  C21015794   5.230   2.804   9.818  0.2362 -0.0979 -0.1939
  144SAPE  H10R15795   5.190   2.701   9.822 -0.1012  0.0761  1.4444
  144SAPE  H10S15796   5.286   2.806   9.722 -0.0674 -1.9813 -0.4473
  144SAPE  C21115797   5.116   2.892   9.800 -0.0593 -0.2209 -0.1648
  144SAPE  H11R15798   5.104   2.957   9.889  0.7609 -0.4999  0.1645
  144SAPE  C21215799   5.024   2.906   9.706 -0.4178  0.4107  0.3004
  144SAPE  H12R15800   4.963   2.997   9.698  0.7890  1.1225 -1.6290
  144SAPE  C21315801   5.010   2.816   9.584  0.5449 -0.1250 -0.1791
  144SAPE  H13R15802   5.106   2.802   9.530  1.0951 -1.3478  1.0367
  144SAPE  H13S15803   4.945   2.866   9.509  1.0286  1.1655  0.2221
  144SAPE  C21415804   4.950   2.679   9.614  0.0505  0.0861 -0.0644
  144SAPE  H14R15805   4.933   2.662   9.721  0.0508 -0.4395 -0.1446
  144SAPE  C21515806   4.918   2.579   9.526 -0.2452  0.1222  0.0322
  144SAPE  H15R15807   4.868   2.492   9.572  1.3871 -0.4236  0.8342
  144SAPE  C21615808   4.940   2.575   9.381 -0.6331 -0.5902 -0.1899
  144SAPE  H16R15809   4.952   2.466   9.360  0.4566 -0.1784 -1.9991
  144SAPE  H16S15810   5.034   2.631   9.359 -0.6152 -0.7414 -0.5231
  144SAPE  C21715811   4.821   2.620   9.302  0.5625 -0.2505  0.0803
  144SAPE  H17R15812   4.823   2.730   9.289  0.5542 -0.4848 -2.2419
  144SAPE  H17S15813   4.723   2.585   9.341 -0.2773 -1.4967 -2.8797
  144SAPE  C21815814   4.822   2.581   9.156 -0.2701 -0.3531  0.0065
  144SAPE  H18R15815   4.817   2.471   9.145 -1.8090 -0.4153  0.9930
  144SAPE  H18S15816   4.920   2.619   9.120 -0.2499 -1.5401 -1.2411
  144SAPE  C21915817   4.702   2.633   9.073 -0.7064  0.0009 -0.4267
  144SAPE  H19R15818   4.714   2.743   9.075 -0.0769 -0.0711  0.4335
  144SAPE  H19S15819   4.612   2.608   9.132 -0.5774 -1.6328 -0.8643
  144SAPE  C22015820   4.699   2.579   8.931 -0.1253  0.9846  0.0617
  144SAPE  H20R15821   4.770   2.634   8.865  0.9319 -1.4232 -0.9205
  144SAPE  H20S15822   4.603   2.590   8.875  0.0037  0.2262 -0.3185
  144SAPE  H20T15823   4.733   2.474   8.929 -1.1083  0.5490  2.3745
  144SAPE   C3315824   5.488   2.258  10.292 -0.4935  0.1460  0.1293
  144SAPE   H3X15825   5.392   2.259  10.347  0.2265 -0.1918  1.4407
  144SAPE   H3Y15826   5.536   2.166  10.330 -0.0152  1.1427  2.0722
  144SAPE   C3415827   5.479   2.253  10.133  0.1128 -0.0719  0.3183
  144SAPE   H4X15828   5.433   2.156  10.103 -0.7832  0.8280 -1.3711
  144SAPE   H4Y15829   5.582   2.254  10.092  0.3045 -2.7427  0.5140
  144SAPE   C3515830   5.397   2.365  10.070  0.6705  0.5935 -0.0319
  144SAPE   H5X15831   5.442   2.464  10.094  1.5460 -0.2369  1.9240
  144SAPE   H5Y15832   5.296   2.358  10.115  0.4929 -1.4892 -0.6634
  144SAPE   C3615833   5.377   2.354   9.916  0.0388 -0.8365 -0.3889
  144SAPE   H6X15834   5.282   2.405   9.889 -1.2500 -1.1471  3.0588
  144SAPE   H6Y15835   5.353   2.249   9.889 -1.1482 -0.5367 -0.5602
  144SAPE   C3715836   5.498   2.411   9.849 -0.0801 -0.3052 -0.3300
  144SAPE   H7X15837   5.580   2.336   9.843  1.9542  1.7319  0.4885
  144SAPE   H7Y15838   5.533   2.498   9.909 -0.8969  0.4308 -0.8785
  144SAPE   C3815839   5.465   2.468   9.707 -0.1118 -0.2474 -0.4423
  144SAPE   H8X15840   5.555   2.528   9.683  0.8777 -1.9792 -1.2468
  144SAPE   H8Y15841   5.385   2.545   9.712  1.1129  0.9778  1.1461
  144SAPE   C3915842   5.434   2.361   9.611  0.3598  1.2428  0.0760
  144SAPE   H9X15843   5.331   2.320   9.622  1.3409 -1.4407  0.1416
  144SAPE   H9Y15844   5.505   2.278   9.633  0.4180  1.3661  0.3640
  144SAPE  C31015845   5.451   2.416   9.470 -0.7775  0.1027  0.3933
  144SAPE  H10X15846   5.398   2.344   9.404 -0.9747  0.6099 -0.0040
  144SAPE  H10Y15847   5.557   2.435   9.443 -1.1599 -0.2302 -1.4380
  144SAPE  C31115848   5.383   2.549   9.448 -0.0169  0.6224  0.0065
  144SAPE  H11X15849   5.444   2.623   9.505 -0.1858 -0.4109  1.6077
  144SAPE  H11Y15850   5.283   2.554   9.497  0.2988  1.4831  0.6078
  144SAPE  C31215851   5.395   2.579   9.301 -0.0292 -0.1905 -0.0765
  144SAPE  H12X15852   5.296   2.605   9.258  0.1293  1.0764  0.2913
  144SAPE  H12Y15853   5.420   2.498   9.229 -1.1896 -1.6164  1.0652
  144SAPE  C31315854   5.486   2.705   9.280  0.1778  0.2135 -0.2625
  144SAPE  H13X15855   5.589   2.681   9.314 -0.9201 -2.7156  1.4052
  144SAPE  H13Y15856   5.448   2.785   9.346  2.0615  0.5488  0.4759
  144SAPE  C31415857   5.484   2.742   9.131 -0.8904  0.2609  0.0439
  144SAPE  H14X15858   5.378   2.754   9.099 -1.9932 -2.5460  2.1788
  144SAPE  H14Y15859   5.521   2.659   9.067  0.0140  1.0511 -0.4886
  144SAPE  C31515860   5.563   2.872   9.112 -0.0173  0.4011 -0.3133
  144SAPE  H15X15861   5.658   2.874   9.168  0.2998  0.3899 -0.8482
  144SAPE  H15Y15862   5.503   2.950   9.163  0.9620  0.5393  0.6501
  144SAPE  C31615863   5.599   2.903   8.967  0.2525 -0.0153 -0.1376
  144SAPE  H16X15864   5.508   2.876   8.908  0.6929 -0.2235 -0.7334
  144SAPE  H16Y15865   5.688   2.839   8.948 -0.4900 -1.2937  0.5722
  144SAPE  C31715866   5.632   3.054   8.939 -0.1020  0.0400  0.7498
  144SAPE  H17X15867   5.727   3.076   8.993 -0.4936  0.2314  1.3632
  144SAPE  H17Y15868   5.550   3.108   8.990 -1.1040  0.3351 -1.0878
  144SAPE  C31815869   5.637   3.101   8.788 -0.5256 -0.2147 -0.7301
  144SAPE  H18X15870   5.673   3.205   8.776  1.2450 -0.7403 -0.3524
  144SAPE  H18Y15871   5.540   3.086   8.735  0.8020 -0.4094 -3.2751
  144SAPE  H18Z15872   5.707   3.031   8.736  0.1042 -2.2203  2.5538
  145SAPE     N15873   2.208   3.611  11.446 -0.0342  0.0365  0.0573
  145SAPE   HN115874   2.148   3.695  11.434 -1.1373 -0.6809  0.3803
  145SAPE   HN215875   2.144   3.533  11.471 -2.1404  1.5767 -0.2352
  145SAPE   HN315876   2.282   3.623  11.518 -1.7133  1.5184  1.6316
  145SAPE   C1215877   2.283   3.571  11.324 -0.0324  0.4394  0.3034
  145SAPE  H12A15878   2.210   3.510  11.268 -1.3692  1.7770  0.5198
  145SAPE  H12B15879   2.375   3.515  11.351  0.7428  1.7199  0.4142
  145SAPE   C1115880   2.316   3.700  11.237  0.5415  0.2015 -0.1861
  145SAPE  H11A15881   2.217   3.734  11.200 -0.0827 -3.4598 -2.4274
  145SAPE  H11B15882   2.380   3.667  11.152  0.6669 -1.0117  0.3547
  145SAPE     P15883   2.533   3.785  11.355  0.0393  0.0056 -0.1337
  145SAPE   O1315884   2.572   3.873  11.468 -0.2614  0.4626  0.1212
  145SAPE   O1415885   2.572   3.643  11.369  0.3284 -0.0540  0.1923
  145SAPE   O1215886   2.383   3.803  11.317 -0.0224 -0.1578 -0.3544
  145SAPE   O1115887   2.608   3.834  11.224  0.6895  0.3821  0.5346
  145SAPE    C115888   2.691   3.737  11.151  0.4689  0.7739 -0.1667
  145SAPE    HA15889   2.644   3.637  11.140  3.2221 -0.4693 -1.6596
  145SAPE    HB15890   2.709   3.774  11.048 -0.1004 -0.0410 -0.5713
  145SAPE    C215891   2.838   3.715  11.209 -0.0197  0.3140  0.3998
  145SAPE    HS15892   2.829   3.661  11.305  0.2636 -0.9644 -0.2673
  145SAPE   O2115893   2.903   3.842  11.224 -0.5097 -1.1003  0.2525
  145SAPE   C2115894   3.020   3.838  11.295 -0.3670  0.1445 -0.0004
  145SAPE   O2215895   3.067   3.732  11.341  0.2028 -0.5216 -0.3658
  145SAPE   C2215896   3.078   3.976  11.315 -0.4613 -1.4094 -0.1633
  145SAPE   H2R15897   3.019   4.036  11.244 -0.9777 -1.3002  0.3503
  145SAPE   H2S15898   3.050   4.009  11.418 -0.3947 -0.5540 -0.4124
  145SAPE    C315899   2.912   3.613  11.113 -0.2965 -0.3601  0.0456
  145SAPE    HX15900   2.867   3.514  11.134 -0.4736 -0.1537  0.6559
  145SAPE    HY15901   3.018   3.626  11.144 -1.3969  2.3259  3.2888
  145SAPE   O3115902   2.892   3.653  10.975 -0.0016 -0.6351 -0.2483
  145SAPE   C3115903   2.924   3.557  10.885  0.9599 -0.1231 -0.3177
  145SAPE   O3215904   2.993   3.461  10.914  0.2748 -0.3364 -0.0838
  145SAPE   C3215905   2.862   3.598  10.752  0.0059 -0.6180 -0.4231
  145SAPE   H2X15906   2.814   3.696  10.773 -0.5617 -1.1731  1.0040
  145SAPE   H2Y15907   2.777   3.527  10.741  0.7623 -1.4411 -1.1661
  145SAPE   C2315908   3.226   3.973  11.303  0.4617  0.2163  0.1566
  145SAPE   H3R15909   3.272   3.884  11.353  0.7032  0.3941  0.2510
  145SAPE   H3S15910   3.263   4.056  11.367 -0.3363 -1.2664  2.6799
  145SAPE   C2415911   3.278   3.987  11.155  0.1768  0.5686  0.4578
  145SAPE   H4R15912   3.388   4.005  11.161  0.3955  0.3534 -1.8152
  145SAPE   H4S15913   3.243   4.089  11.130  0.7696  0.7263  0.2450
  145SAPE   C2515914   3.258   3.884  11.048 -0.0849 -0.0623  0.3767
  145SAPE   H5R15915   3.320   3.795  11.062 -0.1314 -0.0167  0.9084
  145SAPE   C2615916   3.151   3.877  10.970  0.0825 -0.6935 -0.1816
  145SAPE   H6R15917   3.151   3.799  10.892  1.2679 -0.4187 -0.4766
  145SAPE   C2715918   3.051   3.989  10.956 -0.5186 -0.5043  0.0922
  145SAPE   H7R15919   3.110   4.056  10.889 -0.1796  0.1455  1.0070
  145SAPE   H7S15920   3.037   4.055  11.044  0.4920  1.0075 -0.8254
  145SAPE   C2815921   2.923   3.953  10.889 -0.0844  0.2027 -0.3152
  145SAPE   H8R15922   2.841   3.918  10.953  0.3017 -2.3035 -1.0886
  145SAPE   C2915923   2.878   3.988  10.765  0.6263 -0.5943  0.4280
  145SAPE   H9R15924   2.784   3.945  10.727 -0.8312  2.4109  0.3534
  145SAPE  C21015925   2.951   4.062  10.655 -0.3813  0.3758 -0.0874
  145SAPE  H10R15926   3.034   4.122  10.697  0.9561 -1.7447  0.4671
  145SAPE  H10S15927   2.877   4.128  10.605 -0.4105 -0.4430 -1.1866
  145SAPE  C21115928   3.016   3.961  10.558 -0.2377 -0.4218 -0.1542
  145SAPE  H11R15929   3.074   3.881  10.607 -1.0118 -0.6171  0.4553
  145SAPE  C21215930   3.012   3.977  10.425  0.2256 -0.2138 -0.7142
  145SAPE  H12R15931   3.062   3.907  10.357  0.1930  1.5909 -2.7088
  145SAPE  C21315932   2.938   4.089  10.352  0.6229  0.4582 -0.1273
  145SAPE  H13R15933   2.997   4.183  10.362  1.2608 -0.0163  0.7703
  145SAPE  H13S15934   2.835   4.112  10.388  1.0934 -0.4034  1.9502
  145SAPE  C21415935   2.905   4.055  10.210 -0.0142 -0.5964  0.2767
  145SAPE  H14R15936   2.816   3.994  10.188  0.5862 -1.6166  0.6109
  145SAPE  C21515937   2.958   4.116  10.099  0.1481  0.2326 -0.7658
  145SAPE  H15R15938   2.919   4.090   9.999 -0.2274 -0.7894 -0.3720
  145SAPE  C21615939   3.066   4.222  10.105 -0.2015  0.1051 -0.1372
  145SAPE  H16R15940   3.165   4.182  10.134 -0.2818 -0.5819 -0.7841
  145SAPE  H16S15941   3.053   4.293  10.189 -0.3778 -0.2989  0.1759
  145SAPE  C21715942   3.072   4.303   9.977  0.4820  0.8435  0.2406
  145SAPE  H17R15943   3.154   4.377   9.986  0.3167  1.0990 -0.3110
  145SAPE  H17S15944   2.979   4.363   9.970  0.9713  1.5159 -0.9047
  145SAPE  C21815945   3.084   4.229   9.847  0.5963  0.6248  1.5015
  145SAPE  H18R15946   2.994   4.166   9.828  0.6749  1.1410 -0.9192
  145SAPE  H18S15947   3.181   4.183   9.820  0.1798  0.6988 -0.2246
  145SAPE  C21915948   3.074   4.335   9.733 -0.3811 -0.9128  0.3783
  145SAPE  H19R15949   3.169   4.389   9.714 -1.0132  0.4899  1.0486
  145SAPE  H19S15950   3.008   4.421   9.757  2.4283  1.2673  0.8519
  145SAPE  C22015951   3.037   4.279   9.597 -0.3379 -0.3203 -0.0197
  145SAPE  H20R15952   3.081   4.181   9.571 -0.1519  0.1750 -1.7283
  145SAPE  H20S15953   3.069   4.346   9.514  0.5553 -2.0845 -1.1689
  145SAPE  H20T15954   2.926   4.281   9.597 -0.3455 -0.3438 -0.6755
  145SAPE   C3315955   2.972   3.593  10.633  0.8842 -0.3365 -0.1002
  145SAPE   H3X15956   3.000   3.487  10.617 -0.0825 -0.6390  0.1387
  145SAPE   H3Y15957   3.061   3.654  10.659 -0.5999  0.7608  2.8865
  145SAPE   C3415958   2.903   3.639  10.503  0.2281  0.0047  0.1437
  145SAPE   H4X15959   2.880   3.748  10.504  0.9696  0.1583  0.9798
  145SAPE   H4Y15960   2.809   3.581  10.494 -0.0138  0.3502  0.4198
  145SAPE   C3515961   2.980   3.614  10.370  0.9572  0.1517 -0.0956
  145SAPE   H5X15962   3.007   3.507  10.358  0.7973 -0.0806  1.4258
  145SAPE   H5Y15963   3.073   3.674  10.379  1.1191  0.3302 -2.4560
  145SAPE   C3615964   2.887   3.665  10.256 -0.2477  0.1106  0.1473
  145SAPE   H6X15965   2.853   3.766  10.287 -2.8061 -1.0189  1.2976
  145SAPE   H6Y15966   2.806   3.589  10.249  0.7255 -0.8960 -0.5360
  145SAPE   C3715967   2.953   3.665  10.124 -0.4032 -0.0688  0.4610
  145SAPE   H7X15968   2.946   3.564  10.078 -0.2561  0.2925 -0.3713
  145SAPE   H7Y15969   3.060   3.697  10.122 -0.2053 -0.6376  1.2141
  145SAPE   C3815970   2.865   3.746  10.023  0.1621  0.0734 -0.3417
  145SAPE   H8X15971   2.837   3.842  10.071  2.9680  0.5939  0.4195
  145SAPE   H8Y15972   2.771   3.700   9.984  0.4058 -0.0947 -0.7366
  145SAPE   C3915973   2.952   3.798   9.909 -0.2756 -1.0413 -0.6763
  145SAPE   H9X15974   3.031   3.870   9.939  0.4067 -2.6543  1.7343
  145SAPE   H9Y15975   2.883   3.853   9.842  1.3005 -0.0363 -1.5240
  145SAPE  C31015976   3.012   3.690   9.825  0.8595  0.5761  0.3300
  145SAPE  H10X15977   2.936   3.630   9.772  0.1045  2.6465 -1.0703
  145SAPE  H10Y15978   3.063   3.623   9.897  1.9391  0.8264 -0.1806
  145SAPE  C31115979   3.109   3.739   9.720 -0.0827 -0.1913  0.2039
  145SAPE  H11X15980   3.142   3.650   9.663  2.1687  1.9662 -2.0828
  145SAPE  H11Y15981   3.194   3.796   9.765 -0.3051 -0.4862  1.0198
  145SAPE  C31215982   3.043   3.830   9.606 -0.2172  0.3505 -0.3137
  145SAPE  H12X15983   3.040   3.933   9.649 -1.6663  0.0934  0.2539
  145SAPE  H12Y15984   2.943   3.787   9.588  0.9645 -2.0287 -1.5738
  145SAPE  C31315985   3.104   3.822   9.470 -0.7595  0.7095  0.2893
  145SAPE  H13X15986   3.209   3.788   9.474 -0.7582  0.4728 -1.1153
  145SAPE  H13Y15987   3.103   3.925   9.427  0.4440  0.3057 -0.7816
  145SAPE  C31415988   3.013   3.739   9.371 -1.0008 -0.5048  0.4057
  145SAPE  H14X15989   2.924   3.785   9.325  0.3274  1.7178 -0.0623
  145SAPE  H14Y15990   2.980   3.647   9.424  0.0457 -0.3747  1.3312
  145SAPE  C31515991   3.101   3.668   9.264  0.1221  0.2147 -0.0002
  145SAPE  H15X15992   3.185   3.615   9.313 -0.3273 -0.1833  0.3461
  145SAPE  H15Y15993   3.151   3.746   9.202 -0.4052 -0.1027 -0.8353
  145SAPE  C31615994   3.024   3.570   9.176  0.2698  0.0682 -0.5111
  145SAPE  H16X15995   2.925   3.614   9.156 -0.7603 -0.5005  2.7372
  145SAPE  H16Y15996   3.002   3.474   9.227  0.8213 -0.0648 -0.5089
  145SAPE  C31715997   3.096   3.538   9.042 -0.4585  0.0488 -0.5200
  145SAPE  H17X15998   3.190   3.485   9.068 -1.2132 -0.7784  0.6539
  145SAPE  H17Y15999   3.112   3.637   8.994 -0.4917  0.1122 -0.4013
  145SAPE  C31816000   3.015   3.442   8.950  0.0169  0.3076 -0.0226
  145SAPE  H18X16001   3.061   3.430   8.849  0.6503  0.7830  0.2017
  145SAPE  H18Y16002   2.915   3.487   8.936 -0.0553  0.4737  0.9601
  145SAPE  H18Z16003   3.002   3.347   9.006 -0.0761  0.8278  0.8380
  146SAPE     N16004   1.321   4.087  10.891 -0.1262 -0.7971  0.1731
  146SAPE   HN116005   1.380   4.156  10.941 -0.2410  1.0649 -2.0648
  146SAPE   HN216006   1.249   4.047  10.955 -2.0397  0.6493 -0.9651
  146SAPE   HN316007   1.377   4.009  10.850 -0.9688  0.4393 -3.8164
  146SAPE   C1216008   1.251   4.160  10.773 -0.0435 -0.0661 -0.0772
  146SAPE  H12A16009   1.204   4.075  10.720 -0.4513 -0.0078  0.1832
  146SAPE  H12B16010   1.328   4.207  10.709 -0.7908  2.2192  0.6094
  146SAPE   C1116011   1.138   4.251  10.824 -0.2154 -0.1315 -0.4364
  146SAPE  H11A16012   1.075   4.280  10.738  0.6476  1.1512 -0.6717
  146SAPE  H11B16013   1.194   4.337  10.867 -1.7561  0.6107  0.1272
  146SAPE     P16014   0.939   4.263  10.985 -0.0580 -0.1138  0.0915
  146SAPE   O1316015   0.894   4.174  11.098  0.3948  0.5341 -0.0313
  146SAPE   O1416016   0.965   4.400  11.018  0.1120 -0.1402 -0.4093
  146SAPE   O1216017   1.063   4.176  10.923 -0.3551 -0.6136  0.0726
  146SAPE   O1116018   0.833   4.253  10.871 -0.0604  0.3892  0.8194
  146SAPE    C116019   0.793   4.142  10.792 -0.5654 -0.4772 -0.1931
  146SAPE    HA16020   0.855   4.051  10.810  0.8001  0.9027  2.7779
  146SAPE    HB16021   0.693   4.107  10.826 -0.2443 -1.4549 -0.2103
  146SAPE    C216022   0.798   4.174  10.640  0.6112  0.1345  0.1526
  146SAPE    HS16023   0.906   4.191  10.619  0.8934 -0.9260  0.6594
  146SAPE   O2116024   0.718   4.281  10.615  0.6613  0.0938 -0.2787
  146SAPE   C2116025   0.753   4.371  10.530  0.0091 -0.3637 -0.2983
  146SAPE   O2216026   0.865   4.373  10.475 -0.7599 -0.0365 -0.0008
  146SAPE   C2216027   0.647   4.482  10.522 -0.3679 -0.6496 -0.5830
  146SAPE   H2R16028   0.553   4.434  10.556  1.0461 -1.3252  2.8220
  146SAPE   H2S16029   0.663   4.564  10.596  1.0445 -2.3334  1.0699
  146SAPE    C316030   0.755   4.051  10.559 -0.2706 -0.4295  0.1728
  146SAPE    HX16031   0.653   4.011  10.578 -0.5494  1.1839  2.4852
  146SAPE    HY16032   0.818   3.967  10.597  0.3933  0.4271  1.0109
  146SAPE   O3116033   0.782   4.069  10.427 -0.1224  0.3229  0.9859
  146SAPE   C3116034   0.688   4.120  10.344  0.8647 -0.6527  0.2631
  146SAPE   O3216035   0.579   4.160  10.380 -0.1942 -0.0338  0.5503
  146SAPE   C3216036   0.729   4.138  10.195  0.5298 -0.2781  0.3295
  146SAPE   H2X16037   0.713   4.035  10.156 -0.6356 -0.1237  0.3478
  146SAPE   H2Y16038   0.836   4.166  10.196  0.2200  0.9435 -0.0009
  146SAPE   C2316039   0.613   4.541  10.378  0.2411 -0.5095  0.2714
  146SAPE   H3R16040   0.524   4.603  10.398  0.0099 -0.2523 -1.4281
  146SAPE   H3S16041   0.576   4.462  10.309 -0.9451 -0.1776  0.5020
  146SAPE   C2416042   0.732   4.627  10.317  0.4566 -0.9499  0.4185
  146SAPE   H4R16043   0.802   4.553  10.271  0.3151 -1.5022  1.0624
  146SAPE   H4S16044   0.794   4.666  10.401  3.0374 -1.4851 -1.1089
  146SAPE   C2516045   0.681   4.741  10.235 -0.4029 -0.2641 -0.1566
  146SAPE   H5R16046   0.633   4.828  10.283 -2.8015 -2.2360  1.2376
  146SAPE   C2616047   0.687   4.738  10.097 -0.5492  0.1901 -0.5318
  146SAPE   H6R16048   0.642   4.824  10.045 -1.2565  0.2904  0.2212
  146SAPE   C2716049   0.737   4.626  10.007 -0.2281  0.5126 -1.0303
  146SAPE   H7R16050   0.749   4.527  10.055  1.7945  0.0105 -2.4308
  146SAPE   H7S16051   0.843   4.648   9.981 -0.0952 -1.2772 -2.1158
  146SAPE   C2816052   0.655   4.607   9.884 -0.2695  0.1592 -0.0330
  146SAPE   H8R16053   0.563   4.547   9.889  0.6729 -1.6235 -2.1895
  146SAPE   C2916054   0.696   4.631   9.758 -0.5199 -0.6712 -0.7389
  146SAPE   H9R16055   0.619   4.616   9.681 -2.3608  1.4091  0.5781
  146SAPE  C21016056   0.821   4.701   9.715 -0.0351 -0.4665 -0.4446
  146SAPE  H10R16057   0.848   4.676   9.610  4.5804  1.5363  0.0118
  146SAPE  H10S16058   0.913   4.672   9.771 -0.8135 -1.1734  0.5058
  146SAPE  C21116059   0.813   4.849   9.716 -0.0429 -0.6928  0.7873
  146SAPE  H11R16060   0.833   4.903   9.810 -1.0046  0.7083  0.2224
  146SAPE  C21216061   0.791   4.930   9.609 -0.3653 -0.0173 -0.3986
  146SAPE  H12R16062   0.784   5.038   9.627 -1.2439 -0.0733 -0.3590
  146SAPE  C21316063   0.767   4.887   9.465  0.7594  0.1905 -0.3549
  146SAPE  H13R16064   0.819   4.791   9.448  0.0605  0.0119 -1.5516
  146SAPE  H13S16065   0.806   4.970   9.402  0.7968 -0.0158 -0.6031
  146SAPE  C21416066   0.621   4.868   9.434  0.0455  0.1009 -0.6337
  146SAPE  H14R16067   0.555   4.849   9.520  1.1115  0.0029  0.1817
  146SAPE  C21516068   0.576   4.860   9.301 -0.4015  1.0899 -0.1082
  146SAPE  H15R16069   0.471   4.830   9.287  0.1417 -1.0315 -0.0578
  146SAPE  C21616070   0.657   4.877   9.175 -0.2186 -0.3365 -0.3572
  146SAPE  H16R16071   0.738   4.946   9.206  0.2847 -2.0401  2.5290
  146SAPE  H16S16072   0.592   4.923   9.097  1.7938  0.8424 -1.4092
  146SAPE  C21716073   0.725   4.759   9.116 -0.4136  0.2715 -0.3267
  146SAPE  H17R16074   0.659   4.671   9.098  1.3775 -1.2381  0.2009
  146SAPE  H17S16075   0.808   4.725   9.180 -0.9068 -2.1055 -0.8681
  146SAPE  C21816076   0.780   4.805   8.980  0.1913  0.0471 -0.0944
  146SAPE  H18R16077   0.851   4.889   8.997  1.3383 -1.1755  1.5380
  146SAPE  H18S16078   0.699   4.831   8.910  1.5148 -1.7569 -2.4330
  146SAPE  C21916079   0.859   4.692   8.912  0.0561 -0.1675 -0.1556
  146SAPE  H19R16080   0.790   4.605   8.915  1.5708 -1.4118  0.0185
  146SAPE  H19S16081   0.938   4.656   8.982  0.5118  1.1754  0.0473
  146SAPE  C22016082   0.914   4.714   8.773 -0.3246 -0.8568 -0.5832
  146SAPE  H20R16083   0.843   4.766   8.704  0.6955  1.4735  0.0303
  146SAPE  H20S16084   0.920   4.615   8.724 -0.3827 -1.3319  0.3618
  146SAPE  H20T16085   1.008   4.771   8.790 -0.3408 -1.0828  0.3098
  146SAPE   C3316086   0.650   4.251  10.114 -0.4194  0.1672  0.1680
  146SAPE   H3X16087   0.686   4.342  10.168  0.8012 -0.8431  1.1637
  146SAPE   H3Y16088   0.541   4.242  10.132 -0.1593 -0.9196  1.3382
  146SAPE   C3416089   0.675   4.257   9.962  0.7159  0.2560 -0.6300
  146SAPE   H4X16090   0.765   4.320   9.942  0.0551  2.0732  1.6881
  146SAPE   H4Y16091   0.584   4.298   9.914 -0.9055 -1.1928  1.0600
  146SAPE   C3516092   0.679   4.114   9.900 -0.1111 -0.2855 -0.3525
  146SAPE   H5X16093   0.594   4.055   9.941  1.4264 -1.4775  1.2196
  146SAPE   H5Y16094   0.772   4.057   9.919 -1.5298 -2.3840  0.6114
  146SAPE   C3616095   0.663   4.131   9.746 -0.3395 -0.3666 -0.7754
  146SAPE   H6X16096   0.564   4.173   9.718 -0.1085  0.1388 -0.8377
  146SAPE   H6Y16097   0.673   4.032   9.696  0.7444  0.0750 -1.4654
  146SAPE   C3716098   0.759   4.236   9.681 -0.5887  0.0326 -0.1196
  146SAPE   H7X16099   0.866   4.210   9.697 -0.4521  0.7777  0.2092
  146SAPE   H7Y16100   0.723   4.332   9.725 -0.7245 -1.4312  3.2670
  146SAPE   C3816101   0.744   4.243   9.527  0.1854  0.2679 -0.6894
  146SAPE   H8X16102   0.637   4.245   9.497  0.3093  4.4417 -1.4378
  146SAPE   H8Y16103   0.802   4.163   9.476  1.0894 -0.5010  1.4341
  146SAPE   C3916104   0.793   4.387   9.490  0.4135  0.3686  0.5001
  146SAPE   H9X16105   0.895   4.417   9.524  1.7116 -2.5122 -0.4475
  146SAPE   H9Y16106   0.723   4.456   9.541 -0.5680 -1.5379  1.8809
  146SAPE  C31016107   0.807   4.409   9.340  0.5307  0.1071  0.5245
  146SAPE  H10X16108   0.826   4.514   9.311 -0.6538 -0.4292 -2.6880
  146SAPE  H10Y16109   0.702   4.403   9.302  0.5799  0.3963  0.3408
  146SAPE  C31116110   0.902   4.317   9.266 -0.3740 -0.5089 -0.6372
  146SAPE  H11X16111   0.853   4.217   9.270 -0.9249 -0.2393 -0.5545
  146SAPE  H11Y16112   0.999   4.313   9.319 -1.8572  1.5372  2.5274
  146SAPE  C31216113   0.913   4.338   9.116 -0.4489  0.3317 -0.1189
  146SAPE  H12X16114   0.940   4.442   9.090  1.3366 -0.2569 -0.7394
  146SAPE  H12Y16115   0.807   4.329   9.086 -0.9817  1.0709  1.4114
  146SAPE  C31316116   1.009   4.242   9.052 -0.5820  0.2888  0.1842
  146SAPE  H13X16117   0.988   4.134   9.070  1.9850 -0.2492  0.3386
  146SAPE  H13Y16118   1.114   4.258   9.084  0.1877  0.3472 -2.2139
  146SAPE  C31416119   1.001   4.260   8.896  0.4169  0.7241 -0.3195
  146SAPE  H14X16120   0.892   4.267   8.878  0.3728  1.0702  0.0601
  146SAPE  H14Y16121   1.035   4.167   8.847  1.0702 -0.0245  1.4615
  146SAPE  C31516122   1.078   4.385   8.848 -0.4419  0.5530  0.6328
  146SAPE  H15X16123   1.159   4.404   8.922 -0.6669 -0.7223  1.2315
  146SAPE  H15Y16124   0.994   4.458   8.849 -0.1677  0.9376 -1.1588
  146SAPE  C31616125   1.152   4.361   8.713 -1.0769 -0.5162  0.3475
  146SAPE  H16X16126   1.204   4.455   8.685  2.3075 -1.7377  1.9946
  146SAPE  H16Y16127   1.072   4.330   8.642  0.0007 -0.6299 -0.8466
  146SAPE  C31716128   1.264   4.257   8.712 -0.2311  0.6863 -0.1348
  146SAPE  H17X16129   1.231   4.153   8.733  0.9791  0.3325  0.0668
  146SAPE  H17Y16130   1.343   4.271   8.789  0.4829 -2.1295 -0.2502
  146SAPE  C31816131   1.343   4.256   8.570  1.2487 -0.4266  0.0424
  146SAPE  H18X16132   1.418   4.174   8.576 -0.0034 -1.5319  1.9353
  146SAPE  H18Y16133   1.397   4.351   8.548  1.7977 -0.9763 -1.0973
  146SAPE  H18Z16134   1.268   4.240   8.489  0.7883  1.1435  0.1369
  147SAPE     N16135   6.352   0.146   6.471  0.6751  0.6289  0.1698
  147SAPE   HN116136   6.428   0.178   6.408 -0.8506 -0.5180 -2.4320
  147SAPE   HN216137   6.369   0.180   6.568  1.1063  3.2157 -0.7396
  147SAPE   HN316138   6.345   0.042   6.468  0.9323  0.6197 -0.1460
  147SAPE   C1216139   6.224   0.212   6.409 -0.6249  0.1799  0.2354
  147SAPE  H12A16140   6.131   0.167   6.449 -1.0493  0.4349 -0.4385
  147SAPE  H12B16141   6.235   0.189   6.300 -2.0201 -0.5943  0.2393
  147SAPE   C1116142   6.211   0.363   6.443 -0.4941  0.2637 -0.3617
  147SAPE  H11A16143   6.183   0.363   6.551  1.0070 -0.4800  0.0604
  147SAPE  H11B16144   6.135   0.423   6.389 -0.1377  1.9620  0.9184
  147SAPE     P16145   6.412   0.524   6.512  0.6471 -0.3707  0.4455
  147SAPE   O1316146   6.557   0.527   6.485  0.1550  0.0665  0.0822
  147SAPE   O1416147   6.337   0.650   6.503  0.5257  0.5274  0.4395
  147SAPE   O1216148   6.345   0.421   6.418  0.5227  0.1436  0.0733
  147SAPE   O1116149   6.382   0.453   6.644 -0.5627 -0.3446  0.0017
  147SAPE    C116150   6.467   0.460   6.758  0.0064 -0.2851  0.8119
  147SAPE    HA16151   6.563   0.511   6.737  0.5169 -1.6240 -0.2798
  147SAPE    HB16152   6.407   0.504   6.840 -1.5924 -1.9644  0.6119
  147SAPE    C216153   6.505   0.315   6.808  0.1933 -0.1743  0.2388
  147SAPE    HS16154   6.527   0.253   6.718  1.7417  0.0216  0.4642
  147SAPE   O2116155   6.397   0.271   6.891 -0.4345 -0.4049  0.2495
  147SAPE   C2116156   6.343   0.158   6.851 -0.1332 -0.1720 -0.2217
  147SAPE   O2216157   6.367   0.103   6.743  0.5870 -0.0948  0.1539
  147SAPE   C2216158   6.232   0.119   6.943  0.0377 -0.6597 -0.5634
  147SAPE   H2R16159   6.259   0.129   7.050 -3.6555  0.6535  0.4203
  147SAPE   H2S16160   6.153   0.193   6.918  1.9887  1.7255 -0.0343
  147SAPE    C316161   6.641   0.316   6.892  0.1052  0.2696  0.5068
  147SAPE    HX16162   6.719   0.349   6.820 -0.0503  0.0229  0.2217
  147SAPE    HY16163   6.666   0.210   6.912  0.3763 -0.6129 -3.5845
  147SAPE   O3116164   6.636   0.395   7.002 -0.4464 -0.0585 -0.1642
  147SAPE   C3116165   6.587   0.342   7.115 -0.8556  0.1750 -0.1059
  147SAPE   O3216166   6.548   0.225   7.128 -0.9155 -0.1329 -0.3515
  147SAPE   C3216167   6.589   0.453   7.223  0.3862 -0.7188  0.1408
  147SAPE   H2X16168   6.536   0.543   7.185 -0.3103  1.0685  4.7203
  147SAPE   H2Y16169   6.696   0.478   7.241  0.4683 -1.3360  0.5289
  147SAPE   C2316170   6.163  -0.012   6.925  0.5476 -0.1439  0.1104
  147SAPE   H3R16171   6.235  -0.095   6.909 -2.2255 -2.5865 -0.4907
  147SAPE   H3S16172   6.118  -0.008   6.823  0.9782 -0.4749 -0.0945
  147SAPE   C2416173   6.078  -0.057   7.040 -0.6354 -0.2223 -0.1826
  147SAPE   H4R16174   6.142  -0.096   7.122  0.1240  1.2996 -0.0227
  147SAPE   H4S16175   6.013  -0.139   7.002  0.2750 -0.9491 -0.2299
  147SAPE   C2516176   5.992   0.059   7.085 -1.0551  0.0641  0.0637
  147SAPE   H5R16177   5.933   0.110   7.007  0.0526  3.9988  1.5610
  147SAPE   C2616178   5.962   0.090   7.212  0.7495  0.0846  0.9501
  147SAPE   H6R16179   5.894   0.174   7.235 -1.4460 -1.8145  1.8090
  147SAPE   C2716180   6.033   0.036   7.331 -0.7565 -0.2584 -0.4461
  147SAPE   H7R16181   6.049  -0.074   7.319 -1.0683 -0.3362 -0.1708
  147SAPE   H7S16182   5.965   0.037   7.419  0.0207 -1.5075  0.2069
  147SAPE   C2816183   6.153   0.112   7.370 -1.0150 -0.4115  0.0546
  147SAPE   H8R16184   6.176   0.188   7.293  2.6987 -2.0748 -0.6773
  147SAPE   C2916185   6.216   0.124   7.488 -0.1313  0.1742 -0.6413
  147SAPE   H9R16186   6.300   0.193   7.500 -1.0806  1.2244  0.1466
  147SAPE  C21016187   6.176   0.054   7.618  0.6843  0.0917  0.5054
  147SAPE  H10R16188   6.205  -0.053   7.617 -0.3681 -0.2053 -0.1536
  147SAPE  H10S16189   6.068   0.070   7.637  0.5435  0.4647 -0.4957
  147SAPE  C21116190   6.265   0.092   7.733  0.4771  0.0231 -0.2338
  147SAPE  H11R16191   6.367   0.115   7.699  0.1820  1.1995 -0.3641
  147SAPE  C21216192   6.234   0.118   7.865 -0.6328  0.5067 -0.3328
  147SAPE  H12R16193   6.308   0.155   7.937 -1.5766 -0.1029  0.9821
  147SAPE  C21316194   6.098   0.112   7.932 -0.1427 -0.4388 -0.1230
  147SAPE  H13R16195   6.067   0.006   7.948 -0.3531 -0.4715 -0.7055
  147SAPE  H13S16196   6.026   0.154   7.859  2.2929 -1.8672 -3.6272
  147SAPE  C21416197   6.110   0.203   8.053  0.4745 -0.3766  0.5680
  147SAPE  H14R16198   6.113   0.312   8.040  1.5040 -0.3366  1.0704
  147SAPE  C21516199   6.112   0.159   8.178  0.8236  1.1628  0.2824
  147SAPE  H15R16200   6.123   0.238   8.253 -0.8440  3.3177 -1.5895
  147SAPE  C21616201   6.114   0.015   8.222  0.2369 -0.4765 -0.3371
  147SAPE  H16R16202   6.163   0.014   8.322 -2.8908 -0.3689  1.3134
  147SAPE  H16S16203   6.183  -0.046   8.160  1.0096 -2.9203  2.7129
  147SAPE  C21716204   5.978  -0.048   8.220  0.0962  0.0103 -0.1216
  147SAPE  H17R16205   5.992  -0.156   8.243  0.4427  0.5056  2.3817
  147SAPE  H17S16206   5.923  -0.035   8.125  1.2782  1.0289 -0.6791
  147SAPE  C21816207   5.880   0.013   8.322  0.4739 -0.2743  0.3522
  147SAPE  H18R16208   5.776  -0.015   8.293  0.3658 -0.2332  0.6852
  147SAPE  H18S16209   5.891   0.123   8.311  1.4886 -0.4636 -0.6338
  147SAPE  C21916210   5.901  -0.032   8.465  0.2820  1.1686 -0.2487
  147SAPE  H19R16211   5.997  -0.014   8.517  1.7097 -2.4121 -1.3426
  147SAPE  H19S16212   5.891  -0.142   8.477  2.1473  1.2111  2.8299
  147SAPE  C22016213   5.786   0.027   8.549 -0.6608  0.1432  0.1790
  147SAPE  H20R16214   5.685  -0.002   8.513 -0.7763  1.6184 -0.7853
  147SAPE  H20S16215   5.787   0.138   8.543 -2.4353  0.1147 -1.5420
  147SAPE  H20T16216   5.791  -0.001   8.657 -0.0530  1.0246  0.3835
  147SAPE   C3316217   6.510   0.414   7.354  0.0797  0.6245 -0.0416
  147SAPE   H3X16218   6.502   0.305   7.373 -0.2523  0.9607  1.9701
  147SAPE   H3Y16219   6.405   0.446   7.342  0.7212  2.4614 -1.1726
  147SAPE   C3416220   6.572   0.478   7.485 -0.1683  0.5845  0.2888
  147SAPE   H4X16221   6.557   0.588   7.493  1.8460  0.9028  0.2294
  147SAPE   H4Y16222   6.681   0.463   7.502 -0.4833 -1.0630  1.0666
  147SAPE   C3516223   6.509   0.413   7.606 -0.6037  0.1741 -0.6980
  147SAPE   H5X16224   6.506   0.303   7.593  0.8057  0.0411 -0.0483
  147SAPE   H5Y16225   6.402   0.441   7.614 -0.7866 -0.5095 -0.7004
  147SAPE   C3616226   6.592   0.428   7.735  0.1626 -0.6025 -0.2281
  147SAPE   H6X16227   6.609   0.535   7.762  1.6809 -1.1260  1.0538
  147SAPE   H6Y16228   6.694   0.385   7.727  1.0537  1.1064  1.1750
  147SAPE   C3716229   6.516   0.368   7.856 -0.4311  0.3427  0.1871
  147SAPE   H7X16230   6.528   0.257   7.859  3.2706  0.5985  0.4904
  147SAPE   H7Y16231   6.409   0.396   7.850 -0.5950 -0.5720 -2.1507
  147SAPE   C3816232   6.566   0.418   7.989  0.2893  0.1320 -0.2413
  147SAPE   H8X16233   6.546   0.527   7.999 -1.4179 -0.3217  2.3838
  147SAPE   H8Y16234   6.677   0.406   7.992  0.2922  0.3571  0.9744
  147SAPE   C3916235   6.497   0.352   8.110  0.4529  0.5650 -0.5635
  147SAPE   H9X16236   6.388   0.365   8.096  0.6945  0.6596 -2.8419
  147SAPE   H9Y16237   6.538   0.414   8.193  1.9069  0.5893 -1.2639
  147SAPE  C31016238   6.523   0.202   8.136 -0.4597 -0.6736 -0.5205
  147SAPE  H10X16239   6.634   0.193   8.138 -0.3153  0.7157 -1.0964
  147SAPE  H10Y16240   6.487   0.146   8.047  0.6065 -1.9564 -0.1699
  147SAPE  C31116241   6.479   0.155   8.279  0.2106 -0.8134  0.0017
  147SAPE  H11X16242   6.368   0.160   8.270  0.4103  0.6494 -2.4874
  147SAPE  H11Y16243   6.526   0.217   8.358 -2.3241 -0.0918  1.0448
  147SAPE  C31216244   6.501   0.005   8.304  0.4007  0.0179 -0.3279
  147SAPE  H12X16245   6.604  -0.024   8.273  1.1965  0.9692  1.2888
  147SAPE  H12Y16246   6.424  -0.052   8.249 -0.9068 -0.2592  1.7008
  147SAPE  C31316247   6.472  -0.023   8.451  0.0233 -0.1802  0.1871
  147SAPE  H13X16248   6.480  -0.133   8.460  0.5985 -0.2439 -0.9136
  147SAPE  H13Y16249   6.368   0.001   8.482 -0.0284  2.1158 -1.4529
  147SAPE  C31416250   6.575   0.033   8.546  0.4041 -0.3602 -0.0718
  147SAPE  H14X16251   6.542   0.135   8.574  1.2929 -0.0849 -0.0030
  147SAPE  H14Y16252   6.676   0.023   8.502  0.0227 -2.4723 -0.5888
  147SAPE  C31516253   6.577  -0.030   8.689 -0.0404 -0.2183  0.4458
  147SAPE  H15X16254   6.620  -0.133   8.696 -1.4271 -0.8606 -0.0948
  147SAPE  H15Y16255   6.474  -0.027   8.730 -1.0513 -3.3861 -1.4631
  147SAPE  C31616256   6.670   0.060   8.775  0.3367 -0.3398 -0.3472
  147SAPE  H16X16257   6.626   0.161   8.785  0.8951 -0.1762  0.6287
  147SAPE  H16Y16258   6.767   0.076   8.723 -0.8594 -0.5047 -2.7512
  147SAPE  C31716259   6.686   0.011   8.917 -0.1987 -0.2570 -0.3426
  147SAPE  H17X16260   6.752  -0.077   8.905 -0.2800 -0.0904 -2.3616
  147SAPE  H17Y16261   6.588  -0.026   8.953 -0.4373 -1.8057 -2.4373
  147SAPE  C31816262   6.743   0.115   9.011  0.2999  0.6822  0.5581
  147SAPE  H18X16263   6.854   0.108   9.002  0.4723  0.3201  2.5038
  147SAPE  H18Y16264   6.715   0.089   9.116  0.8255 -1.7406  0.1457
  147SAPE  H18Z16265   6.719   0.218   8.979  1.5122  0.8593  0.1559
  148SAPE     N16266   5.409   4.792   6.645 -0.3532 -0.0915 -0.5424
  148SAPE   HN116267   5.428   4.800   6.543  0.9343  1.5757 -0.2207
  148SAPE   HN216268   5.447   4.874   6.696 -0.8197 -1.0040  1.3840
  148SAPE   HN316269   5.480   4.721   6.672 -0.9494 -0.4334  0.1504
  148SAPE   C1216270   5.281   4.730   6.701 -0.2968 -0.1953 -0.1862
  148SAPE  H12A16271   5.270   4.761   6.807  3.4379  0.0278  0.2804
  148SAPE  H12B16272   5.297   4.622   6.716  0.8997  0.3196  3.0804
  148SAPE   C1116273   5.154   4.756   6.615 -0.3203  0.1600  0.7044
  148SAPE  H11A16274   5.175   4.738   6.508  0.1671 -3.3093  1.2682
  148SAPE  H11B16275   5.131   4.862   6.638  0.4187  0.7156 -0.9816
  148SAPE     P16276   4.954   4.695   6.773  0.1684 -0.6864 -0.2867
  148SAPE   O1316277   4.919   4.836   6.785 -0.5961 -0.8177  0.3181
  148SAPE   O1416278   4.839   4.601   6.754  0.2070 -0.2858 -0.9725
  148SAPE   O1216279   5.045   4.671   6.645  0.5807  0.1337  0.5148
  148SAPE   O1116280   5.048   4.656   6.888  0.3448 -0.5107  0.1864
  148SAPE    C116281   5.096   4.520   6.911  0.2935 -0.1766  0.3567
  148SAPE    HA16282   5.069   4.447   6.832 -1.1528 -0.6901  1.2833
  148SAPE    HB16283   5.207   4.523   6.918  0.2580 -1.0508  1.7919
  148SAPE    C216284   5.039   4.451   7.038 -0.0063  0.0857  0.9216
  148SAPE    HS16285   5.090   4.355   7.063  0.3694  0.6849  2.5507
  148SAPE   O2116286   4.899   4.430   7.020  0.2628  0.1817 -0.2314
  148SAPE   C2116287   4.861   4.311   6.960 -0.6716 -0.4787  0.2880
  148SAPE   O2216288   4.940   4.232   6.916 -0.5042 -0.4557 -0.4958
  148SAPE   C2216289   4.717   4.328   6.922  0.0893  0.2389  0.0965
  148SAPE   H2R16290   4.693   4.436   6.937  1.1225  0.5326 -0.2900
  148SAPE   H2S16291   4.715   4.291   6.818  1.1837 -0.5669  0.3443
  148SAPE    C316292   5.067   4.536   7.165 -0.5724  0.8217 -0.1795
  148SAPE    HX16293   5.061   4.642   7.135  1.0124  0.6659 -1.1887
  148SAPE    HY16294   5.174   4.515   7.186 -1.1405 -3.2891 -0.4727
  148SAPE   O3116295   4.991   4.487   7.278  0.3295 -0.4731 -0.0765
  148SAPE   C3116296   4.868   4.539   7.299 -0.1956  0.1794 -0.3578
  148SAPE   O3216297   4.822   4.629   7.235  0.0613 -0.2081 -0.0741
  148SAPE   C3216298   4.807   4.474   7.425  0.2051 -0.1446  0.1404
  148SAPE   H2X16299   4.872   4.491   7.513 -0.0296 -2.6030  0.8471
  148SAPE   H2Y16300   4.797   4.365   7.411 -0.9480 -0.1362  0.7477
  148SAPE   C2316301   4.631   4.232   7.013 -0.5461 -0.5766  0.0101
  148SAPE   H3R16302   4.688   4.147   7.055 -0.2041 -0.9652 -1.2091
  148SAPE   H3S16303   4.546   4.186   6.957 -0.8690 -0.7978  0.6692
  148SAPE   C2416304   4.561   4.297   7.131  0.3327  0.6887  0.4024
  148SAPE   H4R16305   4.512   4.385   7.083 -3.4969 -0.6975  1.4073
  148SAPE   H4S16306   4.634   4.339   7.203 -1.4426 -0.9056  3.3144
  148SAPE   C2516307   4.454   4.224   7.214  0.7382 -0.7369 -0.8062
  148SAPE   H5R16308   4.355   4.271   7.212 -0.7508 -3.6737  0.0334
  148SAPE   C2616309   4.472   4.106   7.287  0.0102 -0.5631  0.2335
  148SAPE   H6R16310   4.387   4.079   7.351 -0.0161 -0.0437  0.4247
  148SAPE   C2716311   4.599   4.028   7.308 -0.0862 -0.1104  0.0045
  148SAPE   H7R16312   4.671   4.069   7.234 -1.9949  1.4571 -1.0947
  148SAPE   H7S16313   4.588   3.921   7.278  0.5807 -0.4848  1.0584
  148SAPE   C2816314   4.661   4.026   7.444 -0.3294  0.0910  0.4969
  148SAPE   H8R16315   4.752   4.087   7.446 -1.4202  1.8213  0.1824
  148SAPE   C2916316   4.620   3.963   7.557  0.0101 -0.0964  0.0115
  148SAPE   H9R16317   4.677   3.995   7.646 -0.6297  2.3946 -0.3937
  148SAPE  C21016318   4.507   3.873   7.586 -0.4919  0.5845 -0.4376
  148SAPE  H10R16319   4.428   3.871   7.508 -0.5055 -0.3640 -0.4165
  148SAPE  H10S16320   4.461   3.918   7.676  1.9779  3.3209 -0.4077
  148SAPE  C21116321   4.548   3.730   7.576 -0.0769  0.6594 -0.6273
  148SAPE  H11R16322   4.550   3.686   7.475  0.0577 -0.9331  0.0379
  148SAPE  C21216323   4.575   3.651   7.683 -0.1430 -0.0882 -0.2310
  148SAPE  H12R16324   4.597   3.544   7.670  2.2641  0.0446  2.0424
  148SAPE  C21316325   4.576   3.689   7.831 -0.0323 -0.0116 -0.2038
  148SAPE  H13R16326   4.634   3.784   7.836  2.5829 -1.4610 -1.0009
  148SAPE  H13S16327   4.636   3.614   7.887 -0.7445 -1.6997 -1.6060
  148SAPE  C21416328   4.435   3.700   7.890 -0.4811 -0.7709 -0.0860
  148SAPE  H14R16329   4.346   3.685   7.827 -0.8013  3.5068 -0.9580
  148SAPE  C21516330   4.424   3.725   8.028 -0.3203 -0.9776 -0.5656
  148SAPE  H15R16331   4.327   3.714   8.078 -0.4403  3.0963  0.5055
  148SAPE  C21616332   4.539   3.749   8.115 -0.2360 -0.8539 -0.2167
  148SAPE  H16R16333   4.555   3.856   8.141 -0.9554 -1.0212  0.9901
  148SAPE  H16S16334   4.635   3.698   8.091  0.2017 -1.3250  2.3197
  148SAPE  C21716335   4.517   3.687   8.254 -0.2459 -0.7678  0.6942
  148SAPE  H17R16336   4.515   3.576   8.244 -0.3717 -0.6452 -0.9455
  148SAPE  H17S16337   4.421   3.712   8.303 -0.8486 -0.9226 -0.3787
  148SAPE  C21816338   4.643   3.715   8.341 -0.0333 -0.4610  0.3253
  148SAPE  H18R16339   4.666   3.822   8.360 -0.7002 -0.3080  0.3150
  148SAPE  H18S16340   4.733   3.667   8.297 -0.9606 -1.1850 -0.8508
  148SAPE  C21916341   4.635   3.653   8.481 -0.0947  0.2193 -0.3418
  148SAPE  H19R16342   4.590   3.553   8.463  0.0870  0.1235 -0.2739
  148SAPE  H19S16343   4.565   3.718   8.538  1.1490  0.7237  0.6656
  148SAPE  C22016344   4.771   3.639   8.549  1.0199 -0.0582 -0.1006
  148SAPE  H20R16345   4.752   3.587   8.645 -1.7886 -0.9775 -1.0491
  148SAPE  H20S16346   4.816   3.740   8.564  1.3145 -0.0804 -0.7929
  148SAPE  H20T16347   4.839   3.574   8.489  0.8532 -2.0858  1.7959
  148SAPE   C3316348   4.666   4.528   7.444  0.4911  0.5005 -0.0138
  148SAPE   H3X16349   4.622   4.518   7.343 -1.9834 -1.8241  1.1696
  148SAPE   H3Y16350   4.655   4.631   7.485 -4.1147 -0.2186  1.0738
  148SAPE   C3416351   4.591   4.433   7.536  0.4742  0.4555 -0.6582
  148SAPE   H4X16352   4.608   4.332   7.494 -0.5452 -0.2183  0.5024
  148SAPE   H4Y16353   4.481   4.446   7.528  0.3215  0.6692  1.2400
  148SAPE   C3516354   4.633   4.440   7.683  0.5142 -0.3097  0.2302
  148SAPE   H5X16355   4.622   4.541   7.727 -0.8895 -0.0265 -0.6980
  148SAPE   H5Y16356   4.742   4.421   7.694  0.4352  0.0324  1.7791
  148SAPE   C3616357   4.557   4.347   7.775  0.0836  0.3108  0.3570
  148SAPE   H6X16358   4.572   4.241   7.745  0.5061  0.5862 -0.4474
  148SAPE   H6Y16359   4.448   4.369   7.778  0.2336  0.9979  0.8317
  148SAPE   C3716360   4.601   4.355   7.921 -0.0769 -0.6483 -0.0716
  148SAPE   H7X16361   4.710   4.333   7.926  0.5910  0.8729 -3.9325
  148SAPE   H7Y16362   4.542   4.268   7.959 -1.3482  0.7855  1.3541
  148SAPE   C3816363   4.561   4.482   7.987  0.5250  0.2472  0.1593
  148SAPE   H8X16364   4.477   4.534   7.936 -0.7809  0.9247  2.8205
  148SAPE   H8Y16365   4.635   4.564   7.988 -0.9130  1.6276 -1.2152
  148SAPE   C3916366   4.520   4.457   8.137  0.3631 -0.0874  0.7644
  148SAPE   H9X16367   4.600   4.407   8.196 -1.5563 -3.0616  1.0597
  148SAPE   H9Y16368   4.440   4.380   8.137 -0.6944  0.9868  0.7049
  148SAPE  C31016369   4.473   4.579   8.216  0.7693 -0.5639 -0.3147
  148SAPE  H10X16370   4.393   4.631   8.158  1.0710  0.5349  0.2354
  148SAPE  H10Y16371   4.554   4.654   8.219  2.4751 -2.3748  0.9030
  148SAPE  C31116372   4.411   4.540   8.354  0.2225  0.5631 -0.4831
  148SAPE  H11X16373   4.491   4.499   8.419 -0.2250 -0.8279 -0.7910
  148SAPE  H11Y16374   4.330   4.466   8.338 -2.1288  3.0288 -0.8612
  148SAPE  C31216375   4.356   4.666   8.433 -0.8167  0.4832  0.2388
  148SAPE  H12X16376   4.277   4.724   8.382 -0.7511  0.0879 -0.3186
  148SAPE  H12Y16377   4.444   4.730   8.458  1.4466 -2.5598  0.6776
  148SAPE  C31316378   4.295   4.614   8.566 -0.3260 -0.0624 -0.3999
  148SAPE  H13X16379   4.373   4.577   8.636 -1.4608 -1.6107  0.1019
  148SAPE  H13Y16380   4.233   4.525   8.545 -0.0178 -0.8856  1.8762
  148SAPE  C31416381   4.201   4.720   8.624  0.3223  0.0404 -0.0376
  148SAPE  H14X16382   4.138   4.741   8.534  1.5951 -0.9186 -1.2003
  148SAPE  H14Y16383   4.261   4.808   8.656 -0.2922  0.2797  0.4807
  148SAPE  C31516384   4.107   4.660   8.736 -0.0046 -0.7092  0.4343
  148SAPE  H15X16385   4.023   4.602   8.693  0.2471 -0.7279 -0.0384
  148SAPE  H15Y16386   4.051   4.746   8.779 -2.3321 -1.0081 -1.7821
  148SAPE  C31616387   4.165   4.583   8.857 -0.6661  0.0433  0.1648
  148SAPE  H16X16388   4.100   4.611   8.942 -1.5598  0.9924 -0.7910
  148SAPE  H16Y16389   4.268   4.618   8.881 -1.0010  0.0193  1.7700
  148SAPE  C31716390   4.178   4.433   8.838  0.0753 -0.1983 -0.0149
  148SAPE  H17X16391   4.231   4.395   8.748 -1.5316 -1.0762 -0.6317
  148SAPE  H17Y16392   4.071   4.404   8.830 -0.4516  1.9062 -1.9299
  148SAPE  C31816393   4.237   4.368   8.967 -0.4396  0.2987 -0.0501
  148SAPE  H18X16394   4.212   4.259   8.960 -4.7313  1.0575  0.6770
  148SAPE  H18Y16395   4.184   4.414   9.053  1.2716  2.3465 -0.0306
  148SAPE  H18Z16396   4.347   4.383   8.967 -0.5938  1.5360  0.0122
  149SAPE     N16397   5.167   5.286   6.700 -0.9099 -0.4488  0.2511
  149SAPE   HN116398   5.191   5.236   6.612 -2.7866 -1.3732  0.2181
  149SAPE   HN216399   5.089   5.229   6.740 -1.4354 -0.3202 -0.5640
  149SAPE   HN316400   5.142   5.385   6.684  0.2711 -0.4608 -1.9557
  149SAPE   C1216401   5.292   5.273   6.782 -0.0108  0.5684  0.6813
  149SAPE  H12A16402   5.263   5.283   6.889  0.1698  2.8949  0.5487
  149SAPE  H12B16403   5.359   5.360   6.770 -0.3922  0.7060 -0.6060
  149SAPE   C1116404   5.365   5.135   6.758 -0.2109 -0.1343  0.4083
  149SAPE  H11A16405   5.291   5.054   6.774 -0.7248  0.3647  0.6015
  149SAPE  H11B16406   5.450   5.133   6.829 -0.5302  2.5124  0.9774
  149SAPE     P16407   5.571   5.106   6.594 -0.2831 -0.0652 -0.1906
  149SAPE   O1316408   5.589   5.037   6.462 -0.5236 -0.6652 -0.0454
  149SAPE   O1416409   5.650   5.227   6.609 -0.1242  0.2689  0.3664
  149SAPE   O1216410   5.412   5.141   6.617  0.1300  0.3881 -0.2955
  149SAPE   O1116411   5.600   5.002   6.708  0.3273  0.3912 -0.3631
  149SAPE    C116412   5.733   4.974   6.757  0.1229 -0.0550  0.3279
  149SAPE    HA16413   5.786   4.934   6.669 -2.4675 -0.5464 -1.1276
  149SAPE    HB16414   5.777   5.071   6.790  0.9829 -1.1753  2.7055
  149SAPE    C216415   5.745   4.878   6.879  0.5726  0.4828  0.2869
  149SAPE    HS16416   5.696   4.781   6.855  1.3959  0.5217 -1.8396
  149SAPE   O2116417   5.674   4.928   6.994 -0.3498  0.4906 -0.1000
  149SAPE   C2116418   5.546   4.932   6.982 -0.5574  0.0383 -0.1801
  149SAPE   O2216419   5.475   4.875   6.901 -0.1413  0.0184  0.3572
  149SAPE   C2216420   5.499   5.026   7.091 -0.0807 -0.1811 -0.3060
  149SAPE   H2R16421   5.553   4.996   7.183 -2.0726  1.3600  1.4756
  149SAPE   H2S16422   5.532   5.132   7.082 -0.6196  0.2267  1.8848
  149SAPE    C316423   5.896   4.852   6.906 -0.1446 -0.5898 -0.4755
  149SAPE    HX16424   5.934   4.786   6.826 -4.3390 -2.8067 -0.9451
  149SAPE    HY16425   5.904   4.782   6.992 -0.6462  1.6135  1.5007
  149SAPE   O3116426   5.967   4.975   6.936  0.2320  0.1731  0.0698
  149SAPE   C3116427   6.037   5.024   6.835 -0.3365  1.6345  1.1439
  149SAPE   O3216428   6.044   4.972   6.723  0.3514 -0.7643 -0.1519
  149SAPE   C3216429   6.093   5.160   6.860  0.1406  0.0096 -0.3420
  149SAPE   H2X16430   6.020   5.226   6.807 -2.0193 -2.0040 -0.0743
  149SAPE   H2Y16431   6.191   5.165   6.809 -0.2310  1.4193 -0.9744
  149SAPE   C2316432   5.348   5.017   7.120  0.0947  0.0965  0.9058
  149SAPE   H3R16433   5.296   5.011   7.022 -0.7207 -0.4939  1.3640
  149SAPE   H3S16434   5.316   5.107   7.177 -1.0148  0.6009 -0.4469
  149SAPE   C2416435   5.311   4.897   7.206 -0.2990 -0.3832 -0.5763
  149SAPE   H4R16436   5.381   4.903   7.293 -0.2565 -2.0477 -0.4685
  149SAPE   H4S16437   5.332   4.802   7.151 -1.3622 -0.8887 -0.1284
  149SAPE   C2516438   5.163   4.898   7.245 -0.0970 -0.4483 -0.3958
  149SAPE   H5R16439   5.100   4.905   7.155 -0.4932 -0.5478 -0.1325
  149SAPE   C2616440   5.096   4.882   7.365 -0.0286 -0.3372  0.3669
  149SAPE   H6R16441   4.986   4.892   7.368  0.0124 -0.2228  3.0972
  149SAPE   C2716442   5.145   4.868   7.507  0.0265  0.4639  0.1164
  149SAPE   H7R16443   5.068   4.897   7.581 -1.7627  0.8156 -1.7938
  149SAPE   H7S16444   5.241   4.925   7.512  2.8546 -3.6175 -1.4891
  149SAPE   C2816445   5.192   4.726   7.531  0.7263 -0.3154 -0.1510
  149SAPE   H8R16446   5.276   4.689   7.470  1.0588  0.7917 -0.3863
  149SAPE   C2916447   5.148   4.643   7.625  0.1807  0.8406 -0.2738
  149SAPE   H9R16448   5.193   4.543   7.620 -1.8164 -0.1417  0.1783
  149SAPE  C21016449   5.039   4.665   7.728  0.3017  0.0982  0.1995
  149SAPE  H10R16450   5.029   4.564   7.772  2.2749  0.0995  0.7388
  149SAPE  H10S16451   4.945   4.693   7.677 -0.0744 -0.7679  0.3958
  149SAPE  C21116452   5.075   4.765   7.840  0.0208 -0.0942  0.2153
  149SAPE  H11R16453   5.154   4.839   7.820  0.0760  0.0252  0.8522
  149SAPE  C21216454   5.040   4.753   7.971 -0.3928 -0.3408 -0.1679
  149SAPE  H12R16455   5.076   4.829   8.041 -0.3355 -0.9137  0.4356
  149SAPE  C21316456   4.949   4.652   8.021  0.5692  0.5197  0.0025
  149SAPE  H13R16457   4.904   4.585   7.945  1.8697  0.7021 -0.9599
  149SAPE  H13S16458   4.865   4.702   8.075  0.8022  0.5272  0.3603
  149SAPE  C21416459   5.025   4.570   8.121 -0.1702  0.2634  0.4000
  149SAPE  H14R16460   5.108   4.512   8.077 -0.3360 -0.2331  0.7270
  149SAPE  C21516461   4.989   4.535   8.244  0.4030 -0.3619 -0.0146
  149SAPE  H15R16462   5.054   4.462   8.296  0.3250 -0.7492 -0.4530
  149SAPE  C21616463   4.868   4.589   8.323 -0.6723 -0.6212  0.1871
  149SAPE  H16R16464   4.789   4.526   8.278 -1.7692  0.0697  1.0943
  149SAPE  H16S16465   4.843   4.695   8.302  1.0535  0.2555  2.0764
  149SAPE  C21716466   4.883   4.587   8.475 -0.3340 -0.1043 -0.2561
  149SAPE  H17R16467   4.975   4.630   8.520  0.1172 -0.4431 -0.8357
  149SAPE  H17S16468   4.882   4.481   8.507 -2.4502  0.4754  1.8432
  149SAPE  C21816469   4.762   4.667   8.544 -0.3542 -0.0463 -0.2478
  149SAPE  H18R16470   4.669   4.624   8.500 -0.2281 -0.3703 -0.2048
  149SAPE  H18S16471   4.761   4.771   8.506 -1.9630  0.0935  0.1227
  149SAPE  C21916472   4.770   4.668   8.699 -0.2790  0.8794  0.2703
  149SAPE  H19R16473   4.783   4.567   8.742 -0.8893  1.2662  1.4026
  149SAPE  H19S16474   4.672   4.707   8.733 -0.6089 -0.5642  1.0299
  149SAPE  C22016475   4.886   4.752   8.745  0.3552  0.3974  0.5745
  149SAPE  H20R16476   4.877   4.790   8.849  2.5114  1.0039  0.5903
  149SAPE  H20S16477   4.889   4.848   8.689 -0.3103  0.0376 -0.0872
  149SAPE  H20T16478   4.984   4.700   8.733  1.3253  2.4808 -1.4219
  149SAPE   C3316479   6.094   5.200   7.007  0.1120  0.5501  0.9712
  149SAPE   H3X16480   6.127   5.106   7.056 -0.4786 -1.2833 -1.8490
  149SAPE   H3Y16481   5.988   5.201   7.042 -0.1326 -1.2340  0.3954
  149SAPE   C3416482   6.160   5.327   7.048 -0.1722 -0.4803 -0.6865
  149SAPE   H4X16483   6.151   5.398   6.963  1.4727 -0.4239 -0.8411
  149SAPE   H4Y16484   6.270   5.309   7.054 -0.4693 -1.9474  2.4075
  149SAPE   C3516485   6.105   5.396   7.176 -0.1649  0.1649  0.2028
  149SAPE   H5X16486   6.001   5.426   7.151 -0.8622 -2.5062 -0.5079
  149SAPE   H5Y16487   6.165   5.484   7.207  1.9244 -1.1874  0.2022
  149SAPE   C3616488   6.110   5.297   7.287  0.2201 -0.0956  0.1291
  149SAPE   H6X16489   6.194   5.228   7.267  0.2284 -0.5295  1.5562
  149SAPE   H6Y16490   6.013   5.244   7.300  0.5709 -0.6405  0.5289
  149SAPE   C3716491   6.145   5.381   7.424 -0.1311  0.0079  0.4345
  149SAPE   H7X16492   6.090   5.477   7.430 -2.0899 -1.1365  2.6281
  149SAPE   H7Y16493   6.255   5.388   7.416 -0.1737  0.4097  0.2002
  149SAPE   C3816494   6.123   5.298   7.551 -0.4537  0.5500 -0.0690
  149SAPE   H8X16495   6.175   5.200   7.548 -3.0791 -1.0234  1.6490
  149SAPE   H8Y16496   6.015   5.273   7.550  0.0643 -1.9330 -0.3999
  149SAPE   C3916497   6.166   5.361   7.681 -0.4982 -0.4721 -0.1224
  149SAPE   H9X16498   6.112   5.456   7.696 -1.0429 -0.6679 -0.7724
  149SAPE   H9Y16499   6.276   5.374   7.690 -0.1340 -3.1479  0.3253
  149SAPE  C31016500   6.116   5.264   7.791  0.1445 -0.0267  0.5196
  149SAPE  H10X16501   6.169   5.167   7.795  0.2809 -0.0590 -1.3466
  149SAPE  H10Y16502   6.009   5.238   7.774  0.5900 -1.0076 -0.9583
  149SAPE  C31116503   6.132   5.333   7.922 -0.7098  0.6995 -0.0811
  149SAPE  H11X16504   6.076   5.428   7.933 -1.4649  0.3520 -0.8028
  149SAPE  H11Y16505   6.239   5.355   7.941 -0.7016  0.0695  0.6725
  149SAPE  C31216506   6.068   5.248   8.036  0.1912 -0.2377 -0.1121
  149SAPE  H12X16507   6.114   5.147   8.039  0.2834 -0.1928  2.8045
  149SAPE  H12Y16508   5.959   5.232   8.024  0.3362 -1.0975 -0.3346
  149SAPE  C31316509   6.080   5.311   8.179 -0.0336  0.2014  0.3973
  149SAPE  H13X16510   6.041   5.414   8.189  0.7768  0.4992  0.5970
  149SAPE  H13Y16511   6.185   5.315   8.217 -0.1236 -1.1630  0.8511
  149SAPE  C31416512   6.001   5.229   8.292 -0.1970 -0.2863 -0.2763
  149SAPE  H14X16513   6.035   5.124   8.289  0.4581 -0.1692  1.7589
  149SAPE  H14Y16514   5.890   5.230   8.283 -0.2847 -0.7188  0.7220
  149SAPE  C31516515   6.024   5.285   8.433  0.1397  0.4980  0.7614
  149SAPE  H15X16516   5.986   5.389   8.421 -4.2323 -1.1021 -1.5685
  149SAPE  H15Y16517   6.132   5.291   8.457  0.8550  0.3011 -2.0514
  149SAPE  C31616518   5.938   5.218   8.544 -0.6083 -0.2920 -0.0745
  149SAPE  H16X16519   5.976   5.114   8.558  2.2621  0.5791 -0.6023
  149SAPE  H16Y16520   5.832   5.211   8.513 -0.3588  2.1501 -1.7652
  149SAPE  C31716521   5.939   5.301   8.674 -1.4180  0.1624 -0.2473
  149SAPE  H17X16522   5.898   5.237   8.755  1.9677 -2.3488 -0.3168
  149SAPE  H17Y16523   5.877   5.392   8.661 -1.6172 -0.2846 -2.9213
  149SAPE  C31816524   6.079   5.356   8.721  0.6460  0.0227 -0.5214
  149SAPE  H18X16525   6.074   5.397   8.824  2.3530 -3.5988  1.2062
  149SAPE  H18Y16526   6.129   5.425   8.650  2.3761 -1.3998 -0.7599
  149SAPE  H18Z16527   6.147   5.270   8.739  0.8139  0.4634  1.1972
  150SAPE     N16528   3.928   0.488   6.436  0.0893 -0.0689  0.8475
  150SAPE   HN116529   3.991   0.428   6.378 -0.0050  0.4971  0.1438
  150SAPE   HN216530   3.830   0.475   6.404  0.8926 -3.2952 -0.7308
  150SAPE   HN316531   3.954   0.586   6.415  1.6648 -0.5232  0.5399
  150SAPE   C1216532   3.946   0.424   6.571  0.3130 -0.5021  0.0460
  150SAPE  H12A16533   3.899   0.324   6.556 -1.6209  0.3297  0.2513
  150SAPE  H12B16534   3.874   0.475   6.638 -1.1167 -1.6679 -0.5437
  150SAPE   C1116535   4.091   0.408   6.603 -0.2345 -0.2579 -0.1675
  150SAPE  H11A16536   4.125   0.341   6.521 -3.0032 -2.0363 -0.0099
  150SAPE  H11B16537   4.114   0.341   6.689  2.6219 -2.9067 -2.7334
  150SAPE     P16538   4.314   0.530   6.571  0.1921 -0.4559  0.6881
  150SAPE   O1316539   4.365   0.396   6.524 -0.3076 -0.0618 -0.4915
  150SAPE   O1416540   4.351   0.645   6.490 -0.3295  0.2161  0.6053
  150SAPE   O1216541   4.155   0.537   6.603 -0.2437  0.3566 -0.4202
  150SAPE   O1116542   4.387   0.556   6.712 -0.8087  0.1767  0.2407
  150SAPE    C116543   4.352   0.480   6.835 -0.3192 -0.6960  0.4444
  150SAPE    HA16544   4.296   0.386   6.813 -0.3767 -1.0917  2.2025
  150SAPE    HB16545   4.447   0.460   6.888  2.0282  1.9235 -2.4262
  150SAPE    C216546   4.263   0.569   6.930  0.3526  0.2814 -0.3214
  150SAPE    HS16547   4.168   0.587   6.874 -0.6442 -1.1428  0.8058
  150SAPE   O2116548   4.329   0.692   6.954  0.1488 -0.2710  0.0801
  150SAPE   C2116549   4.249   0.795   6.997  0.0118  0.0386  0.9373
  150SAPE   O2216550   4.132   0.793   7.002  0.8772  0.1908  0.0908
  150SAPE   C2216551   4.341   0.898   7.069  0.1323  0.7207  0.2630
  150SAPE   H2R16552   4.394   0.852   7.155 -1.9344 -0.6285  0.8852
  150SAPE   H2S16553   4.424   0.921   6.998  1.0923  0.8034  1.3870
  150SAPE    C316554   4.225   0.478   7.058  0.0671 -0.2733  0.8045
  150SAPE    HX16555   4.313   0.411   7.068 -1.0511 -2.1932 -1.3244
  150SAPE    HY16556   4.142   0.410   7.030  0.6588 -0.1857 -1.3647
  150SAPE   O3116557   4.212   0.565   7.170 -0.1751  0.0446 -0.2685
  150SAPE   C3116558   4.097   0.556   7.245  0.8076  0.3111 -0.3945
  150SAPE   O3216559   4.012   0.473   7.230 -0.0367  0.0701  0.2182
  150SAPE   C3216560   4.115   0.644   7.369  0.1382  0.7103  0.4957
  150SAPE   H2X16561   4.062   0.739   7.349 -2.4543 -0.1862  2.5065
  150SAPE   H2Y16562   4.224   0.650   7.389  1.0221 -1.1935 -2.9755
  150SAPE   C2316563   4.264   1.026   7.119  0.1350 -0.1158  0.6586
  150SAPE   H3R16564   4.186   1.048   7.043  1.0900 -0.4117 -0.4203
  150SAPE   H3S16565   4.333   1.113   7.123 -0.7057  0.7304 -1.6871
  150SAPE   C2416566   4.193   0.987   7.250  0.2358 -0.6893  0.0115
  150SAPE   H4R16567   4.132   0.895   7.238  0.2380 -0.9525  1.7331
  150SAPE   H4S16568   4.120   1.067   7.275  2.5907  0.7246  3.0792
  150SAPE   C2516569   4.281   0.968   7.372  0.2372 -0.0678  0.3311
  150SAPE   H5R16570   4.384   0.943   7.342 -0.0218 -1.9071  0.8430
  150SAPE   C2616571   4.263   0.991   7.504  1.4585 -0.2485  0.0967
  150SAPE   H6R16572   4.342   0.961   7.574  0.1528 -2.7477  0.6376
  150SAPE   C2716573   4.142   1.043   7.575 -0.3317 -0.2589 -0.0640
  150SAPE   H7R16574   4.101   0.959   7.634  2.6112 -1.4754  0.4315
  150SAPE   H7S16575   4.065   1.074   7.502 -2.0911 -3.0261  0.4760
  150SAPE   C2816576   4.179   1.156   7.678  0.6464  0.2984  0.1778
  150SAPE   H8R16577   4.230   1.243   7.634  0.4338  1.5176  2.1765
  150SAPE   C2916578   4.165   1.156   7.814 -0.6000 -0.3249  0.3972
  150SAPE   H9R16579   4.193   1.244   7.874  1.4720  0.0705 -1.0218
  150SAPE  C21016580   4.101   1.051   7.903 -0.2546  0.8079 -0.3601
  150SAPE  H10R16581   4.016   0.999   7.853  0.0280  0.2328 -0.2563
  150SAPE  H10S16582   4.058   1.097   7.995 -0.6783 -0.6051  0.1751
  150SAPE  C21116583   4.207   0.947   7.944 -0.1705 -0.3202  0.9259
  150SAPE  H11R16584   4.242   0.882   7.862 -1.2069 -1.8866  1.6705
  150SAPE  C21216585   4.251   0.922   8.071 -0.2492 -0.4061 -0.1206
  150SAPE  H12R16586   4.316   0.834   8.087 -0.4763 -0.6694 -0.6248
  150SAPE  C21316587   4.192   0.994   8.195  0.2087  0.6567 -0.0164
  150SAPE  H13R16588   4.172   0.913   8.269  2.3806  2.9074  3.3121
  150SAPE  H13S16589   4.089   1.036   8.190  0.7902  1.9812 -1.4529
  150SAPE  C21416590   4.295   1.065   8.269 -0.1029 -0.4536 -0.0411
  150SAPE  H14R16591   4.392   1.081   8.219  0.3972 -0.2430  0.9653
  150SAPE  C21516592   4.277   1.134   8.383 -0.0768 -0.2139  0.3541
  150SAPE  H15R16593   4.368   1.172   8.431 -0.0718  1.0805 -0.6233
  150SAPE  C21616594   4.148   1.159   8.458  0.0769 -0.2463  0.1420
  150SAPE  H16R16595   4.171   1.171   8.566  0.2482 -0.8246  0.1714
  150SAPE  H16S16596   4.073   1.077   8.458 -0.3972  0.1098 -2.3317
  150SAPE  C21716597   4.080   1.290   8.394  0.3543  0.6614 -0.8744
  150SAPE  H17R16598   4.030   1.254   8.302  2.2053 -4.1583 -0.2627
  150SAPE  H17S16599   4.162   1.365   8.386  0.4489  0.6705  0.0404
  150SAPE  C21816600   3.967   1.350   8.487  0.1223  0.2187  0.5295
  150SAPE  H18R16601   3.883   1.280   8.503  0.1462 -0.3555 -1.5691
  150SAPE  H18S16602   3.916   1.426   8.424 -2.1398 -1.1958  0.5832
  150SAPE  C21916603   4.006   1.408   8.620 -0.2348  0.9097 -0.0323
  150SAPE  H19R16604   4.082   1.338   8.659 -0.5699  0.0892 -0.8125
  150SAPE  H19S16605   3.926   1.400   8.697 -0.2517 -1.1589 -0.2114
  150SAPE  C22016606   4.048   1.549   8.613  0.4487  0.3337  0.0278
  150SAPE  H20R16607   3.967   1.625   8.614  0.1589  0.0356  1.2127
  150SAPE  H20S16608   4.113   1.562   8.524 -1.2118 -0.5318 -1.3644
  150SAPE  H20T16609   4.105   1.573   8.706 -1.5480 -0.2132  1.4730
  150SAPE   C3316610   4.040   0.592   7.491  0.7776 -0.3750 -0.0883
  150SAPE   H3X16611   4.051   0.481   7.493  0.2026 -0.4244  2.2907
  150SAPE   H3Y16612   3.931   0.612   7.486  0.2519 -2.3455  1.9158
  150SAPE   C3416613   4.092   0.657   7.623 -0.0794  0.5078  0.5072
  150SAPE   H4X16614   4.045   0.757   7.641  1.0295  1.0153  0.6770
  150SAPE   H4Y16615   4.200   0.674   7.604 -0.0157 -0.5984 -0.1829
  150SAPE   C3516616   4.068   0.557   7.734  0.8366  0.6355 -0.1245
  150SAPE   H5X16617   4.077   0.454   7.694 -0.5359  1.0837 -1.6763
  150SAPE   H5Y16618   3.961   0.571   7.761  0.8054  1.1801 -0.5300
  150SAPE   C3616619   4.154   0.587   7.858 -0.1073 -0.2136  0.2933
  150SAPE   H6X16620   4.121   0.683   7.904 -0.1644 -0.9815  1.9067
  150SAPE   H6Y16621   4.258   0.592   7.821  0.7760 -2.3425  2.2512
  150SAPE   C3716622   4.149   0.486   7.971  0.3572 -0.0741 -0.3192
  150SAPE   H7X16623   4.172   0.385   7.931  0.9304  0.2715 -0.8684
  150SAPE   H7Y16624   4.049   0.490   8.020  0.6829 -0.2306  0.3684
  150SAPE   C3816625   4.255   0.518   8.068 -0.4785 -0.2117 -0.4618
  150SAPE   H8X16626   4.238   0.618   8.114  2.0625 -0.4479  1.1992
  150SAPE   H8Y16627   4.352   0.533   8.016 -0.0209 -0.5401  0.2838
  150SAPE   C3916628   4.270   0.408   8.171  0.0571  0.7485  0.3898
  150SAPE   H9X16629   4.293   0.312   8.119  0.7006  1.4559 -0.6592
  150SAPE   H9Y16630   4.172   0.391   8.220 -0.2563 -0.3443 -0.5539
  150SAPE  C31016631   4.383   0.422   8.284 -0.1954 -0.2486  0.4671
  150SAPE  H10X16632   4.369   0.526   8.320  0.8548  0.4407 -1.0202
  150SAPE  H10Y16633   4.476   0.419   8.224  0.2680  1.6648  1.0170
  150SAPE  C31116634   4.389   0.319   8.396  0.1846 -0.4934  0.2645
  150SAPE  H11X16635   4.413   0.218   8.355  0.6532 -0.1311 -0.3687
  150SAPE  H11Y16636   4.293   0.306   8.449  0.4629  0.1647  0.9549
  150SAPE  C31216637   4.490   0.365   8.499  0.2130  0.0804 -0.1385
  150SAPE  H12X16638   4.458   0.452   8.560 -0.9709  0.7132 -1.6118
  150SAPE  H12Y16639   4.582   0.395   8.446  0.9032 -0.4830  0.7075
  150SAPE  C31316640   4.529   0.250   8.594  0.1102  0.6815  0.0362
  150SAPE  H13X16641   4.539   0.165   8.523 -1.0581  0.8402 -0.3254
  150SAPE  H13Y16642   4.440   0.219   8.653  0.7896 -3.3463 -0.7507
  150SAPE  C31416643   4.656   0.259   8.682 -0.1141  0.2999 -0.1658
  150SAPE  H14X16644   4.617   0.311   8.772  1.7244 -0.0689  0.8973
  150SAPE  H14Y16645   4.736   0.321   8.636  0.2379 -0.8571 -1.1779
  150SAPE  C31516646   4.709   0.123   8.735  0.3978  0.6816 -0.5670
  150SAPE  H15X16647   4.628   0.051   8.712  0.9065 -0.0321 -0.1307
  150SAPE  H15Y16648   4.703   0.132   8.845 -1.1777 -0.7217 -0.5110
  150SAPE  C31616649   4.845   0.072   8.688 -0.6308  1.0423 -0.2652
  150SAPE  H16X16650   4.911   0.159   8.703 -0.9921  1.5639 -1.5891
  150SAPE  H16Y16651   4.837   0.054   8.579 -0.2186  2.5008 -0.5529
  150SAPE  C31716652   4.907  -0.043   8.759  0.0997  0.3601 -0.1594
  150SAPE  H17X16653   4.911  -0.016   8.867  3.4366 -0.3392  0.0108
  150SAPE  H17Y16654   5.006  -0.067   8.715 -0.2512  1.8943 -1.9231
  150SAPE  C31816655   4.822  -0.173   8.746 -0.1596  0.7010 -0.0069
  150SAPE  H18X16656   4.819  -0.205   8.639 -3.4485  2.4333 -0.5502
  150SAPE  H18Y16657   4.722  -0.144   8.782 -0.1135  1.0371 -0.1481
  150SAPE  H18Z16658   4.847  -0.260   8.810  0.1284  0.2932 -0.6570
  151SAPE     N16659   0.363   4.729   6.260 -0.1131  0.3061  0.5618
  151SAPE   HN116660   0.282   4.724   6.196 -0.1968 -1.0545  0.7297
  151SAPE   HN216661   0.382   4.827   6.289 -3.0165  1.1721 -0.1451
  151SAPE   HN316662   0.453   4.704   6.214  0.2871  1.5371  0.6541
  151SAPE   C1216663   0.327   4.643   6.378 -0.5256 -0.4725 -0.2636
  151SAPE  H12A16664   0.300   4.544   6.335 -0.9256 -0.0973 -0.8890
  151SAPE  H12B16665   0.239   4.693   6.423 -0.2749 -1.0172  0.8807
  151SAPE   C1116666   0.454   4.635   6.471  0.5832 -0.1333  0.2013
  151SAPE  H11A16667   0.438   4.577   6.564  0.6034 -2.8409 -1.3690
  151SAPE  H11B16668   0.486   4.739   6.495  1.4648 -0.8296  2.2278
  151SAPE     P16669   0.624   4.424   6.411  0.5482 -0.2202 -0.1970
  151SAPE   O1316670   0.543   4.331   6.334  0.1897  0.4488  0.0868
  151SAPE   O1416671   0.769   4.438   6.376  0.1502  0.3103 -0.7242
  151SAPE   O1216672   0.560   4.569   6.400  0.2820  0.1830 -0.9124
  151SAPE   O1116673   0.622   4.395   6.565 -0.0204  0.1644 -0.3436
  151SAPE    C116674   0.685   4.488   6.664 -0.6874 -0.0190 -0.0859
  151SAPE    HA16675   0.773   4.432   6.701 -0.3476  1.2709  1.1179
  151SAPE    HB16676   0.722   4.586   6.628  0.5645 -0.7447 -0.8614
  151SAPE    C216677   0.599   4.506   6.798 -0.3700 -0.9261 -0.0916
  151SAPE    HS16678   0.511   4.570   6.776 -0.2065 -0.7291 -0.1813
  151SAPE   O2116679   0.664   4.576   6.906  0.0416  0.6736 -0.5785
  151SAPE   C2116680   0.689   4.702   6.880  0.4401 -0.1061 -0.1080
  151SAPE   O2216681   0.690   4.760   6.771 -0.0070 -0.7159  0.1306
  151SAPE   C2216682   0.714   4.774   7.006 -0.6970  0.3890 -0.0863
  151SAPE   H2R16683   0.791   4.724   7.068 -0.6173  0.5294 -0.0697
  151SAPE   H2S16684   0.740   4.878   6.976 -0.0689 -0.2083 -1.7145
  151SAPE    C316685   0.553   4.366   6.854  0.0292  0.1203 -0.4427
  151SAPE    HX16686   0.647   4.313   6.880 -0.3246 -0.0488  0.5283
  151SAPE    HY16687   0.497   4.311   6.775  0.0066 -0.1803 -0.2183
  151SAPE   O3116688   0.467   4.381   6.966 -0.3102 -0.2384 -0.0545
  151SAPE   C3116689   0.399   4.275   6.999  0.0944 -0.4639  0.1766
  151SAPE   O3216690   0.407   4.163   6.950  0.2644  0.2491 -0.5628
  151SAPE   C3216691   0.312   4.316   7.117 -0.3916  0.3306  0.2952
  151SAPE   H2X16692   0.229   4.376   7.073 -0.3257 -0.3003 -0.7231
  151SAPE   H2Y16693   0.362   4.379   7.193 -1.3896  2.6529 -0.8616
  151SAPE   C2316694   0.580   4.797   7.094 -0.9785 -0.0236  0.0793
  151SAPE   H3R16695   0.499   4.839   7.031 -1.7558 -2.4021 -0.6038
  151SAPE   H3S16696   0.597   4.873   7.174 -4.0682  2.1859 -1.1751
  151SAPE   C2416697   0.533   4.666   7.166  0.3961  0.1212 -0.7969
  151SAPE   H4R16698   0.618   4.625   7.224  0.0694 -1.0426 -1.1091
  151SAPE   H4S16699   0.513   4.584   7.093 -1.7975 -0.0604 -0.0706
  151SAPE   C2516700   0.404   4.686   7.240  0.0996 -0.0426 -0.5026
  151SAPE   H5R16701   0.314   4.719   7.187 -0.9326  1.0724  1.8083
  151SAPE   C2616702   0.388   4.657   7.366  0.3153  0.1846 -0.4822
  151SAPE   H6R16703   0.292   4.678   7.417  0.7310 -1.8213  1.2831
  151SAPE   C2716704   0.492   4.597   7.455 -0.2283  0.5418 -1.0764
  151SAPE   H7R16705   0.564   4.531   7.402 -0.3190  0.8204 -1.5570
  151SAPE   H7S16706   0.445   4.534   7.534 -0.3770 -1.2668 -2.5384
  151SAPE   C2816707   0.569   4.710   7.521 -0.0113  0.5681  1.4475
  151SAPE   H8R16708   0.620   4.779   7.451  0.6031 -0.5054  0.8150
  151SAPE   C2916709   0.575   4.749   7.649  0.6361 -0.0343 -0.5846
  151SAPE   H9R16710   0.615   4.849   7.670  1.2818 -0.2443 -0.8086
  151SAPE  C21016711   0.515   4.689   7.771 -0.1809  0.0497  0.5263
  151SAPE  H10R16712   0.536   4.768   7.846  1.5750 -0.9731  1.1665
  151SAPE  H10S16713   0.563   4.591   7.794 -1.4878 -1.0022 -0.9915
  151SAPE  C21116714   0.369   4.669   7.788 -0.0172  0.5438 -0.0156
  151SAPE  H11R16715   0.314   4.638   7.698 -0.4466  2.3487 -0.4123
  151SAPE  C21216716   0.308   4.666   7.909 -0.1399  0.2307 -0.6690
  151SAPE  H12R16717   0.199   4.653   7.914  0.0963 -1.5149  0.7733
  151SAPE  C21316718   0.366   4.703   8.046 -0.1310  0.0112  0.3681
  151SAPE  H13R16719   0.282   4.760   8.091  0.7440  2.3095 -0.7123
  151SAPE  H13S16720   0.455   4.769   8.037 -0.8468  0.9665  0.1153
  151SAPE  C21416721   0.407   4.595   8.140 -0.1668  0.1896  0.0349
  151SAPE  H14R16722   0.432   4.498   8.095 -0.8335 -0.8028  1.7257
  151SAPE  C21516723   0.405   4.580   8.274  0.1490  0.4209 -0.4387
  151SAPE  H15R16724   0.440   4.487   8.320  0.2981  0.9679  0.6058
  151SAPE  C21616725   0.353   4.685   8.366  0.5102 -0.6401 -0.1254
  151SAPE  H16R16726   0.369   4.786   8.323  0.1874  0.0450  1.2996
  151SAPE  H16S16727   0.405   4.676   8.464 -2.2237  1.9107  1.7255
  151SAPE  C21716728   0.203   4.660   8.412 -0.3532 -0.7138 -0.1422
  151SAPE  H17R16729   0.131   4.692   8.334 -2.2951 -2.8362  0.6792
  151SAPE  H17S16730   0.188   4.720   8.505  0.1247 -0.6654 -0.0933
  151SAPE  C21816731   0.161   4.508   8.439  0.9877  0.3922  0.6769
  151SAPE  H18R16732   0.163   4.445   8.348 -2.6611  0.4419  0.4079
  151SAPE  H18S16733   0.053   4.507   8.466  0.2497 -1.3060 -1.9806
  151SAPE  C21916734   0.240   4.442   8.547 -0.4581  0.6777 -0.0570
  151SAPE  H19R16735   0.350   4.452   8.529 -0.5792  1.1593 -0.5411
  151SAPE  H19S16736   0.216   4.334   8.535  0.1367  0.4746  0.5272
  151SAPE  C22016737   0.214   4.497   8.689 -0.0727  0.5103 -0.0492
  151SAPE  H20R16738   0.277   4.449   8.767  1.9877  1.1794 -1.2090
  151SAPE  H20S16739   0.228   4.607   8.686  0.4251  0.4617  0.3596
  151SAPE  H20T16740   0.106   4.478   8.709  0.3009 -0.8552  0.7860
  151SAPE   C3316741   0.251   4.184   7.181 -0.1611  0.0911 -0.0493
  151SAPE   H3X16742   0.340   4.122   7.206 -0.8030 -1.3605 -1.2395
  151SAPE   H3Y16743   0.192   4.131   7.104 -0.8670  1.7084 -0.6713
  151SAPE   C3416744   0.163   4.199   7.301  0.2827  0.6140  0.0150
  151SAPE   H4X16745   0.103   4.107   7.321  3.1633 -1.2526  0.8047
  151SAPE   H4Y16746   0.093   4.284   7.284  0.0271  0.0256 -2.1722
  151SAPE   C3516747   0.242   4.211   7.432  0.6383  0.0514  0.5964
  151SAPE   H5X16748   0.329   4.279   7.423 -0.5402  1.5318 -0.0788
  151SAPE   H5Y16749   0.292   4.114   7.455  0.0111 -0.8544 -1.5710
  151SAPE   C3616750   0.164   4.261   7.553 -0.5916  0.2011 -0.4159
  151SAPE   H6X16751   0.058   4.289   7.534 -0.2499  1.0741 -1.1342
  151SAPE   H6Y16752   0.210   4.356   7.589  0.7646 -0.4529 -0.3709
  151SAPE   C3716753   0.176   4.158   7.663 -0.3174  0.2479  0.1500
  151SAPE   H7X16754   0.266   4.093   7.674  0.7779  1.3489 -1.8269
  151SAPE   H7Y16755   0.099   4.088   7.625 -1.6404  1.3250  0.7641
  151SAPE   C3816756   0.133   4.216   7.804 -0.1224 -0.2385  0.1798
  151SAPE   H8X16757   0.036   4.269   7.800 -0.2332 -0.4230  0.4232
  151SAPE   H8Y16758   0.212   4.290   7.830 -1.0803  0.1844  2.0835
  151SAPE   C3916759   0.136   4.109   7.911 -0.2583  0.7150  0.3511
  151SAPE   H9X16760   0.217   4.034   7.896 -1.3410 -0.7908  1.7529
  151SAPE   H9Y16761   0.039   4.056   7.903 -0.8460  1.4850  1.9038
  151SAPE  C31016762   0.155   4.165   8.050  0.6091  0.1524 -0.5890
  151SAPE  H10X16763   0.090   4.249   8.084  1.1018 -0.1810  1.2701
  151SAPE  H10Y16764   0.259   4.206   8.048  0.2844  0.9893 -1.6655
  151SAPE  C31116765   0.147   4.051   8.149  0.5454  0.0617 -0.3236
  151SAPE  H11X16766   0.204   3.971   8.097 -0.6023  1.0187 -3.2774
  151SAPE  H11Y16767   0.039   4.028   8.160 -0.1250  3.4284  1.1911
  151SAPE  C31216768   0.200   4.082   8.286 -0.1875  0.2247  0.4788
  151SAPE  H12X16769   0.136   4.168   8.315 -0.8994  0.5850 -1.9457
  151SAPE  H12Y16770   0.310   4.095   8.286 -0.0040 -1.0946  1.8641
  151SAPE  C31316771   0.190   3.960   8.383  0.4119  0.2238 -0.6717
  151SAPE  H13X16772   0.243   3.879   8.328  1.9265 -0.1526  1.2149
  151SAPE  H13Y16773   0.081   3.940   8.391  0.4552  0.2438  0.0445
  151SAPE  C31416774   0.246   3.982   8.524  0.3609  0.5650 -0.5009
  151SAPE  H14X16775   0.193   4.068   8.571 -1.1609 -2.1001  3.0751
  151SAPE  H14Y16776   0.354   4.007   8.531  0.3819  0.6591 -1.1377
  151SAPE  C31516777   0.220   3.861   8.618 -0.2665 -0.1192  0.1290
  151SAPE  H15X16778   0.286   3.777   8.588 -1.6061 -0.8178 -0.9765
  151SAPE  H15Y16779   0.116   3.823   8.608  0.1673 -0.9900 -1.4410
  151SAPE  C31616780   0.247   3.893   8.767  0.8744 -0.1002 -0.3022
  151SAPE  H16X16781   0.205   3.991   8.797  1.3559 -0.2660  0.9850
  151SAPE  H16Y16782   0.355   3.886   8.792  0.8478  1.9062  0.5037
  151SAPE  C31716783   0.181   3.786   8.853  0.0787 -0.0231 -0.4615
  151SAPE  H17X16784   0.209   3.687   8.812 -2.1220 -1.6339  1.6434
  151SAPE  H17Y16785   0.071   3.796   8.837 -0.1417 -0.3835  0.6934
  151SAPE  C31816786   0.220   3.782   8.999 -0.0850  0.6471  0.3809
  151SAPE  H18X16787   0.194   3.691   9.058  1.6810  0.2418  0.6148
  151SAPE  H18Y16788   0.166   3.866   9.048 -1.4555  0.9071 -1.4773
  151SAPE  H18Z16789   0.330   3.795   9.010 -0.2998  1.7782  1.4618
  152SAPE     N16790   3.215   1.582   6.259  0.6896 -0.4259 -0.3739
  152SAPE   HN116791   3.183   1.492   6.300 -0.6181  0.1054 -0.1863
  152SAPE   HN216792   3.175   1.585   6.163 -0.7534 -1.4092  0.1649
  152SAPE   HN316793   3.318   1.589   6.270  0.7383 -1.1788 -0.2992
  152SAPE   C1216794   3.153   1.689   6.346 -0.3663  0.2535 -1.3563
  152SAPE  H12A16795   3.174   1.784   6.293 -5.2830  1.6540 -1.3268
  152SAPE  H12B16796   3.197   1.687   6.448 -2.5266  0.4495 -0.3727
  152SAPE   C1116797   3.002   1.681   6.352 -0.3093  0.3308 -0.0138
  152SAPE  H11A16798   2.960   1.701   6.251  2.2919 -0.0272 -1.2505
  152SAPE  H11B16799   2.961   1.754   6.425  0.4945  0.4751  0.3049
  152SAPE     P16800   2.811   1.503   6.382 -0.3234  0.1958  0.1206
  152SAPE   O1316801   2.715   1.616   6.381  0.4159  0.9394 -0.5527
  152SAPE   O1416802   2.804   1.417   6.262 -0.2589  0.0465 -0.2913
  152SAPE   O1216803   2.964   1.549   6.397  0.4137 -0.0202 -0.2607
  152SAPE   O1116804   2.776   1.419   6.510 -0.6185 -0.7809  0.3721
  152SAPE    C116805   2.848   1.425   6.630  0.0895 -0.6674 -0.9168
  152SAPE    HA16806   2.936   1.494   6.631 -0.5628  0.2299  1.2637
  152SAPE    HB16807   2.779   1.455   6.711 -0.8990  0.5817 -2.1595
  152SAPE    C216808   2.913   1.290   6.672 -0.7754  0.6292  0.3062
  152SAPE    HS16809   2.839   1.208   6.687 -0.5845  0.1461 -1.1511
  152SAPE   O2116810   2.990   1.307   6.799 -0.9866  0.3597  0.1740
  152SAPE   C2116811   2.917   1.288   6.909 -0.5083 -0.4500  0.1497
  152SAPE   O2216812   2.795   1.262   6.906  0.2467  0.8100  0.4857
  152SAPE   C2216813   3.001   1.292   7.038  0.4651 -0.7334  0.7157
  152SAPE   H2R16814   3.105   1.268   7.006  0.9779 -0.3451  2.0184
  152SAPE   H2S16815   3.006   1.396   7.076  2.1489 -1.0424  1.4620
  152SAPE    C316816   3.013   1.254   6.563 -0.1055  0.6335  0.3945
  152SAPE    HX16817   3.098   1.325   6.574 -0.8315  1.2605  2.3364
  152SAPE    HY16818   2.971   1.261   6.460  1.1923  0.7810 -0.1449
  152SAPE   O3116819   3.059   1.115   6.569 -0.2864  0.3782 -0.5523
  152SAPE   C3116820   3.136   1.089   6.668  0.7746 -0.0925 -0.5245
  152SAPE   O3216821   3.196   1.166   6.743 -0.3362 -0.4735  0.2128
  152SAPE   C3216822   3.144   0.941   6.681  0.3959  0.0957 -0.0112
  152SAPE   H2X16823   3.217   0.891   6.614  1.6918 -0.7167  1.9149
  152SAPE   H2Y16824   3.046   0.888   6.674  0.6521 -0.3046 -0.6801
  152SAPE   C2316825   2.967   1.187   7.151  0.0004 -0.4192  0.4546
  152SAPE   H3R16826   3.023   1.094   7.126 -0.9643 -1.3732  1.6948
  152SAPE   H3S16827   2.863   1.153   7.170  0.3905 -2.1155 -0.2264
  152SAPE   C2416828   3.030   1.234   7.291 -0.4611  0.5316  0.4385
  152SAPE   H4R16829   3.138   1.248   7.273 -0.1846 -0.2396  1.4045
  152SAPE   H4S16830   3.010   1.150   7.361  0.6946  0.6569  0.9284
  152SAPE   C2516831   2.970   1.362   7.343  0.5435  0.6466 -0.0699
  152SAPE   H5R16832   3.004   1.459   7.304  2.0542  0.7572  1.4338
  152SAPE   C2616833   2.874   1.358   7.439 -1.0733  0.2493  0.2955
  152SAPE   H6R16834   2.830   1.451   7.479  2.4934  2.8937 -1.3246
  152SAPE   C2716835   2.816   1.222   7.491  0.1453 -0.1430 -0.1637
  152SAPE   H7R16836   2.892   1.180   7.561  1.7855  1.6357 -0.7748
  152SAPE   H7S16837   2.804   1.156   7.402 -2.6433 -0.6149  0.4701
  152SAPE   C2816838   2.686   1.256   7.559  0.0989  0.0843 -0.3034
  152SAPE   H8R16839   2.596   1.263   7.496 -0.0204 -2.7557 -0.5625
  152SAPE   C2916840   2.677   1.274   7.699  0.0670 -0.3992 -0.1818
  152SAPE   H9R16841   2.574   1.290   7.736  0.1712 -0.6617  0.2294
  152SAPE  C21016842   2.782   1.270   7.805 -0.5234  0.2928 -0.3254
  152SAPE  H10R16843   2.875   1.221   7.767  1.1346  1.1551  2.3233
  152SAPE  H10S16844   2.756   1.215   7.898  3.3073 -2.9236 -0.8798
  152SAPE  C21116845   2.830   1.411   7.844 -0.1035 -0.6579  0.3906
  152SAPE  H11R16846   2.867   1.470   7.759  0.2246  3.1103  2.8918
  152SAPE  C21216847   2.861   1.469   7.960 -0.0368  0.2302  0.4185
  152SAPE  H12R16848   2.875   1.578   7.954  1.7428  0.0753  1.1402
  152SAPE  C21316849   2.849   1.401   8.102 -0.0273 -0.5004  0.6075
  152SAPE  H13R16850   2.935   1.331   8.111 -0.1680 -0.4987  2.1830
  152SAPE  H13S16851   2.761   1.334   8.108 -1.5698  1.2361 -1.3289
  152SAPE  C21416852   2.850   1.496   8.216  0.6034 -0.0401 -0.3480
  152SAPE  H14R16853   2.940   1.559   8.223 -0.5319  1.5044  0.9142
  152SAPE  C21516854   2.741   1.528   8.297 -0.7316  0.4898  0.5281
  152SAPE  H15R16855   2.759   1.613   8.366  0.7362  0.8252 -0.2132
  152SAPE  C21616856   2.607   1.462   8.292  0.0068 -0.4404  0.2440
  152SAPE  H16R16857   2.624   1.358   8.258 -2.8342 -0.8000 -0.3638
  152SAPE  H16S16858   2.550   1.514   8.212 -0.4864 -1.0885  0.1650
  152SAPE  C21716859   2.525   1.430   8.428  0.3845 -0.4482  0.7193
  152SAPE  H17R16860   2.479   1.516   8.481  1.6571 -0.7876  2.4510
  152SAPE  H17S16861   2.595   1.397   8.507 -1.9647 -1.0336  2.7096
  152SAPE  C21816862   2.413   1.315   8.408  0.3458 -0.1887 -0.5896
  152SAPE  H18R16863   2.469   1.222   8.386  1.5128  0.2558  0.3890
  152SAPE  H18S16864   2.345   1.351   8.329 -1.5397 -0.7678  0.6900
  152SAPE  C21916865   2.336   1.285   8.541 -0.1596  0.2995 -0.1917
  152SAPE  H19R16866   2.306   1.383   8.585  0.5684  0.8986 -0.9720
  152SAPE  H19S16867   2.410   1.239   8.611 -0.0145  1.1044  0.2018
  152SAPE  C22016868   2.214   1.187   8.520 -0.4824  0.3642 -0.1200
  152SAPE  H20R16869   2.254   1.087   8.494  0.1980  1.0549 -1.8713
  152SAPE  H20S16870   2.159   1.231   8.433 -0.3566 -0.6412 -0.7138
  152SAPE  H20T16871   2.141   1.183   8.604  0.4344 -0.8951  0.6363
  152SAPE   C3316872   3.207   0.913   6.823  0.4434 -0.0065 -0.6001
  152SAPE   H3X16873   3.142   0.967   6.896  3.3248  1.6554  0.9111
  152SAPE   H3Y16874   3.293   0.980   6.843 -1.0858  2.1876 -0.9205
  152SAPE   C3416875   3.230   0.767   6.861 -0.0334  0.1815 -0.7301
  152SAPE   H4X16876   3.302   0.721   6.790 -0.1260 -1.2607  0.0904
  152SAPE   H4Y16877   3.139   0.704   6.858 -0.3802  0.4064  2.1241
  152SAPE   C3516878   3.295   0.743   7.002  0.4198 -0.3909  0.0916
  152SAPE   H5X16879   3.401   0.772   6.982  0.0587 -0.5569 -2.4364
  152SAPE   H5Y16880   3.297   0.636   7.034 -1.5159  0.1867  2.4285
  152SAPE   C3616881   3.219   0.820   7.122 -0.0150 -0.5107 -0.3505
  152SAPE   H6X16882   3.115   0.783   7.137  0.2159 -0.3457  2.0814
  152SAPE   H6Y16883   3.206   0.929   7.105 -1.2296  0.1406  3.6597
  152SAPE   C3716884   3.282   0.789   7.258  0.6339 -0.2295  0.4585
  152SAPE   H7X16885   3.389   0.820   7.258  0.5824  0.0701 -1.1694
  152SAPE   H7Y16886   3.293   0.680   7.275 -0.3500 -0.4650 -0.2925
  152SAPE   C3816887   3.217   0.863   7.374  0.1291 -0.1958 -0.1648
  152SAPE   H8X16888   3.108   0.852   7.361  0.4858 -1.8659 -2.1984
  152SAPE   H8Y16889   3.235   0.973   7.366  0.4513 -0.3723 -4.3443
  152SAPE   C3916890   3.240   0.805   7.514 -0.6180 -0.4018 -0.4231
  152SAPE   H9X16891   3.347   0.812   7.543 -0.9873 -1.7171  1.3976
  152SAPE   H9Y16892   3.218   0.697   7.512 -0.9865 -0.4070  1.6445
  152SAPE  C31016893   3.157   0.897   7.612 -0.8681 -0.2889  0.2489
  152SAPE  H10X16894   3.052   0.901   7.577 -0.5281 -0.5816 -0.8385
  152SAPE  H10Y16895   3.200   0.999   7.596  1.3312 -1.1071  0.5855
  152SAPE  C31116896   3.158   0.855   7.757  0.2607 -0.1988 -0.3856
  152SAPE  H11X16897   3.261   0.828   7.789  0.2264  0.8382  0.6740
  152SAPE  H11Y16898   3.096   0.763   7.761 -2.5965  1.4930 -1.8894
  152SAPE  C31216899   3.108   0.965   7.860 -0.5612  0.2180  0.6072
  152SAPE  H12X16900   2.998   0.954   7.872 -0.4727 -0.9132  0.5508
  152SAPE  H12Y16901   3.136   1.061   7.811 -1.1671  0.7845  1.3565
  152SAPE  C31316902   3.193   0.957   7.990 -0.4515  1.0903 -0.5664
  152SAPE  H13X16903   3.159   1.039   8.058 -2.0994  0.7287 -0.9228
  152SAPE  H13Y16904   3.300   0.970   7.961 -0.3270  1.0958 -0.1198
  152SAPE  C31416905   3.181   0.833   8.080  0.5175  0.4540  0.2465
  152SAPE  H14X16906   3.210   0.745   8.019  1.5860 -1.2353  3.0149
  152SAPE  H14Y16907   3.075   0.819   8.109  0.7623  0.7606  1.3055
  152SAPE  C31516908   3.267   0.834   8.210  0.3183 -0.7771  0.1913
  152SAPE  H15X16909   3.353   0.898   8.182 -1.4244  0.4861 -2.8610
  152SAPE  H15Y16910   3.299   0.730   8.231 -0.7727 -1.1521  0.0799
  152SAPE  C31616911   3.212   0.900   8.340  0.6048 -0.3024 -0.1470
  152SAPE  H16X16912   3.122   0.851   8.383 -0.1763  1.7288  0.6534
  152SAPE  H16Y16913   3.177   1.003   8.315 -2.9706 -1.5206 -0.6709
  152SAPE  C31716914   3.318   0.905   8.448  0.0265  0.2716  0.1959
  152SAPE  H17X16915   3.403   0.968   8.412  0.6329  1.3262  3.1139
  152SAPE  H17Y16916   3.354   0.805   8.480 -2.3263 -0.8640 -0.5635
  152SAPE  C31816917   3.265   0.982   8.576  0.0660  0.4782  0.0024
  152SAPE  H18X16918   3.216   1.079   8.553 -0.9431  0.4729  1.9412
  152SAPE  H18Y16919   3.351   1.011   8.640  2.1416 -0.8948 -2.0465
  152SAPE  H18Z16920   3.197   0.918   8.636  0.5715  1.4962  1.7545
  153SAPE     N16921   5.494   2.260   6.256  0.6716  0.3007  0.2118
  153SAPE   HN116922   5.530   2.328   6.326 -0.1241  1.6919 -0.6576
  153SAPE   HN216923   5.446   2.183   6.306  1.3246 -0.5114 -0.3818
  153SAPE   HN316924   5.587   2.235   6.217  1.6626  2.4779  0.9793
  153SAPE   C1216925   5.392   2.338   6.171 -0.0977 -0.1665 -0.8613
  153SAPE  H12A16926   5.342   2.261   6.108  0.0557 -1.5055  0.5738
  153SAPE  H12B16927   5.452   2.409   6.111  0.0238  0.1025 -0.4205
  153SAPE   C1116928   5.284   2.411   6.267  0.1435  0.0011  0.1990
  153SAPE  H11A16929   5.221   2.346   6.330  0.4088  1.2314  1.7918
  153SAPE  H11B16930   5.216   2.459   6.194 -0.2423 -0.4145  0.2881
  153SAPE     P16931   5.245   2.580   6.453 -0.0999 -0.3261 -0.1996
  153SAPE   O1316932   5.323   2.675   6.539  0.2821 -0.5523  0.7396
  153SAPE   O1416933   5.134   2.644   6.380  0.1782  0.4020 -0.2467
  153SAPE   O1216934   5.339   2.507   6.351 -0.8515 -0.2771  0.2153
  153SAPE   O1116935   5.193   2.468   6.557 -0.2147 -0.2086  0.5494
  153SAPE    C116936   5.100   2.494   6.661 -0.3908 -0.7015 -0.2054
  153SAPE    HA16937   5.087   2.604   6.672 -1.4008 -0.8154 -0.1046
  153SAPE    HB16938   4.998   2.450   6.651 -0.1236 -1.3538 -0.1309
  153SAPE    C216939   5.165   2.448   6.794  0.2255  0.2927 -0.2350
  153SAPE    HS16940   5.097   2.461   6.881  0.0742  1.2292 -0.4792
  153SAPE   O2116941   5.280   2.529   6.828 -0.0973  0.3599 -0.3479
  153SAPE   C2116942   5.266   2.647   6.871  0.1146 -0.4537 -0.5654
  153SAPE   O2216943   5.157   2.704   6.888 -0.8971 -0.1862  0.1231
  153SAPE   C2216944   5.400   2.698   6.920 -0.1560 -0.1933  0.1311
  153SAPE   H2R16945   5.466   2.723   6.834  1.7939  1.6442  2.0689
  153SAPE   H2S16946   5.386   2.805   6.944 -0.1252 -0.4654  1.4060
  153SAPE    C316947   5.202   2.296   6.777  0.2488  0.0353 -0.3476
  153SAPE    HX16948   5.255   2.280   6.681  2.0994  2.6221  0.1349
  153SAPE    HY16949   5.110   2.235   6.762  0.5907 -0.5379 -0.1331
  153SAPE   O3116950   5.275   2.238   6.889 -0.5000 -0.5066 -0.5932
  153SAPE   C3116951   5.399   2.210   6.881 -0.0039 -0.0369 -0.5614
  153SAPE   O3216952   5.466   2.231   6.781 -0.0230 -0.7532  0.3861
  153SAPE   C3216953   5.448   2.142   7.010  0.2412 -0.2941 -1.2615
  153SAPE   H2X16954   5.556   2.150   7.034 -0.1163 -2.2468  1.5743
  153SAPE   H2Y16955   5.438   2.032   7.000 -0.6658 -0.4344  0.6769
  153SAPE   C2316956   5.462   2.609   7.033 -0.2642 -0.9990 -0.5903
  153SAPE   H3R16957   5.495   2.516   6.981  0.7834 -0.7221 -0.4328
  153SAPE   H3S16958   5.381   2.580   7.102 -1.6814  2.0406 -0.8501
  153SAPE   C2416959   5.577   2.686   7.101 -0.3365 -0.4861 -0.6721
  153SAPE   H4R16960   5.552   2.776   7.161 -0.0499 -1.0957  0.3982
  153SAPE   H4S16961   5.649   2.728   7.028 -0.6891  2.3428  0.5095
  153SAPE   C2516962   5.658   2.583   7.178 -0.0110 -0.5911 -0.3845
  153SAPE   H5R16963   5.721   2.517   7.117 -2.1673  0.1024 -3.6127
  153SAPE   C2616964   5.661   2.571   7.310 -0.5900 -0.1474 -0.6179
  153SAPE   H6R16965   5.714   2.481   7.344  4.0128  1.2676 -3.1688
  153SAPE   C2716966   5.587   2.653   7.412 -1.1319 -0.4461  0.0361
  153SAPE   H7R16967   5.575   2.590   7.503  1.8873  0.0994  0.9082
  153SAPE   H7S16968   5.484   2.680   7.380 -1.5355 -0.7485  1.0248
  153SAPE   C2816969   5.645   2.785   7.445 -0.3237 -0.6962  0.5972
  153SAPE   H8R16970   5.615   2.873   7.385 -1.2296 -1.3945 -0.0080
  153SAPE   C2916971   5.719   2.809   7.552  0.1761  0.6084 -0.2440
  153SAPE   H9R16972   5.767   2.906   7.569  1.9464 -0.0814 -1.0038
  153SAPE  C21016973   5.749   2.710   7.662 -0.8982  0.2054  0.7236
  153SAPE  H10R16974   5.786   2.617   7.612  1.9471  1.7883 -0.4109
  153SAPE  H10S16975   5.653   2.698   7.715 -0.2392  2.3753  2.5346
  153SAPE  C21116976   5.861   2.747   7.753 -0.4390 -0.8029 -0.3928
  153SAPE  H11R16977   5.960   2.719   7.713 -0.3184 -1.5090  0.3614
  153SAPE  C21216978   5.858   2.808   7.873 -0.3203  0.1967  0.3704
  153SAPE  H12R16979   5.951   2.829   7.926 -1.5353  1.7433  2.0110
  153SAPE  C21316980   5.731   2.841   7.948 -0.7469 -0.0785  0.2631
  153SAPE  H13R16981   5.647   2.805   7.885  1.4514 -2.0818 -1.6939
  153SAPE  H13S16982   5.719   2.952   7.949  2.5623  0.3921  1.7108
  153SAPE  C21416983   5.725   2.774   8.080 -0.0146 -0.9601 -0.2768
  153SAPE  H14R16984   5.644   2.700   8.083 -0.4908 -0.4003  1.2960
  153SAPE  C21516985   5.804   2.777   8.188 -0.3489 -0.0325 -0.2132
  153SAPE  H15R16986   5.767   2.721   8.276 -3.2618  1.1901 -0.5295
  153SAPE  C21616987   5.937   2.847   8.216  0.7178  0.3252  0.1587
  153SAPE  H16R16988   5.930   2.909   8.308 -1.8094 -1.0462  0.9940
  153SAPE  H16S16989   5.958   2.915   8.131 -0.3766  0.9667  0.3912
  153SAPE  C21716990   6.042   2.743   8.248 -0.3818  0.0430 -0.2477
  153SAPE  H17R16991   6.054   2.675   8.160 -0.4451  0.6672 -0.7517
  153SAPE  H17S16992   6.010   2.678   8.332  1.4058 -0.3922  0.1338
  153SAPE  C21816993   6.170   2.812   8.293  0.3490 -0.0268 -0.4820
  153SAPE  H18R16994   6.125   2.901   8.343 -1.0052 -1.3361  0.7577
  153SAPE  H18S16995   6.224   2.848   8.203 -1.2129 -0.3033 -1.5823
  153SAPE  C21916996   6.268   2.743   8.398 -0.8343  0.0277  0.4852
  153SAPE  H19R16997   6.319   2.668   8.333 -2.0492  0.4909 -1.0886
  153SAPE  H19S16998   6.198   2.687   8.463 -0.3574 -0.1780  0.8233
  153SAPE  C22016999   6.362   2.826   8.473 -0.6666  0.6228  0.6341
  153SAPE  H20R17000   6.308   2.880   8.554 -2.3948 -3.4928  2.5044
  153SAPE  H20S17001   6.404   2.895   8.397 -0.3664 -0.4649 -0.2056
  153SAPE  H20T17002   6.443   2.764   8.516 -1.2437 -0.1847  0.5768
  153SAPE   C3317003   5.368   2.178   7.142 -0.0292  0.2333  0.3332
  153SAPE   H3X17004   5.360   2.082   7.197  0.5774 -0.2636 -0.4102
  153SAPE   H3Y17005   5.262   2.203   7.120  0.1827  0.6956 -0.2049
  153SAPE   C3417006   5.424   2.275   7.241 -0.1644  0.2386  0.3946
  153SAPE   H4X17007   5.454   2.372   7.195 -0.4816 -0.2316 -0.8353
  153SAPE   H4Y17008   5.519   2.235   7.283  0.6091  1.0374 -0.5225
  153SAPE   C3517009   5.331   2.318   7.355  0.1661 -0.2411  0.8683
  153SAPE   H5X17010   5.230   2.336   7.312  0.8804 -2.6288 -2.0915
  153SAPE   H5Y17011   5.378   2.413   7.390  0.5720 -0.2231  0.2859
  153SAPE   C3617012   5.322   2.219   7.467  0.1589 -0.1086  0.2070
  153SAPE   H6X17013   5.418   2.173   7.499 -0.3266  0.2237  2.2923
  153SAPE   H6Y17014   5.277   2.132   7.415  1.8189 -0.0010 -1.5293
  153SAPE   C3717015   5.240   2.261   7.581 -0.0845  0.3815 -0.0662
  153SAPE   H7X17016   5.158   2.325   7.543  1.3451  1.4512 -1.4533
  153SAPE   H7Y17017   5.307   2.313   7.653 -0.0448 -2.0729  1.8101
  153SAPE   C3817018   5.177   2.140   7.655  0.0153  0.0492  0.0164
  153SAPE   H8X17019   5.250   2.058   7.673  1.8935  1.8692  1.1774
  153SAPE   H8Y17020   5.104   2.100   7.582  0.1522  1.7151 -1.0861
  153SAPE   C3917021   5.108   2.175   7.791  0.1371  0.0149  0.2145
  153SAPE   H9X17022   5.070   2.087   7.847  0.2018 -1.6022 -2.1724
  153SAPE   H9Y17023   5.015   2.234   7.776  0.9308  1.5021  0.8531
  153SAPE  C31017024   5.206   2.253   7.882  0.0754 -0.4596 -0.2373
  153SAPE  H10X17025   5.167   2.256   7.986  1.5934 -0.5949  0.3526
  153SAPE  H10Y17026   5.203   2.356   7.842 -3.0275 -0.5663 -0.5202
  153SAPE  C31117027   5.355   2.202   7.894  0.3373  0.5998  0.3177
  153SAPE  H11X17028   5.408   2.179   7.799 -1.9745 -2.4192 -0.3765
  153SAPE  H11Y17029   5.345   2.104   7.945  1.7740  0.2077 -0.1198
  153SAPE  C31217030   5.453   2.296   7.972  0.3748 -0.0364 -0.2766
  153SAPE  H12X17031   5.409   2.344   8.062  1.8079  2.0426 -0.6068
  153SAPE  H12Y17032   5.477   2.385   7.911 -1.4656 -0.1051 -1.1583
  153SAPE  C31317033   5.584   2.218   8.003  0.1511 -0.5011  0.1060
  153SAPE  H13X17034   5.617   2.180   7.904 -0.7733  1.0274 -0.8264
  153SAPE  H13Y17035   5.556   2.145   8.082 -1.3188 -0.5175 -0.3914
  153SAPE  C31417036   5.699   2.316   8.059 -0.0948  0.1412 -0.0023
  153SAPE  H14X17037   5.711   2.386   7.973 -0.8639 -0.0140 -0.2441
  153SAPE  H14Y17038   5.793   2.260   8.077  0.0270 -0.0277 -1.0885
  153SAPE  C31517039   5.656   2.397   8.184 -0.1586  0.2972 -0.1252
  153SAPE  H15X17040   5.582   2.464   8.134  0.8314  1.2399 -0.3630
  153SAPE  H15Y17041   5.733   2.468   8.220  1.2790 -0.6815 -1.1522
  153SAPE  C31617042   5.600   2.315   8.296 -0.7301 -0.2092 -0.4043
  153SAPE  H16X17043   5.671   2.234   8.325 -1.3516 -0.8361 -0.5892
  153SAPE  H16Y17044   5.508   2.263   8.261 -0.4151  0.4268 -2.2857
  153SAPE  C31717045   5.580   2.406   8.426  0.8868  0.6348  0.6145
  153SAPE  H17X17046   5.516   2.352   8.499  2.3162 -1.5428  0.3528
  153SAPE  H17Y17047   5.521   2.494   8.393  0.3893  0.3475  0.7247
  153SAPE  C31817048   5.704   2.436   8.514  0.4080 -0.2788 -0.1921
  153SAPE  H18X17049   5.787   2.496   8.470  2.6716 -2.2242  1.1561
  153SAPE  H18Y17050   5.753   2.339   8.540  2.9454  0.8492 -0.4245
  153SAPE  H18Z17051   5.687   2.500   8.602 -0.2915 -2.0319  1.0079
  154SAPE     N17052   4.670   1.835   6.413 -0.3574  0.5004 -0.1844
  154SAPE   HN117053   4.666   1.757   6.343  0.9751  0.3245 -0.0875
  154SAPE   HN217054   4.622   1.798   6.498  0.3290  1.0376  0.4425
  154SAPE   HN317055   4.613   1.918   6.390 -1.3829  0.3007  1.4892
  154SAPE   C1217056   4.816   1.866   6.437  0.0762  0.7189 -0.4811
  154SAPE  H12A17057   4.838   1.882   6.545  0.0084  1.1320 -0.5250
  154SAPE  H12B17058   4.849   1.946   6.367  1.2817 -1.8865 -3.1190
  154SAPE   C1117059   4.888   1.729   6.404  0.2007 -0.3642 -0.0538
  154SAPE  H11A17060   4.996   1.745   6.426  0.3149 -0.9535 -0.1779
  154SAPE  H11B17061   4.886   1.707   6.295 -2.2072 -0.6747  0.0124
  154SAPE     P17062   4.912   1.482   6.496  0.2967 -0.1990 -0.1863
  154SAPE   O1317063   4.818   1.372   6.462 -0.3381 -0.0442  0.0868
  154SAPE   O1417064   5.044   1.477   6.430  0.2812 -0.4669  0.4029
  154SAPE   O1217065   4.835   1.621   6.476 -0.1151 -0.1096 -0.0242
  154SAPE   O1117066   4.954   1.468   6.649 -0.0589 -0.1417 -0.3232
  154SAPE    C117067   4.846   1.492   6.749 -0.2931 -0.3625  0.0035
  154SAPE    HA17068   4.747   1.488   6.699 -1.0021 -3.4632  1.4178
  154SAPE    HB17069   4.842   1.409   6.822  1.6930 -0.5211 -0.0153
  154SAPE    C217070   4.860   1.628   6.830  0.0106  0.1000  0.0404
  154SAPE    HS17071   4.830   1.712   6.764 -2.2977 -0.7335 -0.0555
  154SAPE   O2117072   4.994   1.636   6.880  0.2969  0.4713 -0.0531
  154SAPE   C2117073   5.072   1.732   6.835 -0.1437  0.4195  0.0958
  154SAPE   O2217074   5.047   1.810   6.743 -0.5992  0.0434 -0.0253
  154SAPE   C2217075   5.197   1.743   6.924  0.4786  0.9049  0.4828
  154SAPE   H2R17076   5.237   1.640   6.938  0.3953  0.8022 -0.0311
  154SAPE   H2S17077   5.268   1.803   6.863  2.1072 -1.8838 -0.5438
  154SAPE    C317078   4.755   1.635   6.944  0.0861  0.1450 -0.4037
  154SAPE    HX17079   4.658   1.663   6.897  0.0429 -1.3230 -1.2300
  154SAPE    HY17080   4.768   1.723   7.010  0.0530 -0.4745  0.4446
  154SAPE   O3117081   4.756   1.520   7.025  0.1960  0.3182 -0.0742
  154SAPE   C3117082   4.642   1.453   7.034  0.1110  0.2614  0.5887
  154SAPE   O3217083   4.536   1.478   6.975  0.0270  0.1706 -0.4706
  154SAPE   C3217084   4.655   1.348   7.143 -0.4893 -0.1604  0.0820
  154SAPE   H2X17085   4.761   1.345   7.177 -0.7316  0.7733  0.9747
  154SAPE   H2Y17086   4.611   1.250   7.112 -0.1543 -0.9886  2.0504
  154SAPE   C2317087   5.170   1.821   7.054 -0.3736 -0.0631 -0.3742
  154SAPE   H3R17088   5.106   1.911   7.047  0.9023  1.1068  1.6743
  154SAPE   H3S17089   5.266   1.861   7.094 -0.6052  0.2488 -0.1284
  154SAPE   C2417090   5.108   1.722   7.162 -0.2073 -0.4880  0.2198
  154SAPE   H4R17091   5.162   1.626   7.147 -1.8151 -1.2445 -0.9862
  154SAPE   H4S17092   5.001   1.702   7.142 -1.2147  1.9265  2.4635
  154SAPE   C2517093   5.139   1.776   7.293 -0.2782  0.7178  0.4250
  154SAPE   H5R17094   5.248   1.781   7.312 -0.1178  0.3599 -0.3455
  154SAPE   C2617095   5.063   1.831   7.386 -0.3240  0.0784 -0.8015
  154SAPE   H6R17096   5.108   1.876   7.476  0.0074 -1.3319 -0.2304
  154SAPE   C2717097   4.915   1.842   7.370  0.2574 -0.3220  0.1958
  154SAPE   H7R17098   4.880   1.887   7.275 -1.6811  0.7924  1.3742
  154SAPE   H7S17099   4.870   1.918   7.437  0.9884  1.0149 -0.7755
  154SAPE   C2817100   4.829   1.716   7.367 -0.0637 -0.0998 -0.7905
  154SAPE   H8R17101   4.784   1.696   7.269  0.1924  0.4287 -1.0221
  154SAPE   C2917102   4.811   1.628   7.464  1.5056  0.4455 -0.7137
  154SAPE   H9R17103   4.744   1.542   7.456  3.8644 -1.5469 -0.1487
  154SAPE  C21017104   4.875   1.648   7.602  0.0821  0.0129 -0.0120
  154SAPE  H10R17105   4.876   1.755   7.632  1.4233  0.7120 -2.2891
  154SAPE  H10S17106   4.984   1.628   7.595 -0.0042 -0.1619 -0.9607
  154SAPE  C21117107   4.793   1.573   7.702  0.3356  0.6556  0.3533
  154SAPE  H11R17108   4.764   1.469   7.683  0.1988  0.5302  1.2302
  154SAPE  C21217109   4.770   1.604   7.829  0.2603 -0.3156 -0.6240
  154SAPE  H12R17110   4.694   1.548   7.886 -0.8176  1.0763 -0.6269
  154SAPE  C21317111   4.817   1.733   7.896  0.8439  0.3459 -1.1501
  154SAPE  H13R17112   4.759   1.741   7.990 -2.5488 -0.3911 -2.9758
  154SAPE  H13S17113   4.788   1.830   7.849  0.4310  1.5283  1.3867
  154SAPE  C21417114   4.962   1.744   7.934 -0.1170 -0.0760  0.1220
  154SAPE  H14R17115   5.020   1.656   7.904  0.7556  0.9927 -1.4303
  154SAPE  C21517116   5.013   1.842   8.004  0.2769  0.3241 -0.5921
  154SAPE  H15R17117   5.115   1.833   8.043 -0.8060  0.0503  2.4030
  154SAPE  C21617118   4.933   1.953   8.069 -0.0478  0.2750  0.0304
  154SAPE  H16R17119   4.839   1.926   8.119 -0.7682  1.1605 -0.7912
  154SAPE  H16S17120   4.911   2.026   7.988  0.4210 -1.8615 -2.1489
  154SAPE  C21717121   4.999   2.025   8.182  0.2323 -0.0593  0.2592
  154SAPE  H17R17122   4.941   2.117   8.203  0.1304  0.2228 -1.1967
  154SAPE  H17S17123   5.100   2.052   8.144 -0.7966  0.3945 -2.3332
  154SAPE  C21817124   5.017   1.944   8.315  0.5155  0.0855  0.5913
  154SAPE  H18R17125   5.090   2.001   8.377 -0.9495  1.1022  1.4613
  154SAPE  H18S17126   5.067   1.845   8.309 -1.2123 -1.0638  3.0798
  154SAPE  C21917127   4.892   1.925   8.400  0.2239  0.1664  1.2909
  154SAPE  H19R17128   4.911   1.870   8.494 -0.5332 -1.0236  0.7643
  154SAPE  H19S17129   4.824   1.866   8.336  0.9109 -0.5604  1.2085
  154SAPE  C22017130   4.817   2.060   8.445 -0.4769  0.0320  0.0856
  154SAPE  H20R17131   4.763   2.107   8.360  0.8624  0.2291 -0.6684
  154SAPE  H20S17132   4.890   2.133   8.485 -1.1920 -0.5062  2.6062
  154SAPE  H20T17133   4.737   2.029   8.516 -1.7530  0.4305 -1.1430
  154SAPE   C3317134   4.570   1.395   7.266 -0.7095  0.2432 -0.4341
  154SAPE   H3X17135   4.463   1.413   7.242 -0.8813 -0.0941  0.0554
  154SAPE   H3Y17136   4.616   1.491   7.297  2.8610 -1.8916  1.5623
  154SAPE   C3417137   4.585   1.298   7.385 -0.8496 -0.8403 -0.2198
  154SAPE   H4X17138   4.689   1.278   7.417 -0.0069  1.3391 -1.4190
  154SAPE   H4Y17139   4.541   1.196   7.371  2.2241 -2.8850  3.1361
  154SAPE   C3517140   4.523   1.361   7.511 -0.3124  0.6364  0.1489
  154SAPE   H5X17141   4.413   1.369   7.496 -0.2394  4.4244  0.6065
  154SAPE   H5Y17142   4.555   1.466   7.528  2.5452  0.2101 -1.9530
  154SAPE   C3617143   4.548   1.269   7.631  0.8754 -0.2011 -0.6910
  154SAPE   H6X17144   4.651   1.243   7.663  0.0163 -2.0731  0.8341
  154SAPE   H6Y17145   4.500   1.172   7.605  1.3969 -1.0150  1.1809
  154SAPE   C3717146   4.489   1.317   7.762 -0.5608 -0.2944 -0.5004
  154SAPE   H7X17147   4.382   1.338   7.742 -0.3022  0.4958 -1.0985
  154SAPE   H7Y17148   4.528   1.415   7.798 -0.5583 -1.1575  2.1231
  154SAPE   C3817149   4.498   1.235   7.889  0.4293 -0.1485  0.2110
  154SAPE   H8X17150   4.477   1.131   7.856 -0.6947  0.5008 -1.2754
  154SAPE   H8Y17151   4.434   1.275   7.970  1.0726 -3.0459  2.2877
  154SAPE   C3917152   4.636   1.252   7.959 -0.2057  0.0517  0.9767
  154SAPE   H9X17153   4.657   1.361   7.951 -0.1183 -0.1211 -2.5484
  154SAPE   H9Y17154   4.708   1.204   7.890  0.7494  1.4849  0.9346
  154SAPE  C31017155   4.647   1.198   8.100  0.0000 -0.3849 -0.6789
  154SAPE  H10X17156   4.614   1.093   8.115 -2.1368  0.4103  0.5486
  154SAPE  H10Y17157   4.589   1.259   8.172  1.5311  0.2323  0.0636
  154SAPE  C31117158   4.777   1.223   8.180  0.0618  0.3043  0.0954
  154SAPE  H11X17159   4.864   1.193   8.117  0.8658  2.8999 -0.1729
  154SAPE  H11Y17160   4.774   1.147   8.261 -0.8782  0.4666  0.2206
  154SAPE  C31217161   4.780   1.368   8.227  0.1800 -0.1250 -0.6176
  154SAPE  H12X17162   4.697   1.398   8.294  1.4015 -0.9401  1.3603
  154SAPE  H12Y17163   4.781   1.421   8.129  1.0696 -1.0914 -1.1574
  154SAPE  C31317164   4.912   1.390   8.304  0.6829 -0.6146  0.0797
  154SAPE  H13X17165   4.994   1.342   8.249  0.9154  1.8592 -1.9151
  154SAPE  H13Y17166   4.903   1.348   8.407 -1.8686  1.3494  0.7965
  154SAPE  C31417167   4.949   1.540   8.324 -0.1560 -0.0936 -0.0764
  154SAPE  H14X17168   4.875   1.600   8.382  0.4286  2.1966 -1.5324
  154SAPE  H14Y17169   4.932   1.592   8.227 -0.4611 -0.2441 -0.1052
  154SAPE  C31517170   5.095   1.543   8.372  0.8194  0.6051  0.4780
  154SAPE  H15X17171   5.128   1.649   8.362  0.0379  1.1583  2.9893
  154SAPE  H15Y17172   5.147   1.476   8.301 -0.2122 -0.5760  0.8168
  154SAPE  C31617173   5.122   1.500   8.520 -0.4155  0.1812  0.7839
  154SAPE  H16X17174   5.230   1.479   8.534  0.3137  3.0559  0.1565
  154SAPE  H16Y17175   5.063   1.407   8.530 -1.1016  0.4312 -0.6323
  154SAPE  C31717176   5.063   1.602   8.617 -0.1001  0.1785 -0.3390
  154SAPE  H17X17177   4.957   1.611   8.585 -0.1637  0.6669  0.0009
  154SAPE  H17Y17178   5.107   1.704   8.606  0.1138  0.4010  2.0333
  154SAPE  C31817179   5.078   1.557   8.761 -0.7519 -0.8918 -0.1794
  154SAPE  H18X17180   5.014   1.624   8.822  0.3756 -0.3777  0.4740
  154SAPE  H18Y17181   5.182   1.570   8.798 -0.2643  0.1121 -1.8118
  154SAPE  H18Z17182   5.046   1.452   8.777 -1.4609 -0.7173 -0.4181
  155SAPE     N17183   4.224   2.444   6.303  0.4972 -0.2623  0.3250
  155SAPE   HN117184   4.220   2.348   6.262  2.6609  0.2104 -1.1407
  155SAPE   HN217185   4.128   2.481   6.286  0.7746  0.1344 -0.3907
  155SAPE   HN317186   4.295   2.500   6.251  0.0421 -1.0453 -1.2102
  155SAPE   C1217187   4.243   2.438   6.453  0.3993  0.1368  0.1516
  155SAPE  H12A17188   4.184   2.354   6.495 -0.3183  0.2519 -0.6087
  155SAPE  H12B17189   4.208   2.538   6.487 -0.8292 -0.0721 -0.4503
  155SAPE   C1117190   4.393   2.417   6.483  0.2414  0.1853  0.2981
  155SAPE  H11A17191   4.423   2.432   6.589 -2.7078  0.2634  1.2161
  155SAPE  H11B17192   4.437   2.510   6.442  0.6388 -1.1243 -2.4660
  155SAPE     P17193   4.454   2.168   6.515  0.0083  0.4608 -0.1844
  155SAPE   O1317194   4.327   2.143   6.583  0.2435  0.1948 -0.0728
  155SAPE   O1417195   4.504   2.055   6.432  0.1172  0.1180 -0.3944
  155SAPE   O1217196   4.445   2.298   6.422 -0.4623  0.7719  0.1766
  155SAPE   O1117197   4.565   2.208   6.623  0.4853  0.4954 -0.4542
  155SAPE    C117198   4.547   2.210   6.766  0.2707  0.2831 -0.0609
  155SAPE    HA17199   4.613   2.287   6.812  1.5405  0.7604 -2.5061
  155SAPE    HB17200   4.448   2.249   6.798  0.1198  0.1677 -0.3852
  155SAPE    C217201   4.558   2.063   6.817  0.6141 -0.4884 -0.4689
  155SAPE    HS17202   4.500   2.008   6.740  1.3339  0.4006 -1.6794
  155SAPE   O2117203   4.497   2.056   6.945 -0.1180  0.3424 -0.1793
  155SAPE   C2117204   4.477   1.928   6.988 -0.3091 -0.5983 -1.0474
  155SAPE   O2217205   4.491   1.827   6.924  0.1420  0.1422  0.0641
  155SAPE   C2217206   4.434   1.942   7.134  0.7308  0.1059  0.1023
  155SAPE   H2R17207   4.522   1.983   7.187  3.0350 -3.1367 -0.8860
  155SAPE   H2S17208   4.336   1.993   7.141  1.5623  1.7097  0.3202
  155SAPE    C317209   4.701   2.005   6.820 -0.8984  0.5451 -0.0034
  155SAPE    HX17210   4.748   2.010   6.719  1.5032 -1.1382  0.9230
  155SAPE    HY17211   4.708   1.900   6.854  2.0563  1.0721  1.2897
  155SAPE   O3117212   4.777   2.093   6.903 -0.0155 -0.4494  0.0628
  155SAPE   C3117213   4.799   2.069   7.030  0.0011 -0.1451 -0.2837
  155SAPE   O3217214   4.771   1.964   7.083  0.4521 -0.3094 -0.0688
  155SAPE   C3217215   4.856   2.197   7.088  0.0400 -0.4362  0.2965
  155SAPE   H2X17216   4.776   2.275   7.093  1.2693  0.9060 -0.3236
  155SAPE   H2Y17217   4.931   2.239   7.019 -0.5157 -1.2259 -0.8144
  155SAPE   C2317218   4.406   1.804   7.201 -0.0662 -0.0353  0.4478
  155SAPE   H3R17219   4.492   1.734   7.192 -0.1426 -0.1399  0.5190
  155SAPE   H3S17220   4.321   1.758   7.145  0.7578  0.3445 -1.1942
  155SAPE   C2417221   4.372   1.814   7.344  0.0742 -0.3218 -0.6094
  155SAPE   H4R17222   4.314   1.726   7.378  0.5955 -0.6830 -0.6378
  155SAPE   H4S17223   4.305   1.900   7.366  1.3180  0.6015 -0.3055
  155SAPE   C2517224   4.505   1.824   7.425  0.4610  0.4503 -0.3392
  155SAPE   H5R17225   4.581   1.886   7.375  1.1182  0.1696  0.3058
  155SAPE   C2617226   4.529   1.776   7.554  0.3699 -0.6015  0.6772
  155SAPE   H6R17227   4.627   1.802   7.597  1.1987  1.2513 -2.0719
  155SAPE   C2717228   4.440   1.696   7.646  0.3081 -0.2961  0.0190
  155SAPE   H7R17229   4.509   1.642   7.715 -2.1734 -0.6693  2.3613
  155SAPE   H7S17230   4.393   1.614   7.589 -1.2240 -0.2819  1.2084
  155SAPE   C2817231   4.344   1.774   7.727  0.2764  0.0602 -0.0084
  155SAPE   H8R17232   4.292   1.853   7.672  0.1875  2.0636  2.7380
  155SAPE   C2917233   4.305   1.755   7.855  0.0962  0.1731  0.6527
  155SAPE   H9R17234   4.228   1.824   7.893 -0.2799 -0.3022  0.7559
  155SAPE  C21017235   4.349   1.638   7.947  0.3084 -0.1019  0.1941
  155SAPE  H10R17236   4.358   1.548   7.883  1.5429 -0.0074  0.2025
  155SAPE  H10S17237   4.259   1.615   8.008 -1.0258  0.6210 -1.4318
  155SAPE  C21117238   4.485   1.663   8.008  0.5213 -0.2240  0.1546
  155SAPE  H11R17239   4.556   1.724   7.951  1.0556 -0.1938  0.8467
  155SAPE  C21217240   4.520   1.618   8.132  0.2858  0.6198  0.0221
  155SAPE  H12R17241   4.617   1.645   8.176  1.5865 -1.4144 -1.3951
  155SAPE  C21317242   4.432   1.539   8.229  0.2752  0.1794 -0.1521
  155SAPE  H13R17243   4.460   1.433   8.244  1.0200  0.2433 -1.0438
  155SAPE  H13S17244   4.330   1.528   8.185  0.6456 -0.0924 -0.9534
  155SAPE  C21417245   4.414   1.601   8.368  0.3218 -0.0350 -1.0980
  155SAPE  H14R17246   4.357   1.695   8.373 -0.6101 -0.6448  2.1000
  155SAPE  C21517247   4.448   1.550   8.486 -0.0955 -0.3928  0.4537
  155SAPE  H15R17248   4.417   1.614   8.570  1.6098  0.1674  0.6991
  155SAPE  C21617249   4.515   1.423   8.524 -0.2094 -0.8788  0.0609
  155SAPE  H16R17250   4.559   1.382   8.431  0.1299  1.4979 -0.8965
  155SAPE  H16S17251   4.439   1.355   8.566 -0.5732 -0.9269 -0.6595
  155SAPE  C21717252   4.639   1.458   8.609 -0.1084 -0.0103  0.4703
  155SAPE  H17R17253   4.615   1.485   8.715  0.5181  0.5549  0.4731
  155SAPE  H17S17254   4.689   1.548   8.568 -2.2536  1.7521  1.4939
  155SAPE  C21817255   4.742   1.343   8.625 -0.2768 -0.6098 -0.0776
  155SAPE  H18R17256   4.835   1.383   8.580  0.8600 -3.1163 -0.1417
  155SAPE  H18S17257   4.707   1.254   8.569 -0.3973 -1.0230  0.6399
  155SAPE  C21917258   4.764   1.289   8.769 -0.3269  0.2961  0.3453
  155SAPE  H19R17259   4.671   1.237   8.801 -0.3942 -1.9669 -3.0072
  155SAPE  H19S17260   4.773   1.377   8.837  0.2418 -0.8667  1.8135
  155SAPE  C22017261   4.884   1.197   8.782 -0.3170  0.0843  0.0519
  155SAPE  H20R17262   4.977   1.239   8.738 -0.0092 -2.3955 -1.9102
  155SAPE  H20S17263   4.855   1.108   8.722 -0.7485  0.6455 -0.5880
  155SAPE  H20T17264   4.896   1.151   8.883 -0.0350  0.0874  0.0199
  155SAPE   C3317265   4.909   2.171   7.228  0.8297  0.6054 -0.4440
  155SAPE   H3X17266   4.979   2.256   7.244  0.2887  0.9236  0.2702
  155SAPE   H3Y17267   4.973   2.081   7.229  3.3066  2.2629  0.8519
  155SAPE   C3417268   4.796   2.174   7.335 -0.1872  0.7028 -0.4104
  155SAPE   H4X17269   4.750   2.074   7.347 -1.1837  1.3572  1.6257
  155SAPE   H4Y17270   4.727   2.257   7.310  0.5594  1.0268 -1.4993
  155SAPE   C3517271   4.862   2.212   7.473 -0.0820 -0.0481  0.5691
  155SAPE   H5X17272   4.947   2.278   7.445 -1.3714  0.9852 -1.0270
  155SAPE   H5Y17273   4.907   2.123   7.522  0.6659 -0.0482 -0.0868
  155SAPE   C3617274   4.769   2.271   7.584  0.5127  0.7008 -0.5981
  155SAPE   H6X17275   4.718   2.367   7.559 -0.2218  0.6544  0.6720
  155SAPE   H6Y17276   4.828   2.277   7.677 -1.4072  0.4694  0.6871
  155SAPE   C3717277   4.661   2.173   7.619 -0.3175  0.6506  0.1050
  155SAPE   H7X17278   4.699   2.071   7.639 -0.8377  0.1943 -1.1086
  155SAPE   H7Y17279   4.602   2.153   7.526  1.9325  0.0075 -1.2629
  155SAPE   C3817280   4.571   2.228   7.733 -0.3452 -0.2559 -0.5051
  155SAPE   H8X17281   4.468   2.206   7.697  0.3035 -1.7285 -1.5864
  155SAPE   H8Y17282   4.581   2.338   7.740  1.6115 -0.2937 -1.7370
  155SAPE   C3917283   4.605   2.167   7.875 -0.8728  0.0589  0.4067
  155SAPE   H9X17284   4.714   2.168   7.899 -0.8263 -0.8766  0.2500
  155SAPE   H9Y17285   4.584   2.058   7.871  0.2205 -0.1555 -0.1395
  155SAPE  C31017286   4.529   2.245   7.984  0.3126 -0.2205  0.1081
  155SAPE  H10X17287   4.422   2.250   7.956  0.2864 -0.0866  0.2294
  155SAPE  H10Y17288   4.574   2.346   7.979  3.0063 -1.2815  0.7169
  155SAPE  C31117289   4.539   2.187   8.123  0.4180 -0.0932 -0.0313
  155SAPE  H11X17290   4.644   2.188   8.159  1.1252  0.2345 -1.9745
  155SAPE  H11Y17291   4.502   2.083   8.124  0.0024  0.0353  1.7247
  155SAPE  C31217292   4.432   2.249   8.222 -0.7641  0.5105 -0.6488
  155SAPE  H12X17293   4.341   2.256   8.160 -0.9939 -1.3280 -0.5758
  155SAPE  H12Y17294   4.475   2.344   8.259  0.9976 -0.0772 -1.0832
  155SAPE  C31317295   4.412   2.161   8.347  0.0297  0.1509  0.5340
  155SAPE  H13X17296   4.506   2.172   8.406  1.3314 -0.3610 -1.3731
  155SAPE  H13Y17297   4.407   2.053   8.325  1.2453  0.1627  0.1560
  155SAPE  C31417298   4.300   2.211   8.439 -0.2309 -0.4093 -0.3896
  155SAPE  H14X17299   4.217   2.235   8.370 -1.8159 -0.4842  1.4122
  155SAPE  H14Y17300   4.313   2.310   8.488  0.3054 -0.5220 -0.2924
  155SAPE  C31517301   4.244   2.106   8.537 -0.1528  0.4204 -0.8002
  155SAPE  H15X17302   4.330   2.057   8.588 -1.6063  0.0794  1.4949
  155SAPE  H15Y17303   4.201   2.021   8.480  2.5467 -2.2208  0.8086
  155SAPE  C31617304   4.159   2.166   8.649  0.4203  0.0604  0.1916
  155SAPE  H16X17305   4.069   2.213   8.604 -0.0072 -0.3996  0.5570
  155SAPE  H16Y17306   4.219   2.240   8.707  0.6448 -1.3165  1.7866
  155SAPE  C31717307   4.119   2.060   8.746 -0.1025 -0.3898  0.5389
  155SAPE  H17X17308   4.215   2.014   8.780 -0.6108 -1.6598  0.3115
  155SAPE  H17Y17309   4.062   1.987   8.685  1.0386 -0.1826 -0.8409
  155SAPE  C31817310   4.041   2.126   8.861 -1.0433 -0.5385  0.2668
  155SAPE  H18X17311   4.099   2.207   8.911 -1.6974  0.7726 -1.0208
  155SAPE  H18Y17312   4.000   2.053   8.933 -0.0070 -0.7071  0.7080
  155SAPE  H18Z17313   3.946   2.176   8.832 -2.0656 -0.8300  2.8538
  156SAPE     N17314   2.454   1.690   6.318 -0.1292  0.5487  0.0437
  156SAPE   HN117315   2.544   1.638   6.327  0.0631  0.7248 -0.8287
  156SAPE   HN217316   2.456   1.775   6.380 -3.8337  0.7561  0.0705
  156SAPE   HN317317   2.370   1.634   6.344  0.0728 -0.1183 -0.7282
  156SAPE   C1217318   2.453   1.760   6.180 -0.6097 -0.5889  0.0663
  156SAPE  H12A17319   2.348   1.778   6.147 -0.5209 -1.3151 -0.6331
  156SAPE  H12B17320   2.490   1.678   6.116 -2.2790 -2.0887  0.9428
  156SAPE   C1117321   2.527   1.902   6.176  0.6278  0.5946  0.2570
  156SAPE  H11A17322   2.533   1.940   6.071  1.8861  1.7129  0.7052
  156SAPE  H11B17323   2.629   1.874   6.210  0.7799  1.2121  0.3122
  156SAPE     P17324   2.553   2.080   6.359  0.2199 -0.0265  0.0883
  156SAPE   O1317325   2.637   2.170   6.278  0.1456  0.0330  0.3510
  156SAPE   O1417326   2.464   2.140   6.463 -0.3543 -0.9507 -0.3801
  156SAPE   O1217327   2.461   1.986   6.271 -0.0898  0.4768  0.4829
  156SAPE   O1117328   2.651   1.975   6.419  1.2361 -0.0007 -0.7430
  156SAPE    C117329   2.702   1.986   6.555  0.3164 -0.0286  1.1883
  156SAPE    HA17330   2.812   1.975   6.562  0.5443 -0.6519 -1.9094
  156SAPE    HB17331   2.679   2.082   6.604 -0.1406  0.1760  0.5923
  156SAPE    C217332   2.655   1.864   6.630 -0.0579  0.7081  0.0590
  156SAPE    HS17333   2.642   1.782   6.557 -1.5744  2.2722 -1.5424
  156SAPE   O2117334   2.530   1.894   6.702  0.2797  0.2070  0.6388
  156SAPE   C2117335   2.426   1.838   6.661  0.6488  0.4995  0.1939
  156SAPE   O2217336   2.397   1.801   6.550 -0.4176 -0.6022 -0.7346
  156SAPE   C2217337   2.334   1.817   6.779 -0.4337  0.3511  0.1063
  156SAPE   H2R17338   2.270   1.728   6.759 -1.4495  1.6831 -3.0631
  156SAPE   H2S17339   2.398   1.795   6.868 -1.0714  2.2169  1.0796
  156SAPE    C317340   2.750   1.804   6.742 -0.1092  0.4206  0.6695
  156SAPE    HX17341   2.844   1.798   6.682 -1.0489  0.5128 -0.8593
  156SAPE    HY17342   2.708   1.709   6.781 -1.6731  1.6383  2.1051
  156SAPE   O3117343   2.770   1.895   6.854  0.0516 -0.4156  0.2054
  156SAPE   C3117344   2.849   1.852   6.942  0.0490 -0.0796  0.2977
  156SAPE   O3217345   2.900   1.739   6.943 -0.5981 -0.1152 -0.8946
  156SAPE   C3217346   2.857   1.958   7.045  0.1700  0.7569 -0.2167
  156SAPE   H2X17347   2.874   1.908   7.142  0.8516  1.1498 -0.1234
  156SAPE   H2Y17348   2.758   2.007   7.054 -0.2384 -0.2299  0.8122
  156SAPE   C2317349   2.227   1.930   6.803  0.0106 -0.2326 -0.1922
  156SAPE   H3R17350   2.150   1.919   6.723 -1.1338 -0.0032  0.8558
  156SAPE   H3S17351   2.259   2.036   6.804 -3.4264  0.9390 -0.5235
  156SAPE   C2417352   2.158   1.906   6.942 -0.4519 -0.4506  0.1043
  156SAPE   H4R17353   2.233   1.906   7.024  0.8575  0.4265 -1.0385
  156SAPE   H4S17354   2.135   1.798   6.934  1.2023 -0.9394  1.2667
  156SAPE   C2517355   2.039   1.997   6.976 -0.7183 -0.4742 -0.0715
  156SAPE   H5R17356   1.977   2.036   6.894  0.3104 -0.0393 -0.6612
  156SAPE   C2617357   2.009   2.035   7.097  0.3013  0.0686 -0.8752
  156SAPE   H6R17358   1.929   2.109   7.108  2.4557  2.6508 -1.4075
  156SAPE   C2717359   2.068   1.985   7.225 -1.0451 -0.9576  0.9364
  156SAPE   H7R17360   2.114   1.885   7.206 -0.6988 -0.8717  1.3246
  156SAPE   H7S17361   1.978   1.973   7.289 -0.5153  0.6397  2.0288
  156SAPE   C2817362   2.163   2.092   7.277  0.6549 -0.3226  1.2498
  156SAPE   H8R17363   2.237   2.128   7.204  0.6773 -0.6322  1.1183
  156SAPE   C2917364   2.184   2.132   7.401  0.4129 -0.4873 -0.1838
  156SAPE   H9R17365   2.249   2.219   7.421  1.6246 -1.7525  1.7079
  156SAPE  C21017366   2.114   2.083   7.520 -0.3645 -0.2336 -0.3027
  156SAPE  H10R17367   2.186   2.026   7.584  1.2204  2.8654  0.8978
  156SAPE  H10S17368   2.039   2.010   7.483  0.6708 -0.6252 -1.7569
  156SAPE  C21117369   2.062   2.193   7.605  0.2168  0.3684 -0.7041
  156SAPE  H11R17370   1.972   2.247   7.571 -0.4168  1.2384  2.1233
  156SAPE  C21217371   2.078   2.209   7.740  0.7410  0.7527  0.4108
  156SAPE  H12R17372   2.024   2.292   7.787  0.5277  1.4992 -1.0793
  156SAPE  C21317373   2.171   2.126   7.831 -0.1416  0.2384  0.0223
  156SAPE  H13R17374   2.278   2.129   7.800 -0.1865  2.3131 -0.0871
  156SAPE  H13S17375   2.139   2.020   7.838 -2.0518  0.8725  1.7098
  156SAPE  C21417376   2.180   2.171   7.975  0.0782 -0.0909  0.0115
  156SAPE  H14R17377   2.282   2.166   8.016 -0.1622  0.6284  0.7236
  156SAPE  C21517378   2.079   2.205   8.057  0.4301  0.0396  0.1223
  156SAPE  H15R17379   2.107   2.238   8.158  0.5439  0.5564 -0.0726
  156SAPE  C21617380   1.931   2.208   8.030 -0.0443  0.4565  0.0502
  156SAPE  H16R17381   1.893   2.180   7.930  1.7155 -0.1271 -0.4863
  156SAPE  H16S17382   1.909   2.317   8.039 -0.3571  0.3955  0.0402
  156SAPE  C21717383   1.839   2.144   8.142  0.4949 -0.4971  0.6725
  156SAPE  H17R17384   1.845   2.034   8.133  0.6160 -0.4003 -0.6401
  156SAPE  H17S17385   1.735   2.178   8.124  0.4694 -1.4046 -1.1516
  156SAPE  C21817386   1.871   2.174   8.293  0.4986 -0.4795  0.1689
  156SAPE  H18R17387   1.971   2.143   8.330  1.0609  1.6381  0.6010
  156SAPE  H18S17388   1.797   2.118   8.353 -0.0264 -0.4143 -0.4089
  156SAPE  C21917389   1.829   2.323   8.322 -0.0711 -1.1219  0.5623
  156SAPE  H19R17390   1.723   2.337   8.292  0.3733  0.0724 -0.5702
  156SAPE  H19S17391   1.892   2.397   8.269  1.5090 -2.1021  1.0101
  156SAPE  C22017392   1.844   2.344   8.478  0.5209  0.6466  0.9565
  156SAPE  H20R17393   1.952   2.353   8.501  1.2726  0.9802 -2.2234
  156SAPE  H20S17394   1.791   2.262   8.531 -0.5468  1.3649  1.0165
  156SAPE  H20T17395   1.799   2.440   8.510  1.3934  0.6441  2.2585
  156SAPE   C3317396   2.964   2.062   7.015 -1.0410 -0.1186 -0.3559
  156SAPE   H3X17397   2.925   2.159   6.978 -0.7622  1.4160  2.9807
  156SAPE   H3Y17398   3.039   2.027   6.941  0.4643  0.1622  0.9777
  156SAPE   C3417399   3.040   2.096   7.145  0.5578  0.2788 -0.9091
  156SAPE   H4X17400   3.126   2.159   7.113  0.4603  0.2135 -1.3076
  156SAPE   H4Y17401   3.072   1.997   7.185 -2.2256 -0.4449 -0.2572
  156SAPE   C3517402   2.957   2.155   7.257  0.0234  0.1350 -0.1258
  156SAPE   H5X17403   2.874   2.085   7.280  0.7012 -1.7410 -2.8465
  156SAPE   H5Y17404   2.906   2.247   7.221 -0.3532 -0.5675 -1.4361
  156SAPE   C3617405   3.038   2.190   7.385  0.1819  0.3579 -0.1450
  156SAPE   H6X17406   3.087   2.287   7.364  1.5823 -0.6888 -1.9973
  156SAPE   H6Y17407   3.101   2.101   7.407 -3.5211 -2.7536 -0.8846
  156SAPE   C3717408   2.952   2.213   7.517  0.2201 -0.0040  0.1039
  156SAPE   H7X17409   2.874   2.135   7.529 -0.6963  0.7511 -0.7836
  156SAPE   H7Y17410   2.889   2.304   7.508 -1.1789 -0.9716 -0.2122
  156SAPE   C3817411   3.027   2.220   7.646 -0.6611 -0.5563  0.3651
  156SAPE   H8X17412   3.099   2.305   7.643 -1.1231 -0.0757  1.7795
  156SAPE   H8Y17413   3.083   2.125   7.658  0.0246 -0.0821  1.0244
  156SAPE   C3917414   2.940   2.255   7.769 -0.1270 -0.5320 -0.0716
  156SAPE   H9X17415   2.852   2.187   7.774 -0.9043  0.3893 -1.0272
  156SAPE   H9Y17416   2.912   2.362   7.757 -1.0343 -0.8116 -0.4641
  156SAPE  C31017417   3.010   2.245   7.909  0.4211  0.7197 -0.7696
  156SAPE  H10X17418   3.093   2.318   7.923  1.4394 -0.3146 -1.2909
  156SAPE  H10Y17419   3.061   2.147   7.907  0.1615  0.5538  0.2578
  156SAPE  C31117420   2.920   2.258   8.034  0.2207  0.6162 -0.1815
  156SAPE  H11X17421   2.982   2.250   8.126  0.3323 -1.5416 -0.3979
  156SAPE  H11Y17422   2.842   2.179   8.043 -0.4283  1.2009 -0.5412
  156SAPE  C31217423   2.862   2.401   8.059  0.1175 -0.0155 -0.8990
  156SAPE  H12X17424   2.787   2.417   7.979 -0.7210 -1.8558 -0.5258
  156SAPE  H12Y17425   2.935   2.484   8.042 -1.9178  1.6231 -2.0456
  156SAPE  C31317426   2.776   2.412   8.183 -0.3518 -0.3792  0.1164
  156SAPE  H13X17427   2.765   2.516   8.218 -0.8460  0.1713 -1.5957
  156SAPE  H13Y17428   2.837   2.374   8.269 -0.7888 -0.6008  0.3302
  156SAPE  C31417429   2.639   2.350   8.176  0.1386 -0.3713 -0.2260
  156SAPE  H14X17430   2.667   2.246   8.149  1.3754 -0.4060  1.0858
  156SAPE  H14Y17431   2.579   2.399   8.096 -0.1411  0.3918  0.4422
  156SAPE  C31517432   2.568   2.357   8.312 -0.1873 -0.4006 -0.0998
  156SAPE  H15X17433   2.548   2.464   8.337 -0.8308 -0.2051 -1.3910
  156SAPE  H15Y17434   2.631   2.313   8.393 -1.8286  0.6776  1.8602
  156SAPE  C31617435   2.423   2.299   8.325  0.1561  0.4428  0.5518
  156SAPE  H16X17436   2.416   2.201   8.274  0.9919  0.0106  1.2389
  156SAPE  H16Y17437   2.360   2.373   8.272 -0.8507 -0.8039 -0.0290
  156SAPE  C31717438   2.367   2.309   8.475  0.0603  0.2948  0.7272
  156SAPE  H17X17439   2.389   2.414   8.505 -1.3287 -0.0593  3.2061
  156SAPE  H17Y17440   2.427   2.252   8.549  3.4561  2.9328  0.2640
  156SAPE  C31817441   2.216   2.287   8.498 -0.3390 -0.4761  0.8318
  156SAPE  H18X17442   2.183   2.323   8.598  0.0069 -1.4586  1.3126
  156SAPE  H18Y17443   2.213   2.176   8.510 -0.7265 -0.4029  1.4595
  156SAPE  H18Z17444   2.162   2.327   8.409  1.6609  2.0400  0.6583
  157SAPE     N17445   1.904   3.615   6.385 -0.7126  0.7043 -0.9240
  157SAPE   HN117446   1.854   3.668   6.459  0.0423  0.7137 -0.4108
  157SAPE   HN217447   1.882   3.519   6.416  1.6310  0.8222  1.4225
  157SAPE   HN317448   2.006   3.632   6.395 -0.6355  0.1363 -0.6908
  157SAPE   C1217449   1.852   3.618   6.246 -0.4114 -0.2119  0.0717
  157SAPE  H12A17450   1.919   3.569   6.172  0.6730  1.0030  0.2256
  157SAPE  H12B17451   1.840   3.725   6.222  1.9986  0.2521  0.7102
  157SAPE   C1117452   1.714   3.541   6.235 -0.9014  0.0025 -0.8747
  157SAPE  H11A17453   1.724   3.433   6.258  1.8620  0.1370 -1.2029
  157SAPE  H11B17454   1.677   3.550   6.130  0.4265 -1.4992 -1.5192
  157SAPE     P17455   1.463   3.534   6.304 -0.2278 -0.4135  0.0678
  157SAPE   O1317456   1.403   3.614   6.196  0.4038 -0.7313  0.2305
  157SAPE   O1417457   1.468   3.386   6.286  0.1659  0.0225  0.3223
  157SAPE   O1217458   1.608   3.593   6.320 -0.7694  0.1634  0.6158
  157SAPE   O1117459   1.385   3.567   6.436 -0.4986 -0.1945  0.3036
  157SAPE    C117460   1.423   3.657   6.538  0.5230 -0.4421  0.1720
  157SAPE    HA17461   1.477   3.745   6.497 -0.3829  0.2164  0.3527
  157SAPE    HB17462   1.338   3.705   6.593  0.3703  0.9184 -1.1904
  157SAPE    C217463   1.519   3.595   6.641  0.1175  0.4404 -0.2489
  157SAPE    HS17464   1.610   3.565   6.585  0.8455  1.8449  0.1380
  157SAPE   O2117465   1.459   3.491   6.709 -0.3869 -0.0420  0.3654
  157SAPE   C2117466   1.553   3.417   6.769  0.1183  0.4933 -0.2236
  157SAPE   O2217467   1.668   3.413   6.745 -0.0033  0.5837  0.1308
  157SAPE   C2217468   1.485   3.323   6.859  0.4543 -0.5155  0.3579
  157SAPE   H2R17469   1.416   3.385   6.920  0.3712 -0.4456  0.1934
  157SAPE   H2S17470   1.416   3.251   6.810  1.6690 -1.9961  0.7299
  157SAPE    C317471   1.555   3.711   6.743  0.3766  0.2392  0.5523
  157SAPE    HX17472   1.456   3.741   6.784 -0.2665 -1.3031  0.1884
  157SAPE    HY17473   1.591   3.803   6.692  0.0039 -0.6424 -1.3899
  157SAPE   O3117474   1.645   3.685   6.849 -0.1663 -0.7282  0.3478
  157SAPE   C3117475   1.775   3.680   6.814  0.0724 -0.8108 -0.4249
  157SAPE   O3217476   1.819   3.705   6.703  0.2678  0.7481  0.5401
  157SAPE   C3217477   1.871   3.634   6.931  0.5388  0.2639  0.3645
  157SAPE   H2X17478   1.940   3.715   6.964  1.6791 -0.2791 -0.5808
  157SAPE   H2Y17479   1.932   3.547   6.897  1.2969  0.7371  0.4834
  157SAPE   C2317480   1.576   3.240   6.960  0.7661 -0.8551  0.8309
  157SAPE   H3R17481   1.655   3.306   7.002  0.7122 -1.4368  1.9018
  157SAPE   H3S17482   1.621   3.146   6.921  0.6544 -0.6460  0.2001
  157SAPE   C2417483   1.491   3.207   7.080 -0.2558 -0.4092  0.0221
  157SAPE   H4R17484   1.450   3.296   7.132  3.6414  1.8433 -0.4405
  157SAPE   H4S17485   1.553   3.148   7.150 -0.3100 -1.5033 -0.8240
  157SAPE   C2517486   1.375   3.119   7.048  0.8665  0.3708 -0.1423
  157SAPE   H5R17487   1.333   3.117   6.946 -0.0644 -1.8397  0.2457
  157SAPE   C2617488   1.322   3.023   7.132 -0.3874 -1.1056 -0.0710
  157SAPE   H6R17489   1.243   2.966   7.081  1.4865 -3.8470 -0.1311
  157SAPE   C2717490   1.354   2.995   7.275 -0.0045  0.2476  0.4629
  157SAPE   H7R17491   1.380   3.089   7.329 -0.2405  1.3292 -1.2384
  157SAPE   H7S17492   1.436   2.922   7.284  1.4553  1.3047 -2.9058
  157SAPE   C2817493   1.240   2.934   7.349 -0.3941 -0.2721 -0.4780
  157SAPE   H8R17494   1.143   2.922   7.298 -0.1459 -0.2834 -0.9483
  157SAPE   C2917495   1.238   2.900   7.483 -0.2504 -0.7917  0.0345
  157SAPE   H9R17496   1.153   2.850   7.531  0.6407 -1.2228  1.1979
  157SAPE  C21017497   1.359   2.932   7.569 -0.0232  0.2078  0.0411
  157SAPE  H10R17498   1.369   3.039   7.598 -2.3388  0.5323 -0.2239
  157SAPE  H10S17499   1.450   2.907   7.510  0.0464 -2.1329  1.0129
  157SAPE  C21117500   1.373   2.853   7.697 -0.3284  0.4916 -0.0202
  157SAPE  H11R17501   1.342   2.747   7.693  0.4585  0.2742 -0.5701
  157SAPE  C21217502   1.428   2.899   7.812 -0.1282  0.0679 -0.4960
  157SAPE  H12R17503   1.446   2.826   7.892  2.3250  0.7444 -0.3548
  157SAPE  C21317504   1.476   3.038   7.834 -0.0564 -0.1116 -0.4707
  157SAPE  H13R17505   1.412   3.077   7.916  0.1732  1.5406 -1.0332
  157SAPE  H13S17506   1.460   3.117   7.757 -0.1301  0.6960  0.3575
  157SAPE  C21417507   1.626   3.036   7.874  0.3060  0.4379  0.3448
  157SAPE  H14R17508   1.696   3.047   7.790 -0.3694 -2.2487 -0.6625
  157SAPE  C21517509   1.682   3.039   7.995  0.1011 -0.5672 -0.1658
  157SAPE  H15R17510   1.791   3.038   8.006  0.1222  3.1456  1.0550
  157SAPE  C21617511   1.619   3.045   8.127  1.1530  0.2378  0.3702
  157SAPE  H16R17512   1.654   2.956   8.184  0.9300 -1.2204 -1.6525
  157SAPE  H16S17513   1.509   3.035   8.123  1.2775 -1.7259  0.5473
  157SAPE  C21717514   1.645   3.174   8.201  0.9832 -0.5971 -0.0063
  157SAPE  H17R17515   1.593   3.261   8.155 -2.2918 -1.4432  1.8164
  157SAPE  H17S17516   1.752   3.199   8.220  1.0242 -0.9653  0.2573
  157SAPE  C21817517   1.589   3.163   8.346 -0.1181 -0.3846  0.6045
  157SAPE  H18R17518   1.642   3.089   8.409 -0.6615  0.3303  1.9517
  157SAPE  H18S17519   1.481   3.138   8.337 -0.1604  0.1946 -0.6844
  157SAPE  C21917520   1.593   3.303   8.423 -0.7414  0.0135  0.0585
  157SAPE  H19R17521   1.540   3.289   8.520  0.6945 -0.2143  0.8371
  157SAPE  H19S17522   1.544   3.387   8.369 -0.1663  0.8293  0.7849
  157SAPE  C22017523   1.737   3.347   8.451  0.2335 -0.2890 -0.0067
  157SAPE  H20R17524   1.797   3.374   8.362  2.2926  0.3059  1.4788
  157SAPE  H20S17525   1.781   3.257   8.500 -0.1326 -0.7364 -0.4803
  157SAPE  H20T17526   1.733   3.433   8.521 -2.4533 -0.1435 -0.2119
  157SAPE   C3317527   1.779   3.590   7.052  0.0778 -0.5470 -0.6485
  157SAPE   H3X17528   1.733   3.493   7.023 -2.0774  0.1482  0.2599
  157SAPE   H3Y17529   1.696   3.661   7.070  0.5182  0.1397 -1.2796
  157SAPE   C3417530   1.861   3.588   7.187 -0.3412 -0.7144  0.1739
  157SAPE   H4X17531   1.970   3.607   7.175 -0.4938  1.1717  1.3035
  157SAPE   H4Y17532   1.860   3.485   7.231 -0.0447 -0.0009  1.9491
  157SAPE   C3517533   1.806   3.673   7.296 -0.4043 -0.1461 -0.6945
  157SAPE   H5X17534   1.704   3.649   7.330  0.1896 -0.7138  0.7657
  157SAPE   H5Y17535   1.801   3.771   7.243  0.4208  0.4570  0.3006
  157SAPE   C3617536   1.905   3.692   7.419  0.1508 -0.1281  0.0894
  157SAPE   H6X17537   2.005   3.704   7.373  0.0696 -0.3195 -0.1350
  157SAPE   H6Y17538   1.909   3.604   7.486  2.0241  0.2432  0.5195
  157SAPE   C3717539   1.879   3.812   7.516  0.2215 -0.3691 -0.3887
  157SAPE   H7X17540   1.890   3.909   7.462 -0.2334  0.8732  1.6669
  157SAPE   H7Y17541   1.958   3.823   7.594  0.0917  0.5548 -0.3758
  157SAPE   C3817542   1.738   3.801   7.592  0.0185 -0.4330 -0.6918
  157SAPE   H8X17543   1.731   3.712   7.659 -0.4946  1.0606  1.3328
  157SAPE   H8Y17544   1.667   3.788   7.507  0.3821 -1.7826 -0.8164
  157SAPE   C3917545   1.710   3.927   7.676 -0.4200 -0.1691  0.4022
  157SAPE   H9X17546   1.605   3.962   7.666 -0.4385  0.1136  1.4097
  157SAPE   H9Y17547   1.769   4.011   7.634 -2.2461  0.7364 -0.4655
  157SAPE  C31017548   1.735   3.906   7.829 -0.2502  0.2211  0.3242
  157SAPE  H10X17549   1.836   3.864   7.848 -0.6954 -0.6418  0.8585
  157SAPE  H10Y17550   1.673   3.818   7.856  1.3590 -0.5533  1.6677
  157SAPE  C31117551   1.726   4.024   7.918  0.2051 -0.4550  0.8354
  157SAPE  H11X17552   1.618   4.047   7.929  0.1696 -0.1083 -0.2216
  157SAPE  H11Y17553   1.782   4.105   7.868 -0.2302 -0.7216 -0.1134
  157SAPE  C31217554   1.783   3.998   8.051 -0.0758 -0.4269  0.0532
  157SAPE  H12X17555   1.892   3.984   8.031 -0.3968 -1.3416 -1.2244
  157SAPE  H12Y17556   1.752   3.901   8.095 -0.4156 -0.2085  0.2971
  157SAPE  C31317557   1.773   4.118   8.148  0.1392  0.1610 -0.4555
  157SAPE  H13X17558   1.804   4.202   8.083 -1.7421  0.0720 -1.5450
  157SAPE  H13Y17559   1.848   4.105   8.228  1.9366  2.5388 -1.6211
  157SAPE  C31417560   1.627   4.151   8.201 -0.5835 -0.4202 -0.6567
  157SAPE  H14X17561   1.565   4.177   8.113 -1.5542 -1.0089 -0.1565
  157SAPE  H14Y17562   1.626   4.232   8.278 -2.7801 -0.8999 -0.1296
  157SAPE  C31517563   1.552   4.036   8.274 -0.3167  0.5440 -0.6980
  157SAPE  H15X17564   1.529   3.957   8.198  0.7693 -2.4911  1.8995
  157SAPE  H15Y17565   1.452   4.075   8.302 -0.7992 -0.9212 -0.3043
  157SAPE  C31617566   1.629   3.961   8.397  0.4454  0.0206 -0.2873
  157SAPE  H16X17567   1.653   4.037   8.474  0.3812  0.1340 -0.3787
  157SAPE  H16Y17568   1.722   3.921   8.351  0.6972 -0.0957  0.3176
  157SAPE  C31717569   1.550   3.838   8.460  0.5576 -0.5586 -0.0361
  157SAPE  H17X17570   1.446   3.875   8.468  1.2295  1.7817 -1.1527
  157SAPE  H17Y17571   1.590   3.842   8.563 -1.6144 -0.8288  0.8517
  157SAPE  C31817572   1.549   3.702   8.387  0.6149  0.6400  0.1382
  157SAPE  H18X17573   1.558   3.702   8.276 -1.8296 -3.4245 -0.2634
  157SAPE  H18Y17574   1.458   3.645   8.417  0.6887 -1.2739 -2.8745
  157SAPE  H18Z17575   1.633   3.645   8.432  0.0290 -0.9747 -0.7132
  158SAPE     N17576   2.230   0.314   6.630 -0.6987 -0.6375  0.5254
  158SAPE   HN117577   2.276   0.278   6.544 -0.9121  0.1878  0.0563
  158SAPE   HN217578   2.292   0.306   6.713  1.1418  0.3910 -0.6782
  158SAPE   HN317579   2.136   0.277   6.653 -0.8914  0.9551  2.6074
  158SAPE   C1217580   2.215   0.465   6.617 -0.0806 -0.0747 -0.4107
  158SAPE  H12A17581   2.141   0.497   6.693  0.2366  0.4236 -0.3043
  158SAPE  H12B17582   2.166   0.492   6.521  1.1283 -0.7363 -1.2441
  158SAPE   C1117583   2.349   0.539   6.637 -0.3551 -0.3529 -0.7591
  158SAPE  H11A17584   2.395   0.530   6.737 -2.2594  3.1024  0.5947
  158SAPE  H11B17585   2.315   0.645   6.633 -0.7485 -0.4953 -1.4926
  158SAPE     P17586   2.442   0.594   6.393  0.3320 -0.0073  0.0019
  158SAPE   O1317587   2.569   0.563   6.325 -0.3824 -0.4012 -0.8834
  158SAPE   O1417588   2.315   0.588   6.320 -0.0289  0.2561 -0.0830
  158SAPE   O1217589   2.428   0.504   6.525 -0.7011  0.4038 -0.1197
  158SAPE   O1117590   2.445   0.732   6.452 -0.3445  0.0511 -0.7307
  158SAPE    C117591   2.571   0.796   6.487 -0.3497 -0.3010  0.1559
  158SAPE    HA17592   2.659   0.746   6.440 -0.4541  1.0781 -1.6194
  158SAPE    HB17593   2.573   0.900   6.450 -0.4731 -0.2646  0.2529
  158SAPE    C217594   2.606   0.811   6.643 -0.4459  0.7575  0.1772
  158SAPE    HS17595   2.593   0.706   6.677  0.0984 -0.0642 -2.0058
  158SAPE   O2117596   2.523   0.908   6.688 -0.3335 -0.3937  0.0192
  158SAPE   C2117597   2.472   0.877   6.812  0.6994  0.4625 -0.0746
  158SAPE   O2217598   2.502   0.775   6.872  0.3842  0.0573  0.6807
  158SAPE   C2217599   2.372   0.983   6.851 -0.1733  0.1883 -0.0354
  158SAPE   H2R17600   2.345   0.973   6.959 -2.6531  1.2447 -0.4873
  158SAPE   H2S17601   2.422   1.082   6.846 -1.0852  0.6485 -0.3415
  158SAPE    C317602   2.757   0.859   6.672  0.2495 -0.4343  0.1456
  158SAPE    HX17603   2.768   0.941   6.598  1.3459 -0.5038  0.2177
  158SAPE    HY17604   2.831   0.778   6.655  1.3974 -0.2725  3.5656
  158SAPE   O3117605   2.765   0.910   6.798  0.1847  0.0335 -0.1562
  158SAPE   C3117606   2.793   0.818   6.891 -1.0425  0.2718  0.2222
  158SAPE   O3217607   2.821   0.701   6.866 -0.2381 -0.0000  0.4721
  158SAPE   C3217608   2.789   0.884   7.023  0.3090 -0.2152 -0.0265
  158SAPE   H2X17609   2.722   0.973   7.016 -0.7193 -0.9462  0.2884
  158SAPE   H2Y17610   2.885   0.902   7.075  0.8623 -0.7575 -0.8374
  158SAPE   C2317611   2.249   0.989   6.758  0.2134 -0.5215  1.5757
  158SAPE   H3R17612   2.198   0.890   6.754 -2.7270  0.9192 -1.6085
  158SAPE   H3S17613   2.268   1.026   6.655  3.5083 -0.5789  2.0553
  158SAPE   C2417614   2.143   1.079   6.820 -0.1169  0.3360  0.0717
  158SAPE   H4R17615   2.104   1.030   6.912 -1.4819  1.0194 -0.1131
  158SAPE   H4S17616   2.056   1.080   6.751  0.5448  2.8328 -0.8076
  158SAPE   C2517617   2.191   1.219   6.838  0.7287  0.4038 -0.4007
  158SAPE   H5R17618   2.187   1.279   6.746 -0.2941 -0.1492 -0.7413
  158SAPE   C2617619   2.244   1.276   6.946  0.3139 -0.7308  0.7446
  158SAPE   H6R17620   2.263   1.384   6.945 -4.0924  0.2664 -1.2033
  158SAPE   C2717621   2.261   1.211   7.080  0.1733 -0.8613 -0.8405
  158SAPE   H7R17622   2.234   1.103   7.071 -0.3071 -0.6141 -2.7455
  158SAPE   H7S17623   2.187   1.262   7.146 -0.6734  0.2931 -2.6330
  158SAPE   C2817624   2.402   1.228   7.124  0.1144 -0.8015  0.0721
  158SAPE   H8R17625   2.464   1.282   7.051 -3.2030  0.2674 -2.1838
  158SAPE   C2917626   2.447   1.194   7.243  0.2781 -0.2589  0.4278
  158SAPE   H9R17627   2.553   1.221   7.259  0.4551 -0.3061 -0.6249
  158SAPE  C21017628   2.365   1.131   7.358  0.1801 -0.0470 -0.2206
  158SAPE  H10R17629   2.434   1.061   7.409  0.6928  0.3423 -0.3725
  158SAPE  H10S17630   2.283   1.064   7.323  0.6155 -1.8581  1.9901
  158SAPE  C21117631   2.295   1.219   7.459 -0.1642 -0.7450 -0.2811
  158SAPE  H11R17632   2.244   1.309   7.422 -1.6303 -1.1883  0.5718
  158SAPE  C21217633   2.299   1.203   7.589  0.5413  0.2934 -0.1280
  158SAPE  H12R17634   2.250   1.272   7.659 -0.6743 -0.1173 -0.5425
  158SAPE  C21317635   2.369   1.085   7.659 -0.1861 -0.8080 -0.4954
  158SAPE  H13R17636   2.398   1.112   7.763 -0.8176 -1.4123 -0.1552
  158SAPE  H13S17637   2.469   1.072   7.613 -0.2006 -3.8058  0.1242
  158SAPE  C21417638   2.287   0.966   7.662 -0.1957  0.1812 -0.0385
  158SAPE  H14R17639   2.265   0.926   7.563 -0.3594 -1.3546  0.5870
  158SAPE  C21517640   2.261   0.891   7.769  1.4462 -0.4512  0.1215
  158SAPE  H15R17641   2.211   0.797   7.743  3.1906 -0.8036 -2.3112
  158SAPE  C21617642   2.296   0.902   7.916 -0.4270  0.2070  0.7299
  158SAPE  H16R17643   2.403   0.929   7.926 -0.2260  0.3006 -1.2910
  158SAPE  H16S17644   2.271   0.805   7.962 -0.0939 -0.3816 -0.2950
  158SAPE  C21717645   2.214   1.022   7.978  0.2482 -0.1877 -0.6462
  158SAPE  H17R17646   2.114   0.990   8.015 -0.1037  1.9724  0.4329
  158SAPE  H17S17647   2.195   1.097   7.897  1.0755  0.1741 -0.5150
  158SAPE  C21817648   2.276   1.098   8.102 -0.2279 -0.1819 -0.1471
  158SAPE  H18R17649   2.279   1.047   8.201  0.5629 -1.5551 -0.8578
  158SAPE  H18S17650   2.187   1.164   8.115 -0.5275 -0.4183 -0.9819
  158SAPE  C21917651   2.400   1.184   8.070 -0.8720  0.0270  1.0024
  158SAPE  H19R17652   2.473   1.121   8.016 -0.2535 -0.2127  2.0686
  158SAPE  H19S17653   2.444   1.215   8.168 -1.2469  0.9773  0.8849
  158SAPE  C22017654   2.368   1.309   7.988 -0.3338  0.0283 -0.7243
  158SAPE  H20R17655   2.434   1.394   8.017 -1.2073  0.0929  1.2347
  158SAPE  H20S17656   2.262   1.340   8.006 -0.3489  0.2943 -1.2384
  158SAPE  H20T17657   2.378   1.290   7.879  0.3517  2.9277 -1.2731
  158SAPE   C3317658   2.725   0.798   7.132  0.2379  1.1580  0.1699
  158SAPE   H3X17659   2.801   0.722   7.158  0.0637  1.1770  0.7481
  158SAPE   H3Y17660   2.629   0.749   7.102  0.5240  1.3790 -1.1816
  158SAPE   C3417661   2.696   0.875   7.264 -0.2462  0.0461  0.2452
  158SAPE   H4X17662   2.602   0.934   7.257  1.1929  2.5241  0.7536
  158SAPE   H4Y17663   2.780   0.947   7.265  0.3623 -0.6073 -1.0217
  158SAPE   C3517664   2.694   0.776   7.381  0.0191  0.1579  0.0133
  158SAPE   H5X17665   2.788   0.717   7.381  0.7469  1.2729  0.1745
  158SAPE   H5Y17666   2.604   0.711   7.372 -0.1664  0.1505  1.5435
  158SAPE   C3617667   2.698   0.847   7.517 -0.0010 -0.0845  1.2800
  158SAPE   H6X17668   2.615   0.921   7.512  1.1702  1.1750 -1.0382
  158SAPE   H6Y17669   2.783   0.917   7.504 -2.6339  2.9604 -1.0889
  158SAPE   C3717670   2.702   0.752   7.635  0.0628  0.1339  0.8352
  158SAPE   H7X17671   2.596   0.721   7.652 -0.2515  1.0465  0.6374
  158SAPE   H7Y17672   2.774   0.670   7.616  0.6460  0.5473  1.2246
  158SAPE   C3817673   2.751   0.815   7.767 -0.3377  0.0378 -0.2061
  158SAPE   H8X17674   2.710   0.917   7.780 -0.6444 -0.2949  1.7593
  158SAPE   H8Y17675   2.862   0.826   7.757 -0.1782  0.9147  1.9747
  158SAPE   C3917676   2.721   0.746   7.896 -0.0166  0.7472 -0.1301
  158SAPE   H9X17677   2.786   0.655   7.896 -0.0895  0.6918 -0.6497
  158SAPE   H9Y17678   2.615   0.712   7.904 -0.1123  1.3483  1.5060
  158SAPE  C31017679   2.763   0.831   8.020 -0.1889  0.2563 -0.3277
  158SAPE  H10X17680   2.710   0.929   8.021 -0.9442 -0.1146  1.6535
  158SAPE  H10Y17681   2.873   0.849   8.018 -0.3591  1.3278 -1.6230
  158SAPE  C31117682   2.711   0.759   8.150 -0.0031 -0.0198  0.5406
  158SAPE  H11X17683   2.760   0.660   8.153 -1.0619 -0.6703 -1.5169
  158SAPE  H11Y17684   2.606   0.728   8.135 -0.1030  1.3902 -2.6169
  158SAPE  C31217685   2.735   0.836   8.286  0.7845  0.2033  0.1283
  158SAPE  H12X17686   2.685   0.934   8.275 -0.7075 -0.6448 -0.9667
  158SAPE  H12Y17687   2.842   0.855   8.308  1.0806 -1.8110  0.6613
  158SAPE  C31317688   2.676   0.772   8.414  0.1185  0.4176 -0.0100
  158SAPE  H13X17689   2.703   0.664   8.416 -1.2481  0.0499 -0.5334
  158SAPE  H13Y17690   2.566   0.777   8.400  0.0683 -3.6387 -3.1704
  158SAPE  C31417691   2.700   0.837   8.556 -0.5303 -0.4527 -0.5454
  158SAPE  H14X17692   2.634   0.797   8.636  0.2084 -0.1642  0.2239
  158SAPE  H14Y17693   2.678   0.946   8.550 -0.2028 -0.4244 -1.3406
  158SAPE  C31517694   2.848   0.820   8.601  0.0256  0.6079 -0.4771
  158SAPE  H15X17695   2.908   0.852   8.513 -2.1045 -0.1852 -2.3180
  158SAPE  H15Y17696   2.885   0.719   8.629  1.9372  0.7967 -2.1378
  158SAPE  C31617697   2.897   0.904   8.715  0.3208  1.0596 -0.1458
  158SAPE  H16X17698   2.894   1.011   8.686  0.7460  0.5136 -2.3740
  158SAPE  H16Y17699   3.003   0.880   8.742  0.2252  2.7893  2.1172
  158SAPE  C31717700   2.812   0.885   8.841  0.2764 -0.3054 -0.1482
  158SAPE  H17X17701   2.811   0.779   8.875 -1.8438 -1.6679 -3.9015
  158SAPE  H17Y17702   2.709   0.911   8.809  0.5259 -0.8855 -1.4758
  158SAPE  C31817703   2.859   0.980   8.952  0.1147  0.0965  0.1163
  158SAPE  H18X17704   2.959   0.941   8.982  0.1231  1.9584  2.8389
  158SAPE  H18Y17705   2.786   0.976   9.036  0.1693 -1.8429  0.1157
  158SAPE  H18Z17706   2.880   1.080   8.909 -0.1233  1.1405  2.2977
  159SAPE     N17707   2.441   4.856   6.548 -0.1551 -0.9242  0.3959
  159SAPE   HN117708   2.482   4.769   6.586  0.5160 -0.6621  0.2988
  159SAPE   HN217709   2.338   4.847   6.560 -0.9920  2.4906 -2.5218
  159SAPE   HN317710   2.468   4.877   6.449  1.2058  3.3978  1.4581
  159SAPE   C1217711   2.480   4.990   6.622 -0.3059  0.0866  0.4037
  159SAPE  H12A17712   2.574   4.973   6.678  0.2855  1.8951  0.0443
  159SAPE  H12B17713   2.389   5.018   6.680 -2.1367 -1.0989 -1.7083
  159SAPE   C1117714   2.502   5.107   6.518 -0.2909 -0.2802  0.6189
  159SAPE  H11A17715   2.520   5.203   6.572  1.1221 -0.0428 -0.2329
  159SAPE  H11B17716   2.411   5.114   6.456  0.1136  3.6909  0.1953
  159SAPE     P17717   2.729   5.171   6.403  0.1999 -0.1065 -0.0798
  159SAPE   O1317718   2.805   5.124   6.284  0.2342 -0.3128  0.5825
  159SAPE   O1417719   2.682   5.309   6.402 -0.2465 -0.4119  0.0897
  159SAPE   O1217720   2.611   5.075   6.429 -0.0012  0.4293 -0.2571
  159SAPE   O1117721   2.813   5.146   6.533  0.2633 -0.1959 -0.1353
  159SAPE    C117722   2.857   5.027   6.591 -0.2062  0.1777  0.1176
  159SAPE    HA17723   2.789   4.945   6.559 -0.6741  1.2034 -1.6581
  159SAPE    HB17724   2.954   5.000   6.545 -1.8384 -1.9743 -2.3325
  159SAPE    C217725   2.857   5.038   6.743  0.3976  0.4252  0.4835
  159SAPE    HS17726   2.757   5.055   6.789  0.5147 -0.6072  1.1548
  159SAPE   O2117727   2.958   5.128   6.784  0.1272  0.4749  0.2582
  159SAPE   C2117728   2.916   5.250   6.794  0.2890  0.2876  0.5166
  159SAPE   O2217729   2.802   5.293   6.788 -0.1705 -0.1490 -1.0938
  159SAPE   C2217730   3.039   5.327   6.835  0.7832 -0.8471 -0.2467
  159SAPE   H2R17731   3.098   5.342   6.742  0.7054 -2.2672 -0.5503
  159SAPE   H2S17732   3.008   5.422   6.883  0.7995 -1.0326  0.1294
  159SAPE    C317733   2.893   4.896   6.796 -0.6144  0.4892 -0.6767
  159SAPE    HX17734   2.990   4.864   6.751  1.0498  2.4608  1.3038
  159SAPE    HY17735   2.823   4.816   6.764 -0.4600  1.2843 -3.2522
  159SAPE   O3117736   2.896   4.895   6.940 -0.3149 -0.0232 -0.3339
  159SAPE   C3117737   3.017   4.906   6.999 -0.2252  0.4364  0.9388
  159SAPE   O3217738   3.120   4.897   6.932  0.1967  0.0173  0.1057
  159SAPE   C3217739   3.001   4.912   7.146 -0.1255 -0.6390 -0.6229
  159SAPE   H2X17740   2.943   4.824   7.181  0.4075 -1.8857 -2.7294
  159SAPE   H2Y17741   2.947   5.006   7.167 -0.4622 -0.6149 -1.5706
  159SAPE   C2317742   3.143   5.265   6.930  0.2104  0.6573  0.2739
  159SAPE   H3R17743   3.240   5.311   6.900  0.6214 -0.8787 -0.8363
  159SAPE   H3S17744   3.165   5.160   6.903  0.0715  0.0973  2.1968
  159SAPE   C2417745   3.110   5.267   7.079 -0.3664 -0.1169  0.9164
  159SAPE   H4R17746   3.186   5.208   7.134 -0.4401 -1.8947 -0.8040
  159SAPE   H4S17747   3.009   5.224   7.093 -0.3941 -0.4285 -0.1645
  159SAPE   C2517748   3.106   5.410   7.134  0.1905 -0.0592  0.3178
  159SAPE   H5R17749   3.169   5.470   7.066 -0.4217 -1.5787 -1.6957
  159SAPE   C2617750   3.055   5.458   7.249 -0.6438  0.2295 -0.1671
  159SAPE   H6R17751   3.074   5.565   7.266 -0.5168  0.1848 -0.0193
  159SAPE   C2717752   2.978   5.380   7.359 -0.5231  0.0218 -0.8258
  159SAPE   H7R17753   3.034   5.385   7.455 -1.7030  2.0006 -0.1784
  159SAPE   H7S17754   2.968   5.272   7.335  0.2972 -0.7105  1.7399
  159SAPE   C2817755   2.847   5.448   7.394 -1.2023  0.3234  0.2487
  159SAPE   H8R17756   2.789   5.460   7.301  2.0062  0.3995 -1.8834
  159SAPE   C2917757   2.805   5.494   7.512 -0.1292  0.3181 -0.3567
  159SAPE   H9R17758   2.702   5.530   7.527 -0.0028  0.4660  0.1549
  159SAPE  C21017759   2.867   5.477   7.645  0.9318 -0.4083 -0.6708
  159SAPE  H10R17760   2.899   5.371   7.657  0.4842 -0.4247  0.5722
  159SAPE  H10S17761   2.794   5.494   7.728  0.7116 -0.6372 -0.8176
  159SAPE  C21117762   2.984   5.564   7.673 -0.5057  0.0221  0.4875
  159SAPE  H11R17763   3.072   5.535   7.613 -0.4968 -0.6971  0.8282
  159SAPE  C21217764   2.994   5.667   7.762  0.0655 -0.1840 -0.2768
  159SAPE  H12R17765   3.087   5.722   7.743 -0.1320 -0.0726 -0.9330
  159SAPE  C21317766   2.890   5.726   7.849  0.2848 -0.1606  0.4268
  159SAPE  H13R17767   2.800   5.712   7.784  0.8336  1.2645 -0.7013
  159SAPE  H13S17768   2.909   5.836   7.852  2.0840 -0.4526  0.9533
  159SAPE  C21417769   2.854   5.647   7.969 -0.0915  0.3033 -0.0668
  159SAPE  H14R17770   2.862   5.541   7.942 -2.4145  0.2480 -0.7735
  159SAPE  C21517771   2.818   5.696   8.088  1.4311 -0.0006  1.2611
  159SAPE  H15R17772   2.771   5.630   8.162 -0.5650  1.4746  1.3745
  159SAPE  C21617773   2.790   5.844   8.122 -0.1832 -0.1143 -0.5389
  159SAPE  H16R17774   2.683   5.864   8.147 -0.2273  0.2760 -1.0136
  159SAPE  H16S17775   2.813   5.918   8.043  0.5956  2.2195  1.7459
  159SAPE  C21717776   2.884   5.896   8.229 -0.3925 -0.3346  0.6082
  159SAPE  H17R17777   2.865   6.006   8.234 -1.5757 -0.2832 -2.4243
  159SAPE  H17S17778   2.992   5.882   8.208 -0.7575  0.8122 -2.6490
  159SAPE  C21817779   2.873   5.822   8.365 -0.8671 -0.5715  1.1205
  159SAPE  H18R17780   2.876   5.713   8.341  0.5138  0.0808 -2.1517
  159SAPE  H18S17781   2.776   5.845   8.414 -1.0690  0.0060  0.4589
  159SAPE  C21917782   2.997   5.852   8.450 -0.4609  0.4140  0.2443
  159SAPE  H19R17783   3.006   5.958   8.479  0.6000  0.7916 -1.3410
  159SAPE  H19S17784   3.090   5.829   8.393 -0.1002  0.0940  0.9456
  159SAPE  C22017785   3.001   5.756   8.571 -0.2554 -0.4055  0.1081
  159SAPE  H20R17786   3.038   5.658   8.533  1.8819  0.3140  0.1874
  159SAPE  H20S17787   2.899   5.752   8.615 -0.4087 -0.2554 -0.2273
  159SAPE  H20T17788   3.067   5.789   8.654 -0.6524 -0.4635  0.4511
  159SAPE   C3317789   3.136   4.889   7.212 -0.7026 -0.4624  0.5658
  159SAPE   H3X17790   3.134   4.936   7.313 -1.6423  2.0294 -0.5306
  159SAPE   H3Y17791   3.227   4.937   7.170 -0.7562 -0.0131  0.9528
  159SAPE   C3417792   3.162   4.735   7.230 -0.3768 -0.0381  0.0985
  159SAPE   H4X17793   3.173   4.686   7.131  1.7376  1.4182 -0.4694
  159SAPE   H4Y17794   3.071   4.695   7.280 -1.9104  0.9392 -1.7804
  159SAPE   C3517795   3.295   4.704   7.299 -0.5427 -0.0980  0.1706
  159SAPE   H5X17796   3.387   4.742   7.250  0.6246 -0.5228  1.9626
  159SAPE   H5Y17797   3.309   4.594   7.286 -0.6217 -0.1277  0.3371
  159SAPE   C3617798   3.296   4.749   7.441  0.0326  0.1905 -0.3905
  159SAPE   H6X17799   3.208   4.708   7.494  0.4092 -0.2325 -0.0818
  159SAPE   H6Y17800   3.305   4.860   7.444 -0.6949  0.2596 -0.5862
  159SAPE   C3717801   3.424   4.702   7.516  0.4166  0.6171 -0.7073
  159SAPE   H7X17802   3.506   4.753   7.462 -0.8262  0.6673 -2.6650
  159SAPE   H7Y17803   3.438   4.593   7.504  2.0916  0.6346  0.6960
  159SAPE   C3817804   3.421   4.729   7.665  0.3865 -0.2497  0.0925
  159SAPE   H8X17805   3.336   4.679   7.717 -0.8095  0.5349 -1.0490
  159SAPE   H8Y17806   3.399   4.834   7.693  0.3681 -0.5736  1.3849
  159SAPE   C3917807   3.554   4.687   7.732 -0.0158  0.0588 -0.2853
  159SAPE   H9X17808   3.635   4.758   7.704  2.0552 -2.5396 -1.3323
  159SAPE   H9Y17809   3.577   4.584   7.697 -1.5424 -0.2515 -0.4526
  159SAPE  C31017810   3.540   4.670   7.881  0.3659  0.5558 -0.2710
  159SAPE  H10X17811   3.475   4.584   7.909  0.9228  0.3785  0.5300
  159SAPE  H10Y17812   3.487   4.759   7.920 -0.5644 -0.4239  0.7816
  159SAPE  C31117813   3.670   4.659   7.963 -0.2370  0.7275 -0.0180
  159SAPE  H11X17814   3.717   4.759   7.973  0.1631  0.4838  0.5400
  159SAPE  H11Y17815   3.738   4.587   7.911 -0.4592 -0.5563  1.4173
  159SAPE  C31217816   3.632   4.600   8.099 -0.0796 -0.1533 -0.4925
  159SAPE  H12X17817   3.706   4.530   8.142 -0.8726 -0.9015 -0.3256
  159SAPE  H12Y17818   3.548   4.528   8.091 -1.6785  1.2306  2.1469
  159SAPE  C31317819   3.600   4.712   8.206  0.1132  0.5718 -0.1445
  159SAPE  H13X17820   3.518   4.777   8.168  1.2304  1.8889 -0.4098
  159SAPE  H13Y17821   3.693   4.774   8.206  0.7991 -0.3793 -1.9621
  159SAPE  C31417822   3.578   4.658   8.348 -0.1823 -0.0805  0.5317
  159SAPE  H14X17823   3.646   4.574   8.370  0.0936  0.6688  2.7978
  159SAPE  H14Y17824   3.473   4.631   8.372  0.2787 -2.9097 -0.3449
  159SAPE  C31517825   3.619   4.769   8.451 -1.0948  0.2912  0.6366
  159SAPE  H15X17826   3.725   4.786   8.424 -1.1270  0.0944  0.3926
  159SAPE  H15Y17827   3.617   4.733   8.556 -0.3246  0.4528  0.7125
  159SAPE  C31617828   3.532   4.899   8.441  0.0181 -0.6117  0.0845
  159SAPE  H16X17829   3.434   4.864   8.401 -1.4203 -0.3559  3.1481
  159SAPE  H16Y17830   3.554   4.981   8.369 -3.7210  0.1559 -0.3832
  159SAPE  C31717831   3.503   4.957   8.576  0.2259 -0.2474 -0.2208
  159SAPE  H17X17832   3.606   4.960   8.617 -0.0826  2.3572  0.5260
  159SAPE  H17Y17833   3.452   4.886   8.645  1.1027 -1.4154 -0.7295
  159SAPE  C31817834   3.445   5.102   8.567 -0.7484 -0.0900  1.2159
  159SAPE  H18X17835   3.449   5.151   8.667  1.5061 -2.3996  2.3757
  159SAPE  H18Y17836   3.350   5.118   8.510  1.6132  1.4336 -2.7170
  159SAPE  H18Z17837   3.513   5.163   8.503 -2.8947  0.9352 -0.2483
  160SAPE     N17838   2.565   3.363   6.668 -0.7591 -0.7194 -0.7767
  160SAPE   HN117839   2.526   3.410   6.752 -2.2912 -2.2006 -0.6015
  160SAPE   HN217840   2.550   3.261   6.676 -1.8348 -0.4286  1.8378
  160SAPE   HN317841   2.667   3.380   6.659 -0.6248 -0.2996  1.1540
  160SAPE   C1217842   2.500   3.411   6.544 -0.3750  0.0234  0.0116
  160SAPE  H12A17843   2.531   3.353   6.454  0.3507 -0.0526  0.3073
  160SAPE  H12B17844   2.517   3.520   6.530 -1.8691  0.1464 -1.1114
  160SAPE   C1117845   2.346   3.416   6.553  0.2831  0.5035  0.1741
  160SAPE  H11A17846   2.305   3.314   6.571  0.2454  0.6161  0.7429
  160SAPE  H11B17847   2.310   3.455   6.456 -0.2239 -1.1316 -0.3307
  160SAPE     P17848   2.165   3.561   6.673  0.0342  0.1483  0.0930
  160SAPE   O1317849   2.138   3.653   6.559 -0.5252  0.6975 -0.4418
  160SAPE   O1417850   2.064   3.447   6.695  0.3001  0.1917 -0.4957
  160SAPE   O1217851   2.306   3.497   6.664  0.2237  0.7108 -0.1272
  160SAPE   O1117852   2.178   3.650   6.807 -0.0816  0.5698  0.0722
  160SAPE    C117853   2.265   3.629   6.918 -0.7169 -0.1193  0.0141
  160SAPE    HA17854   2.209   3.664   7.008 -1.0219  1.6428 -0.8159
  160SAPE    HB17855   2.305   3.526   6.930  5.2840  2.1450  4.2499
  160SAPE    C217856   2.394   3.715   6.897  0.3533 -0.4934  0.1208
  160SAPE    HS17857   2.441   3.679   6.803 -1.1371  0.0301 -0.8567
  160SAPE   O2117858   2.491   3.689   7.009  0.8559 -0.3358 -0.0861
  160SAPE   C2117859   2.556   3.573   7.011 -0.6466 -0.5757 -0.2171
  160SAPE   O2217860   2.545   3.485   6.928 -0.1335 -0.0623 -0.2096
  160SAPE   C2217861   2.645   3.571   7.134  0.5926 -0.6991  0.2577
  160SAPE   H2R17862   2.702   3.666   7.144  0.2791 -0.4688 -0.1439
  160SAPE   H2S17863   2.583   3.565   7.226  0.0062  1.2368  0.0358
  160SAPE    C317864   2.367   3.872   6.887 -0.0047 -0.7762 -0.1798
  160SAPE    HX17865   2.314   3.893   6.792  0.0145  1.4749  0.2516
  160SAPE    HY17866   2.463   3.920   6.859  0.1972 -1.8899 -1.5588
  160SAPE   O3117867   2.314   3.928   7.009  0.6898  0.2728  0.5392
  160SAPE   C3117868   2.287   4.064   6.994 -0.0951 -0.1769 -0.0679
  160SAPE   O3217869   2.304   4.123   6.885 -0.0265 -0.2498 -0.3117
  160SAPE   C3217870   2.244   4.119   7.130  0.2595  0.2548  0.2902
  160SAPE   H2X17871   2.134   4.138   7.130 -0.2532 -2.3093 -0.3481
  160SAPE   H2Y17872   2.294   4.217   7.144  0.8356  0.1761 -1.1163
  160SAPE   C2317873   2.739   3.456   7.126 -0.4862  0.7554  0.3170
  160SAPE   H3R17874   2.815   3.467   7.045 -0.6022  1.1525  0.2592
  160SAPE   H3S17875   2.680   3.363   7.113 -1.1349  1.2489 -0.3068
  160SAPE   C2417876   2.822   3.428   7.254  0.6321  0.1210  0.0211
  160SAPE   H4R17877   2.911   3.364   7.235  0.5002  0.2289 -1.0221
  160SAPE   H4S17878   2.765   3.359   7.319 -1.3598  1.6508 -0.0023
  160SAPE   C2517879   2.866   3.544   7.335  0.5128 -0.0263  0.5629
  160SAPE   H5R17880   2.934   3.614   7.283  1.0681 -0.5647  0.5472
  160SAPE   C2617881   2.840   3.555   7.467 -0.1696 -0.6750 -0.7712
  160SAPE   H6R17882   2.893   3.636   7.521 -3.9290  1.1468  0.5700
  160SAPE   C2717883   2.763   3.467   7.565  0.0155 -0.6535  0.3605
  160SAPE   H7R17884   2.658   3.445   7.535 -0.4011  1.5221  0.0958
  160SAPE   H7S17885   2.727   3.532   7.647 -1.6886 -0.6849 -0.3119
  160SAPE   C2817886   2.846   3.354   7.621  0.3596  0.1926  0.3851
  160SAPE   H8R17887   2.921   3.313   7.552 -1.0171 -0.6199 -0.6761
  160SAPE   C2917888   2.846   3.315   7.747 -0.7512  0.0138 -0.3869
  160SAPE   H9R17889   2.920   3.237   7.772 -1.3730 -1.0595 -1.7823
  160SAPE  C21017890   2.777   3.368   7.871  0.4986 -0.4886  0.1506
  160SAPE  H10R17891   2.758   3.478   7.862 -0.2028 -0.5175  1.1222
  160SAPE  H10S17892   2.845   3.353   7.957 -0.1192 -0.4924  0.6462
  160SAPE  C21117893   2.644   3.305   7.905  0.1601  0.7554 -0.2186
  160SAPE  H11R17894   2.584   3.263   7.823 -0.2961  0.5268  0.2251
  160SAPE  C21217895   2.589   3.302   8.029  0.2500  0.4585  0.4451
  160SAPE  H12R17896   2.491   3.252   8.024 -0.0709  1.1597 -1.6763
  160SAPE  C21317897   2.634   3.352   8.157  0.0557 -0.3866 -0.3408
  160SAPE  H13R17898   2.546   3.332   8.223 -0.1155  2.6694  0.4940
  160SAPE  H13S17899   2.635   3.462   8.144  0.6919 -0.3836 -0.2847
  160SAPE  C21417900   2.763   3.297   8.203  0.3512  0.3371  0.2725
  160SAPE  H14R17901   2.804   3.211   8.148 -0.5305 -0.9456  1.5362
  160SAPE  C21517902   2.833   3.342   8.312  0.5421  0.2998 -0.2581
  160SAPE  H15R17903   2.930   3.297   8.338 -0.0857 -0.4924  0.7934
  160SAPE  C21617904   2.781   3.453   8.401 -0.1912  0.0604 -0.0151
  160SAPE  H16R17905   2.702   3.518   8.359  0.4700  0.1533 -1.1517
  160SAPE  H16S17906   2.862   3.527   8.419 -0.2149  0.7544 -2.3730
  160SAPE  C21717907   2.723   3.380   8.526 -0.4822  0.2828 -0.1090
  160SAPE  H17R17908   2.623   3.332   8.521 -1.0923  0.7536  3.9840
  160SAPE  H17S17909   2.692   3.461   8.597  0.0325 -1.4395  2.2149
  160SAPE  C21817910   2.830   3.299   8.616 -0.2109  0.1400 -0.3606
  160SAPE  H18R17911   2.919   3.354   8.653  0.3948 -0.6372 -0.6191
  160SAPE  H18S17912   2.850   3.209   8.553 -0.0683 -0.3557  0.3818
  160SAPE  C21917913   2.773   3.235   8.742 -0.1916 -0.1374 -0.3145
  160SAPE  H19R17914   2.690   3.165   8.722  0.2685 -0.8544  0.2113
  160SAPE  H19S17915   2.736   3.319   8.804  1.1589  0.8753 -0.8396
  160SAPE  C22017916   2.871   3.139   8.819 -0.3963 -0.1158  0.1592
  160SAPE  H20R17917   2.958   3.201   8.851 -1.4019  3.3600 -3.1256
  160SAPE  H20S17918   2.898   3.045   8.767 -0.9910  0.1038 -0.5542
  160SAPE  H20T17919   2.823   3.118   8.917 -0.1205 -0.2273  0.2711
  160SAPE   C3317920   2.262   4.026   7.251  0.4875  0.2549 -0.0109
  160SAPE   H3X17921   2.372   4.007   7.254  0.0646 -2.5520  0.6223
  160SAPE   H3Y17922   2.212   3.928   7.232  1.1034  0.1693 -1.3638
  160SAPE   C3417923   2.198   4.084   7.371 -0.5135 -0.0961 -0.7414
  160SAPE   H4X17924   2.088   4.073   7.378 -0.6009  1.0987  0.0129
  160SAPE   H4Y17925   2.218   4.193   7.369  1.5053 -0.4103 -0.3885
  160SAPE   C3517926   2.252   4.014   7.497 -0.1525 -0.2495 -0.0525
  160SAPE   H5X17927   2.363   4.012   7.490 -0.0521 -0.1921  1.3819
  160SAPE   H5Y17928   2.225   3.907   7.489  0.8112 -0.3925 -2.2536
  160SAPE   C3617929   2.204   4.092   7.621 -0.4727  0.1796 -0.4789
  160SAPE   H6X17930   2.116   4.155   7.595  0.8300  1.7505 -1.2719
  160SAPE   H6Y17931   2.279   4.171   7.642 -0.5485 -0.0764  0.8953
  160SAPE   C3717932   2.193   4.015   7.749  0.0640  0.4896  0.2777
  160SAPE   H7X17933   2.283   3.949   7.759  0.1264  0.4619 -0.4426
  160SAPE   H7Y17934   2.112   3.939   7.747 -0.2831  0.8719 -0.6884
  160SAPE   C3817935   2.162   4.096   7.877  0.0293  0.6630  0.0071
  160SAPE   H8X17936   2.053   4.099   7.896  0.0521  0.5083  0.1687
  160SAPE   H8Y17937   2.205   4.195   7.850 -1.8065  1.3110 -0.6716
  160SAPE   C3917938   2.231   4.061   8.015 -0.4542  0.3552 -0.9741
  160SAPE   H9X17939   2.341   4.065   7.999 -0.4527 -0.6890 -1.2975
  160SAPE   H9Y17940   2.208   3.955   8.036 -0.9941  0.5843 -0.3998
  160SAPE  C31017941   2.180   4.132   8.152  0.2699 -0.5543  0.1733
  160SAPE  H10X17942   2.069   4.126   8.158 -0.0052  1.4989 -1.3325
  160SAPE  H10Y17943   2.200   4.237   8.122 -0.4289 -1.1361 -2.6357
  160SAPE  C31117944   2.262   4.076   8.273 -0.0915  0.6505  0.2816
  160SAPE  H11X17945   2.369   4.079   8.246  0.5289 -1.1223  2.3152
  160SAPE  H11Y17946   2.231   3.970   8.287  1.4596 -0.2462 -2.4064
  160SAPE  C31217947   2.244   4.150   8.403  0.2935  0.1971  0.0268
  160SAPE  H12X17948   2.143   4.122   8.442  0.8781  0.2266  1.6232
  160SAPE  H12Y17949   2.250   4.259   8.383 -0.5160  0.4798  1.2369
  160SAPE  C31317950   2.350   4.119   8.506 -0.1866  0.1036 -0.6265
  160SAPE  H13X17951   2.443   4.175   8.485 -0.1022  0.9030  1.6511
  160SAPE  H13Y17952   2.372   4.011   8.519  2.3406  0.5197 -0.9351
  160SAPE  C31417953   2.311   4.174   8.651 -0.5645 -0.0017 -0.2856
  160SAPE  H14X17954   2.212   4.132   8.679  0.5527 -1.0388  2.4906
  160SAPE  H14Y17955   2.311   4.285   8.651 -1.0142  0.0386  1.7349
  160SAPE  C31517956   2.428   4.126   8.742  0.0180  0.4865 -0.7682
  160SAPE  H15X17957   2.523   4.184   8.744 -1.4959  3.1547  2.1727
  160SAPE  H15Y17958   2.449   4.024   8.703  0.3862  1.4098 -3.1592
  160SAPE  C31617959   2.392   4.115   8.896  0.3933 -0.2830 -0.3497
  160SAPE  H16X17960   2.474   4.062   8.948  1.2271  0.8294 -0.4908
  160SAPE  H16Y17961   2.299   4.056   8.913  1.4037 -1.5793  0.8424
  160SAPE  C31717962   2.348   4.247   8.959  0.2077  0.2299 -0.1901
  160SAPE  H17X17963   2.308   4.232   9.061  2.6616  1.5163  1.0244
  160SAPE  H17Y17964   2.273   4.294   8.891 -0.4247 -0.7420 -0.1938
  160SAPE  C31817965   2.469   4.335   8.984 -0.0672 -0.0627 -0.4312
  160SAPE  H18X17966   2.504   4.367   8.883  0.0749 -0.7572 -0.6068
  160SAPE  H18Y17967   2.555   4.283   9.032  0.0537  1.3338  0.9606
  160SAPE  H18Z17968   2.446   4.424   9.046 -1.6957 -1.4424  1.0428
  161SOPE     N17969   6.725   0.420  10.834 -0.2181 -0.1087  0.3267
  161SOPE   HN117970   6.682   0.485  10.765  0.1202  0.6506  0.8133
  161SOPE   HN217971   6.724   0.473  10.924  0.8729  0.4367  0.0311
  161SOPE   HN317972   6.822   0.410  10.798 -0.5327  1.4042 -1.0825
  161SOPE   C1217973   6.658   0.287  10.846 -0.5492 -0.2066  0.3944
  161SOPE  H12A17974   6.550   0.298  10.822 -0.7303 -1.5969  0.5231
  161SOPE  H12B17975   6.673   0.263  10.954  2.8118  2.1683  0.6348
  161SOPE   C1117976   6.728   0.197  10.749  0.5534 -0.0277  0.0838
  161SOPE  H11A17977   6.705   0.249  10.653 -3.0064  0.1600  0.8984
  161SOPE  H11B17978   6.683   0.096  10.758 -0.0246  0.2953  0.9305
  161SOPE     P17979   6.940   0.072  10.853 -0.4799  0.3194 -0.0129
  161SOPE   O1317980   6.844  -0.040  10.875 -0.0190 -0.2521  0.0901
  161SOPE   O1417981   7.029   0.126  10.961 -0.7789  0.2573  0.0170
  161SOPE   O1217982   6.867   0.196  10.781  0.5916 -0.2797  0.0520
  161SOPE   O1117983   7.036   0.035  10.737 -0.0223 -0.0312  0.4680
  161SOPE    C117984   7.114   0.119  10.654  0.4785  0.5498 -0.5406
  161SOPE    HA17985   7.220   0.086  10.657  0.3914  0.2975 -0.1796
  161SOPE    HB17986   7.109   0.223  10.694 -2.0748 -0.0648  1.0102
  161SOPE    C217987   7.082   0.116  10.506  0.0391  0.2077  0.2973
  161SOPE    HS17988   6.973   0.135  10.498 -0.5113 -2.3186  0.8068
  161SOPE   O2117989   7.128  -0.011  10.457  0.0952 -0.4333 -0.0257
  161SOPE   C2117990   7.056  -0.076  10.366 -0.8055 -0.1444  0.0758
  161SOPE   O2217991   6.951  -0.048  10.320  0.1115  0.1445 -0.0084
  161SOPE   C2217992   7.135  -0.198  10.337  0.1031  0.4016 -0.6193
  161SOPE   H2R17993   7.083  -0.287  10.379  0.2906 -0.9722 -3.0533
  161SOPE   H2S17994   7.235  -0.198  10.385 -0.5376  0.6069  0.7587
  161SOPE    C317995   7.161   0.227  10.423 -0.6062 -0.0393  0.0055
  161SOPE    HX17996   7.267   0.199  10.411 -0.9335 -1.1899 -0.3385
  161SOPE    HY17997   7.152   0.321  10.482 -1.1096 -1.1426  1.7507
  161SOPE   O3117998   7.100   0.250  10.291  0.9843 -0.1734 -0.3413
  161SOPE   C3117999   6.984   0.303  10.294 -0.4414 -0.0804  0.4824
  161SOPE   O3218000   6.919   0.337  10.394  0.5099 -0.5415  0.0322
  161SOPE   C3218001   6.927   0.304  10.151 -0.0407  0.4138 -0.3537
  161SOPE   H2X18002   6.828   0.254  10.152  0.5825 -0.8512  0.0547
  161SOPE   H2Y18003   6.991   0.242  10.085 -0.5265  0.4050 -0.8181
  161SOPE   C2318004   7.136  -0.232  10.183 -0.4358  0.2739  0.6526
  161SOPE   H3R18005   7.037  -0.228  10.132 -0.1600 -0.8242 -0.0032
  161SOPE   H3S18006   7.173  -0.335  10.164 -0.7166  0.6054 -2.1103
  161SOPE   C2418007   7.227  -0.130  10.112 -0.1941 -0.3302  0.2620
  161SOPE   H4R18008   7.206  -0.022  10.123  1.9107  0.0233  1.3249
  161SOPE   H4S18009   7.329  -0.149  10.151  0.1683  0.3674 -0.3222
  161SOPE   C2518010   7.227  -0.153   9.954  0.7063 -0.3114  0.6153
  161SOPE   H5R18011   7.253  -0.257   9.926 -0.9052 -0.3454 -0.8680
  161SOPE   H5S18012   7.122  -0.135   9.924  1.0680  1.4441  0.2844
  161SOPE   C2618013   7.316  -0.046   9.879 -0.5223 -0.6114 -0.3614
  161SOPE   H6R18014   7.287   0.059   9.901  1.7177  0.4885 -2.1454
  161SOPE   H6S18015   7.408  -0.062   9.939 -0.9658 -1.3204  0.1390
  161SOPE   C2718016   7.328  -0.072   9.732 -0.5076  0.8146  0.2499
  161SOPE   H7R18017   7.414  -0.018   9.686 -0.5519 -1.3474 -2.6006
  161SOPE   H7S18018   7.344  -0.180   9.710  0.8081  0.9119  0.6310
  161SOPE   C2818019   7.209  -0.015   9.657 -0.1612 -0.6307  0.2236
  161SOPE   H8R18020   7.124  -0.071   9.702  0.6420  0.0451  2.7326
  161SOPE   H8S18021   7.181   0.088   9.688 -2.3132 -0.8848 -0.7227
  161SOPE   C2918022   7.206  -0.021   9.509  0.1529  0.8626  0.6457
  161SOPE   H9118023   7.289   0.038   9.468 -0.0929  1.1960  0.6242
  161SOPE  C21018024   7.129  -0.099   9.430  0.2126  0.0156  0.3745
  161SOPE  H10118025   7.130  -0.076   9.323 -0.7751 -3.4868 -0.5137
  161SOPE  C21118026   7.022  -0.195   9.464 -0.3447 -0.2768 -0.1878
  161SOPE  H11R18027   6.951  -0.144   9.532  0.3229  0.3042  0.0842
  161SOPE  H11S18028   7.066  -0.275   9.528  1.1011  0.1584 -0.5839
  161SOPE  C21218029   6.952  -0.262   9.345  0.1438 -0.6150  0.1725
  161SOPE  H12R18030   6.910  -0.176   9.288 -1.3419  0.1949  2.3647
  161SOPE  H12S18031   6.867  -0.330   9.366 -1.8152  2.3036  2.5622
  161SOPE  C21318032   7.044  -0.338   9.246  0.0449  0.0056 -0.0704
  161SOPE  H13R18033   7.121  -0.265   9.212  0.9450 -0.1109  1.6164
  161SOPE  H13S18034   6.996  -0.373   9.152 -2.7892 -0.1461  1.3237
  161SOPE  C21418035   7.106  -0.459   9.310  0.6230 -0.4069  0.2616
  161SOPE  H14R18036   7.034  -0.542   9.294  3.1000 -2.4986 -0.8732
  161SOPE  H14S18037   7.125  -0.442   9.418 -0.0319  0.9394  0.1784
  161SOPE  C21518038   7.238  -0.516   9.249  0.6430 -0.6014  0.4588
  161SOPE  H15R18039   7.264  -0.612   9.297 -0.0588 -1.7755 -1.4170
  161SOPE  H15S18040   7.319  -0.441   9.258  3.4136 -3.2616 -0.7183
  161SOPE  C21618041   7.215  -0.543   9.096  0.4539 -0.6815  0.6258
  161SOPE  H16R18042   7.170  -0.459   9.039  1.6199 -0.0027  0.6763
  161SOPE  H16S18043   7.149  -0.630   9.075 -2.2042  1.5503 -1.0457
  161SOPE  C21718044   7.348  -0.564   9.013  0.6840  0.2193 -0.3048
  161SOPE  H17R18045   7.399  -0.651   9.061 -0.5644 -0.0113  0.6536
  161SOPE  H17S18046   7.426  -0.486   9.022  1.8822 -1.1159  1.7595
  161SOPE  C21818047   7.310  -0.591   8.871  0.0687  0.2258 -0.2628
  161SOPE  H18R18048   7.398  -0.625   8.812  1.2450  1.9779  0.4021
  161SOPE  H18S18049   7.275  -0.498   8.822 -0.0467  0.2786 -0.0815
  161SOPE  H18T18050   7.233  -0.671   8.868 -0.2425  0.4427  1.1243
  161SOPE   C3318051   6.905   0.448  10.112  0.3673 -0.7591 -0.8662
  161SOPE   H3X18052   7.003   0.496  10.090  0.0560  0.0130 -0.6096
  161SOPE   H3Y18053   6.855   0.497  10.198  1.0416 -0.7166 -0.4892
  161SOPE   C3418054   6.821   0.462   9.979  0.8837 -0.2456 -0.8417
  161SOPE   H4X18055   6.778   0.564   9.970  3.5588  1.0973  0.2295
  161SOPE   H4Y18056   6.737   0.390   9.988  0.3997  0.4284  0.2438
  161SOPE   C3518057   6.892   0.429   9.852  0.4065  0.5585 -0.0221
  161SOPE   H5X18058   6.934   0.327   9.847  0.1414  0.4944 -1.2087
  161SOPE   H5Y18059   6.977   0.499   9.841 -0.3285  1.8304  1.8331
  161SOPE   C3618060   6.804   0.461   9.733 -0.2503 -0.5600  0.3811
  161SOPE   H6X18061   6.786   0.571   9.738  4.7266  0.4931  0.3952
  161SOPE   H6Y18062   6.706   0.409   9.737 -0.3075 -0.5192 -0.4936
  161SOPE   C3718063   6.882   0.432   9.596  0.4233  0.2261 -1.1104
  161SOPE   H7X18064   6.897   0.322   9.601 -0.4242  0.0519 -2.2472
  161SOPE   H7Y18065   6.980   0.486   9.599 -0.1439  1.2659 -0.4943
  161SOPE   C3818066   6.807   0.479   9.467 -0.0220 -0.2078 -0.1151
  161SOPE   H8X18067   6.794   0.589   9.455 -0.2939 -0.3597 -1.4160
  161SOPE   H8Y18068   6.705   0.437   9.474  0.4298 -1.2161  0.7293
  161SOPE   C3918069   6.877   0.440   9.334 -1.2543 -0.1787 -0.3822
  161SOPE   H9X18070   6.895   0.331   9.341  0.9134  0.1294 -0.4270
  161SOPE   H9Y18071   6.971   0.495   9.356 -1.6056  0.7966 -1.2311
  161SOPE  C31018072   6.794   0.479   9.211  0.0606  0.6706  0.4835
  161SOPE  H10X18073   6.764   0.586   9.215 -0.0753  0.6615 -0.1430
  161SOPE  H10Y18074   6.709   0.407   9.215  0.3242  0.4060  1.3972
  161SOPE  C31118075   6.888   0.462   9.088 -0.5274 -0.1638 -0.0108
  161SOPE  H11X18076   6.912   0.354   9.093 -2.7943 -0.6936  0.5393
  161SOPE  H11Y18077   6.985   0.514   9.107 -0.4797  0.0458 -0.8175
  161SOPE  C31218078   6.832   0.506   8.956  0.5015 -0.1153 -0.2616
  161SOPE  H12X18079   6.732   0.458   8.947  0.1602  0.2202  1.3330
  161SOPE  H12Y18080   6.900   0.484   8.871 -1.2984  0.9277 -2.0462
  161SOPE  C31318081   6.816   0.656   8.970 -0.3716  0.0382 -0.3825
  161SOPE  H13X18082   6.913   0.699   9.002  0.0985 -0.2325 -1.3921
  161SOPE  H13Y18083   6.746   0.692   9.048  2.3297  1.1822  1.6420
  161SOPE  C31418084   6.789   0.716   8.831  0.3885 -0.0677  0.2865
  161SOPE  H14X18085   6.867   0.675   8.764 -0.0520 -0.4441 -0.0028
  161SOPE  H14Y18086   6.777   0.826   8.830  0.8191 -0.0202 -0.1128
  161SOPE  C31518087   6.656   0.660   8.775 -0.3388 -0.3806  0.0994
  161SOPE  H15X18088   6.582   0.668   8.858  0.3394 -2.0439  0.9264
  161SOPE  H15Y18089   6.648   0.552   8.752 -0.1967 -0.2334 -0.6418
  161SOPE  C31618090   6.604   0.752   8.659 -0.1604 -0.4327 -0.6294
  161SOPE  H16X18091   6.664   0.740   8.566  0.6961  1.7517 -0.3984
  161SOPE  H16Y18092   6.605   0.857   8.695 -1.8146 -0.1521 -1.3148
  161SOPE  C31718093   6.460   0.706   8.617 -0.0873 -0.2540  0.4499
  161SOPE  H17X18094   6.382   0.732   8.693  0.8143  1.7297  0.7744
  161SOPE  H17Y18095   6.448   0.597   8.599  0.2698 -0.4522  1.3686
  161SOPE  C31818096   6.406   0.787   8.498 -0.0327 -0.4505 -0.3387
  161SOPE  H18X18097   6.482   0.796   8.417 -0.1066 -1.8309 -0.6003
  161SOPE  H18Y18098   6.370   0.888   8.528 -2.2285 -1.0720 -0.6826
  161SOPE  H18Z18099   6.310   0.744   8.463 -0.3668 -0.9881  1.1797
  162SOPE     N18100   6.710   6.062  10.945  0.3295 -0.4088  0.1692
  162SOPE   HN118101   6.697   6.159  10.910 -0.7408 -0.9573 -1.0233
  162SOPE   HN218102   6.625   6.005  10.925 -0.3631  0.1376  1.4355
  162SOPE   HN318103   6.707   6.064  11.049  1.1408  1.5478  0.1991
  162SOPE   C1218104   6.835   5.989  10.898  0.1687 -0.3515 -0.7056
  162SOPE  H12A18105   6.921   6.054  10.927  0.5633 -0.0748 -2.3665
  162SOPE  H12B18106   6.840   5.985  10.787  1.0030  0.6826 -0.7243
  162SOPE   C1118107   6.853   5.837  10.943 -0.4779 -0.5475 -0.4056
  162SOPE  H11A18108   6.917   5.782  10.871 -0.2899 -0.3991 -0.3531
  162SOPE  H11B18109   6.753   5.788  10.949 -0.9940  0.6161  1.7871
  162SOPE     P18110   6.916   5.703  11.155 -0.1165 -0.0458  0.0805
  162SOPE   O1318111   6.777   5.649  11.164 -0.6247  0.1051 -0.7379
  162SOPE   O1418112   6.984   5.733  11.281 -0.1801 -0.1254  0.4829
  162SOPE   O1218113   6.912   5.833  11.073  0.2058  0.4098 -0.2591
  162SOPE   O1118114   6.996   5.600  11.067 -0.2057  0.5196 -0.4670
  162SOPE    C118115   7.112   5.628  10.991  0.0908  1.0571  0.3680
  162SOPE    HA18116   7.198   5.623  11.060  0.0384  0.7243  0.4146
  162SOPE    HB18117   7.107   5.723  10.934 -0.3167  1.4551  1.0603
  162SOPE    C218118   7.136   5.515  10.882 -0.6763 -0.2430 -0.9614
  162SOPE    HS18119   7.232   5.542  10.834 -0.5144  1.2187  0.1211
  162SOPE   O2118120   7.032   5.501  10.788  0.4967  0.2481  0.2725
  162SOPE   C2118121   7.024   5.604  10.707 -0.2139  0.2052  0.6206
  162SOPE   O2218122   7.101   5.703  10.709 -0.1041  0.2856  0.0231
  162SOPE   C2218123   6.908   5.580  10.607  0.5629  0.4066 -0.2976
  162SOPE   H2R18124   6.819   5.566  10.672  1.4993  1.3749  1.2589
  162SOPE   H2S18125   6.924   5.485  10.551  1.0168  0.8650 -0.9644
  162SOPE    C318126   7.157   5.382  10.953 -0.9265  0.5092 -0.4856
  162SOPE    HX18127   7.070   5.343  11.010 -0.2171  0.2792  0.4767
  162SOPE    HY18128   7.235   5.390  11.032 -1.7310  1.6171  0.2124
  162SOPE   O3118129   7.187   5.286  10.851 -0.1904 -0.8312  0.5701
  162SOPE   C3118130   7.306   5.284  10.798 -0.5058  0.1636  0.0018
  162SOPE   O3218131   7.387   5.373  10.813  0.0113  0.1037 -0.2697
  162SOPE   C3218132   7.317   5.175  10.690 -0.2044 -0.0980  0.1331
  162SOPE   H2X18133   7.229   5.108  10.680  0.5641 -1.0882 -0.1501
  162SOPE   H2Y18134   7.406   5.114  10.714  0.7255  0.7597 -1.0132
  162SOPE   C2318135   6.884   5.687  10.497  0.7036  0.5308 -0.5311
  162SOPE   H3R18136   6.969   5.670  10.428 -0.2797 -0.4190 -1.5626
  162SOPE   H3S18137   6.884   5.785  10.548  0.0707  0.8427 -1.1127
  162SOPE   C2418138   6.753   5.683  10.416  0.1752  0.2896  1.0728
  162SOPE   H4R18139   6.667   5.691  10.486 -1.0073 -0.2622 -0.2498
  162SOPE   H4S18140   6.729   5.773  10.357 -4.6038  0.0638  2.2170
  162SOPE   C2518141   6.747   5.554  10.335  0.0769 -0.2660 -0.3167
  162SOPE   H5R18142   6.847   5.548  10.286  0.0330 -0.9419 -0.3449
  162SOPE   H5S18143   6.744   5.472  10.410  0.6904  0.4266  0.4879
  162SOPE   C2618144   6.641   5.549  10.214  0.4421 -0.4476  0.3501
  162SOPE   H6R18145   6.637   5.643  10.155 -4.3476 -2.3000 -2.8872
  162SOPE   H6S18146   6.667   5.466  10.145 -2.0556 -1.4298  0.4682
  162SOPE   C2718147   6.498   5.526  10.263  0.0548 -0.0955  0.1900
  162SOPE   H7R18148   6.503   5.434  10.325  0.3498 -1.1454 -1.3271
  162SOPE   H7S18149   6.468   5.614  10.324 -1.1459 -0.8249  0.6931
  162SOPE   C2818150   6.402   5.501  10.148 -0.0001  0.5951  0.3242
  162SOPE   H8R18151   6.395   5.573  10.064 -1.2699 -1.0006 -1.0006
  162SOPE   H8S18152   6.430   5.407  10.094  0.4256  0.7894  0.2016
  162SOPE   C2918153   6.258   5.482  10.207 -0.5448  0.7839  0.8659
  162SOPE   H9118154   6.200   5.572  10.231 -0.9163  0.5263  0.9447
  162SOPE  C21018155   6.198   5.363  10.241  0.1032  0.5853  0.1623
  162SOPE  H10118156   6.091   5.364  10.265  0.0342 -0.8174 -0.0326
  162SOPE  C21118157   6.257   5.225  10.234  0.6861 -0.5318 -0.2522
  162SOPE  H11R18158   6.235   5.185  10.336 -0.1260  2.0586  0.6712
  162SOPE  H11S18159   6.368   5.233  10.229  0.5678  0.8477 -1.1851
  162SOPE  C21218160   6.199   5.143  10.116 -0.1528 -0.9166  0.0009
  162SOPE  H12R18161   6.090   5.121  10.122 -0.2348 -2.6353 -4.3246
  162SOPE  H12S18162   6.250   5.045  10.120  1.0447 -0.2764  1.8616
  162SOPE  C21318163   6.233   5.190   9.969 -0.3851  0.0385 -0.5996
  162SOPE  H13R18164   6.344   5.199   9.967 -0.2075 -1.6748 -0.5804
  162SOPE  H13S18165   6.189   5.292   9.971  0.5218  0.5040 -2.6271
  162SOPE  C21418166   6.165   5.096   9.869  0.0966 -0.4395  0.1765
  162SOPE  H14R18167   6.058   5.111   9.895  0.0862  0.7020 -0.4472
  162SOPE  H14S18168   6.203   4.992   9.877 -0.9738 -0.9170 -0.6049
  162SOPE  C21518169   6.197   5.146   9.724  0.4209 -0.0774  0.1659
  162SOPE  H15R18170   6.302   5.121   9.697 -0.5910 -3.6380 -0.9261
  162SOPE  H15S18171   6.173   5.255   9.720 -0.2463 -0.2186  0.1587
  162SOPE  C21618172   6.106   5.073   9.623  0.0024 -0.3632 -0.1982
  162SOPE  H16R18173   6.004   5.085   9.666  0.3619 -0.3029  0.6584
  162SOPE  H16S18174   6.116   4.962   9.626  0.1569 -0.3366  2.1532
  162SOPE  C21718175   6.130   5.135   9.484  0.8630 -0.0425 -0.1023
  162SOPE  H17R18176   6.239   5.143   9.465  0.6813  0.9287 -0.8425
  162SOPE  H17S18177   6.075   5.231   9.494 -1.0373 -0.9652 -1.1837
  162SOPE  C21818178   6.073   5.049   9.381  0.0254 -0.2488 -0.0299
  162SOPE  H18R18179   6.120   5.066   9.282 -0.1789  1.6954  0.1708
  162SOPE  H18S18180   5.964   5.071   9.370  0.1400  0.3411 -0.0043
  162SOPE  H18T18181   6.080   4.944   9.417 -1.1679 -0.1201  0.6424
  162SOPE   C3318182   7.343   5.250  10.554 -0.1829  0.2290  0.5576
  162SOPE   H3X18183   7.362   5.170  10.479  1.2393 -0.1724  1.3099
  162SOPE   H3Y18184   7.436   5.312  10.554  0.0473 -0.0624 -0.9114
  162SOPE   C3418185   7.226   5.329  10.493 -0.6907  0.6805  0.6050
  162SOPE   H4X18186   7.222   5.431  10.537  0.3291  0.6713  0.7393
  162SOPE   H4Y18187   7.125   5.293  10.523 -0.5087  0.3586  0.8467
  162SOPE   C3518188   7.237   5.343  10.339 -0.4430  0.4445  0.2058
  162SOPE   H5X18189   7.288   5.252  10.302 -2.5986 -1.8209  2.4311
  162SOPE   H5Y18190   7.302   5.432  10.324  0.2807  0.3990  2.5595
  162SOPE   C3618191   7.108   5.358  10.270 -0.6061 -0.2682 -0.1156
  162SOPE   H6X18192   7.047   5.443  10.308 -0.3483 -0.0151 -0.2614
  162SOPE   H6Y18193   7.051   5.263  10.277  0.9691 -1.3939 -1.5557
  162SOPE   C3718194   7.114   5.375  10.120 -0.0815 -0.5737  0.2217
  162SOPE   H7X18195   7.162   5.286  10.073 -1.8909 -0.7370 -1.4402
  162SOPE   H7Y18196   7.183   5.458  10.096 -0.2311 -0.4967  0.0571
  162SOPE   C3818197   6.975   5.395  10.057 -0.3868  0.5274  0.5290
  162SOPE   H8X18198   6.923   5.479  10.108  2.1298  0.6066  3.1765
  162SOPE   H8Y18199   6.903   5.311  10.060 -1.3262  1.2480 -0.8078
  162SOPE   C3918200   6.985   5.440   9.905  0.2767 -0.7486 -0.5581
  162SOPE   H9X18201   7.037   5.357   9.852  0.2263 -0.2018 -1.4978
  162SOPE   H9Y18202   7.057   5.525   9.908 -1.1402  0.5298 -1.0820
  162SOPE  C31018203   6.850   5.476   9.846 -0.5350  0.1162 -0.3243
  162SOPE  H10X18204   6.787   5.528   9.922 -1.3039 -0.8141 -0.3087
  162SOPE  H10Y18205   6.786   5.390   9.816 -0.5829 -0.1622  0.5627
  162SOPE  C31118206   6.870   5.589   9.738  0.6980 -0.3058 -0.6957
  162SOPE  H11X18207   6.918   5.673   9.792 -2.4310 -0.0555  2.0533
  162SOPE  H11Y18208   6.774   5.630   9.700  0.7797  0.0737 -0.4877
  162SOPE  C31218209   6.953   5.549   9.620 -0.4167 -0.5138  0.2029
  162SOPE  H12X18210   6.905   5.467   9.562  2.1350 -2.4369  0.6157
  162SOPE  H12Y18211   7.054   5.510   9.646  0.8766  2.0257 -0.6830
  162SOPE  C31318212   6.975   5.659   9.520  0.7159 -0.4973  0.0635
  162SOPE  H13X18213   7.008   5.749   9.578 -0.2041 -0.3700  0.3974
  162SOPE  H13Y18214   6.873   5.677   9.480  0.2651 -2.7473  0.0627
  162SOPE  C31418215   7.080   5.631   9.414 -0.3399 -0.2736  0.7872
  162SOPE  H14X18216   7.076   5.523   9.391  5.0511 -0.6431  0.2952
  162SOPE  H14Y18217   7.183   5.649   9.452  0.4776  0.0231 -1.4000
  162SOPE  C31518218   7.060   5.706   9.282 -0.5027  0.0032  0.3543
  162SOPE  H15X18219   7.139   5.781   9.263 -2.0296  1.6743  0.3546
  162SOPE  H15Y18220   6.966   5.763   9.299  1.1097  2.1247  2.9725
  162SOPE  C31618221   7.052   5.610   9.159 -0.0991  0.3327  0.5528
  162SOPE  H16X18222   6.980   5.529   9.183  1.0498 -1.4258 -1.6055
  162SOPE  H16Y18223   7.151   5.568   9.132 -0.3224 -1.2740  2.1109
  162SOPE  C31718224   6.992   5.678   9.034 -0.8788  0.3823 -0.8146
  162SOPE  H17X18225   7.047   5.771   9.007 -1.4974  0.2475 -2.6856
  162SOPE  H17Y18226   6.884   5.699   9.051 -0.8576 -1.5885  2.6186
  162SOPE  C31818227   6.997   5.595   8.906  0.0080  0.2285 -1.0431
  162SOPE  H18X18228   6.940   5.502   8.927 -0.1867  0.6277  0.3242
  162SOPE  H18Y18229   7.102   5.566   8.888  0.0648 -0.4635  0.2705
  162SOPE  H18Z18230   6.958   5.639   8.812  1.3772  0.7758 -1.3807
  163SOPE     N18231   4.813   2.654  10.900  0.9311  0.5673  0.3621
  163SOPE   HN118232   4.886   2.647  10.827 -1.5488 -1.0560 -2.1957
  163SOPE   HN218233   4.839   2.713  10.982  1.5101  2.5977 -1.1965
  163SOPE   HN318234   4.796   2.560  10.941 -0.4127  0.0181 -1.3237
  163SOPE   C1218235   4.699   2.711  10.822  0.4229 -0.1089 -0.3441
  163SOPE  H12A18236   4.613   2.720  10.892 -0.1147 -0.2675 -0.9683
  163SOPE  H12B18237   4.661   2.650  10.737  0.4115 -3.2915  1.7906
  163SOPE   C1118238   4.745   2.844  10.769  0.1326  0.6454 -0.0791
  163SOPE  H11A18239   4.658   2.885  10.714 -2.0158  2.3793  4.1350
  163SOPE  H11B18240   4.836   2.821  10.709 -0.2534  0.3789 -0.5671
  163SOPE     P18241   4.903   3.030  10.868  0.2381  0.0420 -0.6318
  163SOPE   O1318242   5.022   2.951  10.902 -0.0416 -0.1647 -0.4074
  163SOPE   O1418243   4.867   3.144  10.956 -0.1328 -0.1309 -0.0201
  163SOPE   O1218244   4.772   2.940  10.875 -0.3303  0.2213 -0.1503
  163SOPE   O1118245   4.919   3.081  10.719 -0.1365 -0.0994  0.7650
  163SOPE    C118246   4.819   3.166  10.670  0.4954  0.2695 -0.1187
  163SOPE    HA18247   4.831   3.266  10.719 -1.9069  0.9661 -0.8384
  163SOPE    HB18248   4.720   3.122  10.693  1.7628 -2.7691 -0.0093
  163SOPE    C218249   4.830   3.184  10.516  0.2307 -0.3620 -0.1149
  163SOPE    HS18250   4.743   3.244  10.483  0.9867  1.7145  1.4139
  163SOPE   O2118251   4.834   3.063  10.441  0.1696 -0.3747 -0.3649
  163SOPE   C2118252   4.716   2.993  10.442 -0.6684 -0.6517 -0.3444
  163SOPE   O2218253   4.617   3.031  10.503 -0.1268  0.0853 -0.1188
  163SOPE   C2218254   4.715   2.858  10.369  0.3846  0.4067 -0.1344
  163SOPE   H2R18255   4.609   2.825  10.375  0.8270 -0.8056  1.9845
  163SOPE   H2S18256   4.769   2.781  10.428  2.0342  2.6037  1.3293
  163SOPE    C318257   4.957   3.265  10.494 -0.0314 -0.1706 -0.0261
  163SOPE    HX18258   5.036   3.193  10.528  0.3040  1.5961  3.4300
  163SOPE    HY18259   4.965   3.345  10.571 -2.3605  1.3533 -1.2787
  163SOPE   O3118260   4.975   3.302  10.356  0.1504  0.5192  0.2489
  163SOPE   C3118261   4.916   3.422  10.335  0.2929 -0.1414  0.9064
  163SOPE   O3218262   4.862   3.490  10.422 -0.1765  0.0284  0.1131
  163SOPE   C3218263   4.911   3.457  10.190 -0.1805 -0.1767  0.2708
  163SOPE   H2X18264   4.842   3.384  10.142 -1.0504  2.3188 -2.6251
  163SOPE   H2Y18265   5.017   3.451  10.156 -0.0975 -1.7957  0.7408
  163SOPE   C2318266   4.777   2.878  10.223  0.0145  0.0100 -0.4923
  163SOPE   H3R18267   4.787   2.772  10.188 -0.6809  0.0030 -0.6885
  163SOPE   H3S18268   4.883   2.908  10.232 -0.1639  0.2555  1.0960
  163SOPE   C2418269   4.683   2.955  10.128 -0.0195 -0.3176 -0.5160
  163SOPE   H4R18270   4.583   2.907  10.133 -0.1056 -0.0712  0.1660
  163SOPE   H4S18271   4.676   3.059  10.166 -1.3623 -0.2542 -0.9096
  163SOPE   C2518272   4.737   2.964   9.984  0.1766 -0.2034 -0.7933
  163SOPE   H5R18273   4.846   2.985   9.988  0.2128  0.0317 -2.4052
  163SOPE   H5S18274   4.747   2.859   9.951 -0.7255 -0.8258  0.8091
  163SOPE   C2618275   4.653   3.063   9.897  0.5509 -0.3239 -0.4866
  163SOPE   H6R18276   4.547   3.028   9.898  0.6207 -0.5680  0.6667
  163SOPE   H6S18277   4.662   3.167   9.934  1.1614  0.5664 -2.9930
  163SOPE   C2718278   4.697   3.067   9.749 -0.1637  0.2445  0.0052
  163SOPE   H7R18279   4.781   3.139   9.745  1.6628 -1.7198  1.1942
  163SOPE   H7S18280   4.743   2.970   9.720 -0.1208 -0.8941  3.3662
  163SOPE   C2818281   4.581   3.115   9.653  0.7003  0.1743 -0.5776
  163SOPE   H8R18282   4.500   3.040   9.664  1.1666 -0.1213  1.1412
  163SOPE   H8S18283   4.551   3.215   9.690  0.2284  0.2561 -1.1725
  163SOPE   C2918284   4.635   3.121   9.504  0.5352 -0.5669 -0.4505
  163SOPE   H9118285   4.701   3.208   9.491 -2.4122  1.9729  0.4172
  163SOPE  C21018286   4.610   3.035   9.400 -0.0632 -0.0525  0.7709
  163SOPE  H10118287   4.646   3.063   9.300 -0.2283  2.2196  1.2941
  163SOPE  C21118288   4.515   2.919   9.393 -0.0675 -0.5363  0.2930
  163SOPE  H11R18289   4.466   2.910   9.492  0.6383  2.1925  0.9542
  163SOPE  H11S18290   4.565   2.824   9.363  1.3647 -0.0041  0.9198
  163SOPE  C21218291   4.396   2.952   9.298  0.1227 -0.1992 -0.0321
  163SOPE  H12R18292   4.345   3.044   9.335 -0.6432 -0.0709 -1.3388
  163SOPE  H12S18293   4.317   2.875   9.306  1.8627 -1.9911  0.6443
  163SOPE  C21318294   4.421   2.979   9.146  0.1952  0.4507  0.1247
  163SOPE  H13R18295   4.417   2.876   9.103 -0.0564  0.1292  0.8876
  163SOPE  H13S18296   4.520   3.029   9.135  0.4005  0.6562  2.3735
  163SOPE  C21418297   4.314   3.073   9.091  0.3399  0.5370  0.3139
  163SOPE  H14R18298   4.341   3.102   8.987 -2.6102 -0.9390 -1.0046
  163SOPE  H14S18299   4.312   3.166   9.151  0.8297  0.9409 -0.2859
  163SOPE  C21518300   4.173   3.012   9.089  0.2431 -0.6006  0.6407
  163SOPE  H15R18301   4.132   3.020   9.193  0.1912 -0.1999  0.5936
  163SOPE  H15S18302   4.182   2.907   9.056 -1.0136 -0.1537 -1.2916
  163SOPE  C21618303   4.074   3.081   8.988 -0.3639  0.1500  0.2852
  163SOPE  H16R18304   4.071   3.192   9.002 -0.8152  0.2540 -0.5575
  163SOPE  H16S18305   3.975   3.045   9.024  0.3727 -0.2920  1.9730
  163SOPE  C21718306   4.081   3.037   8.838  0.1387  0.0418  0.1727
  163SOPE  H17R18307   4.180   3.073   8.803  0.4773  0.2454  1.3027
  163SOPE  H17S18308   4.012   3.104   8.784  0.2381  0.3181  0.3882
  163SOPE  C21818309   4.049   2.892   8.798  0.6631  0.0863  0.1300
  163SOPE  H18R18310   4.093   2.867   8.699  2.0121  0.8987  0.4970
  163SOPE  H18S18311   3.939   2.880   8.785  0.7755 -0.3228 -0.4746
  163SOPE  H18T18312   4.096   2.822   8.869  1.4052 -0.5430 -0.9498
  163SOPE   C3318313   4.862   3.610  10.172  0.7351  0.0205  0.1389
  163SOPE   H3X18314   4.916   3.681  10.239  2.6115  1.4742 -2.7118
  163SOPE   H3Y18315   4.752   3.611  10.185  0.5241 -2.5926 -0.8330
  163SOPE   C3418316   4.899   3.663  10.027 -0.6288  0.0534 -1.1253
  163SOPE   H4X18317   5.008   3.646  10.016 -0.9208 -1.5105 -1.9526
  163SOPE   H4Y18318   4.869   3.769  10.021 -0.9307 -0.0414 -1.3679
  163SOPE   C3518319   4.826   3.586   9.915  0.2718  0.1080 -0.3200
  163SOPE   H5X18320   4.721   3.624   9.918 -0.1002 -0.8076 -1.0514
  163SOPE   H5Y18321   4.809   3.480   9.943 -0.3053  0.2939  0.0572
  163SOPE   C3618322   4.889   3.597   9.778 -0.2934 -0.6989  0.0296
  163SOPE   H6X18323   4.978   3.530   9.775 -0.2446 -0.7580  1.8578
  163SOPE   H6Y18324   4.933   3.697   9.756  4.3131 -2.4097  0.2480
  163SOPE   C3718325   4.796   3.550   9.664  0.8901 -0.3599 -0.4894
  163SOPE   H7X18326   4.705   3.613   9.653  0.1727 -1.6295 -2.3870
  163SOPE   H7Y18327   4.772   3.445   9.693 -0.4531  0.3473  1.1693
  163SOPE   C3818328   4.863   3.542   9.529 -0.6012  0.5665  0.2672
  163SOPE   H8X18329   4.920   3.447   9.520 -0.4040  0.3600  2.8204
  163SOPE   H8Y18330   4.940   3.620   9.508  2.2135 -1.9314  0.5763
  163SOPE   C3918331   4.758   3.546   9.415  0.2853  0.4910  0.5368
  163SOPE   H9X18332   4.712   3.647   9.426 -0.3892  0.1390  1.0056
  163SOPE   H9Y18333   4.691   3.459   9.430 -0.4783  0.7963 -0.8831
  163SOPE  C31018334   4.805   3.519   9.266 -1.1551  0.1319 -0.2485
  163SOPE  H10X18335   4.721   3.553   9.201  0.0487  1.6122 -1.1077
  163SOPE  H10Y18336   4.810   3.409   9.256 -0.1460 -0.1887  2.8915
  163SOPE  C31118337   4.929   3.593   9.224  0.3499  0.3329 -0.5091
  163SOPE  H11X18338   5.017   3.548   9.274  0.8803 -0.0093 -1.7049
  163SOPE  H11Y18339   4.917   3.702   9.245 -0.5826  0.3645 -1.1412
  163SOPE  C31218340   4.964   3.589   9.074  0.1347  0.4583 -0.1049
  163SOPE  H12X18341   4.876   3.614   9.011 -0.5349 -3.4889 -1.0508
  163SOPE  H12Y18342   4.983   3.484   9.043  0.5120  0.0443  1.4262
  163SOPE  C31318343   5.085   3.675   9.036 -0.0218 -0.0826 -0.0322
  163SOPE  H13X18344   5.167   3.614   9.079  0.4918 -0.0235 -0.9220
  163SOPE  H13Y18345   5.061   3.770   9.090  0.3433  1.1883 -2.0169
  163SOPE  C31418346   5.105   3.699   8.880  1.0984  0.0033  0.2569
  163SOPE  H14X18347   5.014   3.745   8.835  0.8813 -0.4632  0.2136
  163SOPE  H14Y18348   5.119   3.610   8.815 -1.5799 -0.7156  0.5248
  163SOPE  C31518349   5.216   3.804   8.861 -0.6907  0.6403  0.4869
  163SOPE  H15X18350   5.251   3.790   8.756  1.1564 -3.9325  1.4952
  163SOPE  H15Y18351   5.309   3.780   8.917  0.6647  2.6869 -0.7253
  163SOPE  C31618352   5.185   3.955   8.885  0.1119 -0.3306  0.6413
  163SOPE  H16X18353   5.140   3.968   8.986  0.3887  1.7324  0.5442
  163SOPE  H16Y18354   5.105   3.974   8.810 -1.1034  1.5350  2.2874
  163SOPE  C31718355   5.306   4.053   8.875  0.1322 -0.0166 -0.0771
  163SOPE  H17X18356   5.356   4.051   8.776 -1.0091 -1.3621 -0.6533
  163SOPE  H17Y18357   5.380   4.039   8.958 -1.3506 -1.3368  1.0868
  163SOPE  C31818358   5.266   4.198   8.885 -0.4517  0.1289 -0.3516
  163SOPE  H18X18359   5.253   4.228   8.992  3.0491 -0.5045  0.3894
  163SOPE  H18Y18360   5.179   4.216   8.819  0.3527  0.7433 -1.2711
  163SOPE  H18Z18361   5.347   4.261   8.842 -0.4749 -0.4289 -1.2162
  164SOPE     N18362   2.134   2.584  11.005  0.2494 -0.0455  0.4335
  164SOPE   HN118363   2.236   2.586  10.984  0.2807  1.7280  0.6112
  164SOPE   HN218364   2.114   2.685  11.018 -1.9809 -0.4372  0.3829
  164SOPE   HN318365   2.110   2.535  11.094  0.2069 -0.4180  0.2185
  164SOPE   C1218366   2.065   2.516  10.893  0.1523  0.3262  0.2815
  164SOPE  H12A18367   2.065   2.584  10.805 -1.3723 -1.4058 -1.1548
  164SOPE  H12B18368   1.962   2.493  10.928  0.1887  1.1495  0.9616
  164SOPE   C1118369   2.136   2.382  10.876 -0.1522  0.5965 -0.0527
  164SOPE  H11A18370   2.082   2.326  10.796  1.0381 -2.4366  1.1297
  164SOPE  H11B18371   2.117   2.312  10.961 -2.3900  0.0977 -0.8919
  164SOPE     P18372   2.360   2.291  10.755  0.2055 -0.1992 -0.2798
  164SOPE   O1318373   2.489   2.259  10.816 -0.3690 -0.7810 -0.3982
  164SOPE   O1418374   2.360   2.358  10.626  0.2447  0.2799  0.0552
  164SOPE   O1218375   2.277   2.382  10.854 -0.3902 -0.5505 -0.0730
  164SOPE   O1118376   2.286   2.158  10.750  0.9175  0.1455 -0.1885
  164SOPE    C118377   2.313   2.059  10.657 -0.0907  1.0935  0.9603
  164SOPE    HA18378   2.270   1.962  10.691 -1.0118  1.3484  0.5477
  164SOPE    HB18379   2.422   2.037  10.647 -0.0597  1.9583 -0.8905
  164SOPE    C218380   2.241   2.088  10.519 -0.4228  0.6282 -0.0820
  164SOPE    HS18381   2.307   2.160  10.465  0.1554  0.0682 -0.1391
  164SOPE   O2118382   2.112   2.150  10.553  0.1236  0.0524 -0.1623
  164SOPE   C2118383   2.075   2.244  10.469 -1.0772  0.1808 -1.4372
  164SOPE   O2218384   2.137   2.279  10.370 -0.5121 -0.1766  0.1254
  164SOPE   C2218385   1.936   2.290  10.508  0.2298 -0.0906  0.5109
  164SOPE   H2R18386   1.935   2.396  10.544  0.1385  0.1336 -0.1332
  164SOPE   H2S18387   1.894   2.247  10.601 -0.9070 -0.3849 -0.1213
  164SOPE    C318388   2.219   1.958  10.435 -0.4347 -0.3407 -0.3604
  164SOPE    HX18389   2.138   1.907  10.492 -0.1101  1.5567  1.9635
  164SOPE    HY18390   2.308   1.893  10.448 -0.3727  0.1707  2.4791
  164SOPE   O3118391   2.173   1.987  10.305 -0.9071 -0.3891  0.3232
  164SOPE   C3118392   2.280   2.005  10.220 -0.3385  0.6826  0.2735
  164SOPE   O3218393   2.398   1.975  10.243  0.6379  0.1071  0.0119
  164SOPE   C3218394   2.236   2.082  10.094  0.4488  0.2328 -0.6786
  164SOPE   H2X18395   2.201   2.183  10.124  3.5559  1.2307 -0.0647
  164SOPE   H2Y18396   2.139   2.035  10.068  0.5058 -1.9619  2.4473
  164SOPE   C2318397   1.827   2.275  10.394 -0.4488 -0.2702  0.2551
  164SOPE   H3R18398   1.735   2.314  10.442  0.2596  0.3302  1.1626
  164SOPE   H3S18399   1.816   2.167  10.371 -2.5165 -0.6128  2.4276
  164SOPE   C2418400   1.843   2.364  10.268 -0.3343 -0.0545 -0.7953
  164SOPE   H4R18401   1.812   2.464  10.303 -1.6407 -1.4318  2.4134
  164SOPE   H4S18402   1.951   2.374  10.244  0.6283  0.1943  2.8935
  164SOPE   C2518403   1.765   2.319  10.149 -0.4421 -0.3919  0.2482
  164SOPE   H5R18404   1.806   2.217  10.130  0.8163 -0.0947  1.2277
  164SOPE   H5S18405   1.655   2.314  10.164 -0.5240 -0.9943 -0.4409
  164SOPE   C2618406   1.796   2.402  10.024 -0.2467 -0.0314  0.8646
  164SOPE   H6R18407   1.804   2.509  10.056 -0.0893 -0.2886  1.7040
  164SOPE   H6S18408   1.898   2.381   9.985 -0.2394  0.6127  0.5177
  164SOPE   C2718409   1.690   2.395   9.909  0.1457  0.1351  0.1128
  164SOPE   H7R18410   1.678   2.287   9.887 -1.6996  0.6329 -1.6002
  164SOPE   H7S18411   1.595   2.438   9.948 -0.4904 -1.8396  0.8535
  164SOPE   C2818412   1.722   2.475   9.780 -0.1820  0.4947 -0.2885
  164SOPE   H8R18413   1.755   2.578   9.805  4.1730 -0.2481 -2.1288
  164SOPE   H8S18414   1.814   2.431   9.736 -0.0540 -0.6292  1.0457
  164SOPE   C2918415   1.617   2.471   9.668  0.0787 -0.2144 -0.4606
  164SOPE   H9118416   1.563   2.377   9.651 -1.2538  0.4448  0.0234
  164SOPE  C21018417   1.602   2.578   9.581  0.1153  0.3360  0.4866
  164SOPE  H10118418   1.515   2.574   9.513  0.0751  1.9632  0.4165
  164SOPE  C21118419   1.692   2.700   9.577 -0.0484  0.3895  0.2885
  164SOPE  H11R18420   1.794   2.678   9.614  1.6301  2.1341 -2.8527
  164SOPE  H11S18421   1.657   2.781   9.646 -0.0033  1.0023 -0.3967
  164SOPE  C21218422   1.714   2.754   9.440  0.5621 -0.8748 -0.4666
  164SOPE  H12R18423   1.745   2.677   9.366  0.1139  0.4432 -2.1048
  164SOPE  H12S18424   1.795   2.831   9.446  0.1170 -0.2703 -1.8676
  164SOPE  C21318425   1.594   2.822   9.381  0.2826  0.0005  0.2949
  164SOPE  H13R18426   1.529   2.876   9.454  1.6896  0.0158  1.5834
  164SOPE  H13S18427   1.527   2.741   9.345 -0.4334  1.0069 -0.6997
  164SOPE  C21418428   1.628   2.920   9.270  0.8089 -0.8805 -0.0786
  164SOPE  H14R18429   1.702   2.874   9.201 -0.0171 -0.5034 -1.2502
  164SOPE  H14S18430   1.681   3.007   9.315  1.0421  0.3199 -2.5438
  164SOPE  C21518431   1.513   2.963   9.176 -1.0547 -0.1088  0.6051
  164SOPE  H15R18432   1.551   3.043   9.110  0.2524 -0.6535  0.6539
  164SOPE  H15S18433   1.431   3.006   9.237 -0.8976  0.9800  0.0635
  164SOPE  C21618434   1.449   2.844   9.101 -0.1167  0.3035  0.2734
  164SOPE  H16R18435   1.354   2.804   9.142 -0.5058 -0.7238 -1.5105
  164SOPE  H16S18436   1.517   2.757   9.115  0.7504  0.9798  0.3388
  164SOPE  C21718437   1.405   2.868   8.956  0.0550  0.6366  0.6046
  164SOPE  H17R18438   1.484   2.913   8.893 -0.1569 -0.2049 -0.2759
  164SOPE  H17S18439   1.323   2.942   8.970 -0.8462  0.1406 -1.7279
  164SOPE  C21818440   1.366   2.735   8.879  0.0257 -0.4746 -0.3886
  164SOPE  H18R18441   1.322   2.758   8.780  0.3952 -0.0749 -0.4618
  164SOPE  H18S18442   1.304   2.676   8.950 -1.0341 -1.9542 -2.4265
  164SOPE  H18T18443   1.463   2.680   8.867  0.1542  0.0287 -1.8948
  164SOPE   C3318444   2.333   2.078   9.973  0.5373  0.7569  0.0307
  164SOPE   H3X18445   2.433   2.108  10.012  2.1329  0.4848 -3.5367
  164SOPE   H3Y18446   2.301   2.155   9.900 -1.1637  1.1005  1.0878
  164SOPE   C3418447   2.349   1.935   9.922 -0.3366  0.1850  0.8355
  164SOPE   H4X18448   2.249   1.897   9.894 -1.1279  1.7350  1.4558
  164SOPE   H4Y18449   2.394   1.862   9.993  1.8684  0.3201 -0.3305
  164SOPE   C3518450   2.428   1.928   9.791 -0.1615  0.0988 -0.3842
  164SOPE   H5X18451   2.458   1.827   9.756  0.8073  1.0182 -2.3872
  164SOPE   H5Y18452   2.514   1.999   9.792 -1.4043  1.6744 -0.1731
  164SOPE   C3618453   2.343   1.975   9.672  0.6838 -0.3165  0.0385
  164SOPE   H6X18454   2.296   2.074   9.688  1.8754  0.2875 -0.0446
  164SOPE   H6Y18455   2.266   1.896   9.663  0.6838 -0.4448  1.0298
  164SOPE   C3718456   2.428   1.990   9.539  0.3250 -0.3712  0.0117
  164SOPE   H7X18457   2.479   1.897   9.505 -0.2591 -0.9205  0.5975
  164SOPE   H7Y18458   2.512   2.059   9.561 -1.2514  1.1468  1.5902
  164SOPE   C3818459   2.341   2.052   9.419  0.0431  0.0834  0.2875
  164SOPE   H8X18460   2.271   2.129   9.459 -1.6444 -0.6439 -1.1291
  164SOPE   H8Y18461   2.275   1.979   9.369  1.4071 -0.1603 -1.2437
  164SOPE   C3918462   2.433   2.118   9.310  0.0887  0.0111 -0.4186
  164SOPE   H9X18463   2.493   2.187   9.373 -1.5996  1.2230 -0.0541
  164SOPE   H9Y18464   2.376   2.190   9.247  1.7578  1.3801 -0.4483
  164SOPE  C31018465   2.514   2.017   9.235 -0.0481  0.5396 -0.2586
  164SOPE  H10X18466   2.449   1.941   9.186 -1.2632 -1.5066  4.0534
  164SOPE  H10Y18467   2.586   1.968   9.303 -0.1602 -0.3752 -0.7842
  164SOPE  C31118468   2.615   2.087   9.139 -0.4751  0.1317 -0.1564
  164SOPE  H11X18469   2.551   2.141   9.066 -0.3975  0.3300 -0.0790
  164SOPE  H11Y18470   2.669   2.003   9.090 -0.7998  0.0848 -0.4380
  164SOPE  C31218471   2.727   2.163   9.209 -0.1024 -0.5074 -0.1631
  164SOPE  H12X18472   2.777   2.106   9.290  1.5743  1.3037  0.1245
  164SOPE  H12Y18473   2.692   2.252   9.264 -2.1680 -2.5250  2.0435
  164SOPE  C31318474   2.844   2.210   9.120 -0.4871 -0.5384  0.5106
  164SOPE  H13X18475   2.859   2.131   9.042 -0.8729 -0.8038  0.7037
  164SOPE  H13Y18476   2.937   2.233   9.176  0.4771 -2.0339 -0.3790
  164SOPE  C31418477   2.799   2.343   9.040 -0.6734  0.4273  0.5917
  164SOPE  H14X18478   2.793   2.426   9.114  2.3470 -0.6979  2.2676
  164SOPE  H14Y18479   2.697   2.315   9.004 -0.0523  0.6114 -1.4276
  164SOPE  C31518480   2.891   2.372   8.914  0.1231  0.2506 -0.7807
  164SOPE  H15X18481   2.868   2.282   8.853 -1.8261 -0.4941  0.9468
  164SOPE  H15Y18482   2.998   2.370   8.943 -0.7377 -1.7335  2.7552
  164SOPE  C31618483   2.852   2.505   8.851 -0.1909 -1.3862 -0.4076
  164SOPE  H16X18484   2.902   2.585   8.909 -0.8510 -0.9861 -0.3826
  164SOPE  H16Y18485   2.746   2.534   8.863  0.9451  1.7941  4.4732
  164SOPE  C31718486   2.912   2.534   8.717 -0.0777  0.0919  0.3192
  164SOPE  H17X18487   2.866   2.468   8.640 -2.2555 -0.2234  1.8073
  164SOPE  H17Y18488   3.017   2.498   8.711 -0.0931 -0.3685  2.2253
  164SOPE  C31818489   2.903   2.684   8.681 -0.0786 -0.3006  0.8102
  164SOPE  H18X18490   2.968   2.738   8.754 -1.3964  0.3025  1.5990
  164SOPE  H18Y18491   2.799   2.723   8.695  0.0222  2.2870 -3.7366
  164SOPE  H18Z18492   2.935   2.702   8.577 -0.3513 -1.1066  0.5843
  165SOPE     N18493   6.281   1.337  11.007  0.1629 -0.1493 -0.4042
  165SOPE   HN118494   6.200   1.309  10.948 -0.7840 -1.2495  1.3294
  165SOPE   HN218495   6.262   1.287  11.096  2.9533 -0.6109  0.0246
  165SOPE   HN318496   6.276   1.440  11.022  0.0499 -0.2894  0.6071
  165SOPE   C1218497   6.403   1.284  10.944 -0.2385 -0.0433  0.1552
  165SOPE  H12A18498   6.370   1.230  10.853 -0.3785 -1.2372  0.8946
  165SOPE  H12B18499   6.445   1.205  11.010 -1.1555 -0.2968  0.4373
  165SOPE   C1118500   6.500   1.398  10.894  0.0984  0.3035 -0.1956
  165SOPE  H11A18501   6.453   1.450  10.808  1.0648 -0.3288 -1.1460
  165SOPE  H11B18502   6.597   1.358  10.857  0.7206 -1.0942  2.6880
  165SOPE     P18503   6.661   1.474  11.085  0.1871 -0.2231 -0.1575
  165SOPE   O1318504   6.698   1.332  11.099 -0.3789  0.0467 -0.1816
  165SOPE   O1418505   6.665   1.557  11.211  0.0663  0.4888  0.5228
  165SOPE   O1218506   6.522   1.486  11.010 -0.3058  0.4668 -0.0872
  165SOPE   O1118507   6.755   1.542  10.970  0.3818 -0.4352 -0.3228
  165SOPE    C118508   6.744   1.686  10.956  0.1480 -0.4714 -0.1284
  165SOPE    HA18509   6.846   1.726  10.972 -0.1217 -0.2599  1.1781
  165SOPE    HB18510   6.685   1.732  11.039  0.5213 -0.8982  0.3751
  165SOPE    C218511   6.678   1.722  10.824  0.1292  0.1566 -0.3165
  165SOPE    HS18512   6.570   1.697  10.834 -0.1322  0.7993 -1.3361
  165SOPE   O2118513   6.748   1.639  10.727 -0.4793 -0.2607 -0.0377
  165SOPE   C2118514   6.682   1.585  10.637  0.3399 -0.9153 -0.4340
  165SOPE   O2218515   6.564   1.608  10.611  0.6301 -0.5725  0.1920
  165SOPE   C2218516   6.772   1.477  10.571 -0.4272  1.0968  0.1231
  165SOPE   H2R18517   6.694   1.407  10.534  0.2333  0.6692 -0.4703
  165SOPE   H2S18518   6.833   1.434  10.654 -2.8445 -1.2641  0.8260
  165SOPE    C318519   6.698   1.867  10.774  0.5536  0.6840 -0.0976
  165SOPE    HX18520   6.803   1.891  10.799  0.5752 -0.1124  0.5942
  165SOPE    HY18521   6.639   1.934  10.840  2.8483  2.1215  0.6223
  165SOPE   O3118522   6.663   1.889  10.634 -0.2689  0.4535 -0.8143
  165SOPE   C3118523   6.682   2.011  10.599  0.2441 -0.3088  0.0781
  165SOPE   O3218524   6.703   2.103  10.673 -0.4282  0.0316 -0.0056
  165SOPE   C3218525   6.657   2.032  10.447  0.4325  0.4177 -1.1519
  165SOPE   H2X18526   6.563   2.087  10.426  0.2808 -0.0910 -1.8364
  165SOPE   H2Y18527   6.656   1.931  10.400 -0.5056  0.1008 -0.4857
  165SOPE   C2318528   6.864   1.503  10.444 -0.2542  0.9311 -0.5305
  165SOPE   H3R18529   6.902   1.404  10.410  1.2726  1.7207 -1.2426
  165SOPE   H3S18530   6.943   1.570  10.486 -1.6584  0.6736  2.8843
  165SOPE   C2418531   6.792   1.554  10.326  0.4507  1.1608  0.3138
  165SOPE   H4R18532   6.724   1.473  10.291 -0.1538  1.7328  0.1347
  165SOPE   H4S18533   6.726   1.635  10.363  1.6508  2.3316 -0.0555
  165SOPE   C2518534   6.880   1.604  10.214 -0.5967  0.1235  0.5312
  165SOPE   H5R18535   6.926   1.698  10.253 -0.9377  1.1268 -1.3634
  165SOPE   H5S18536   6.949   1.517  10.204  1.4977  1.2890  3.4186
  165SOPE   C2618537   6.819   1.634  10.082  0.2394  0.2905  0.1822
  165SOPE   H6R18538   6.774   1.540  10.043  2.0482  0.3673 -2.3773
  165SOPE   H6S18539   6.746   1.717  10.094  1.5384  1.3837  0.8126
  165SOPE   C2718540   6.934   1.670   9.988 -0.7744  0.1027  0.0429
  165SOPE   H7R18541   6.998   1.739  10.047  2.1326 -1.7388 -0.7393
  165SOPE   H7S18542   6.996   1.582   9.961 -0.9049  0.5591 -1.9323
  165SOPE   C2818543   6.888   1.738   9.856 -0.7658  0.1173  0.1921
  165SOPE   H8R18544   6.820   1.821   9.886  0.7096  1.1937  0.7127
  165SOPE   H8S18545   6.979   1.775   9.804 -0.0113 -0.9851  0.7057
  165SOPE   C2918546   6.819   1.637   9.773  0.8168 -0.0735  0.9149
  165SOPE   H9118547   6.814   1.531   9.802 -1.8939 -0.0695  0.7255
  165SOPE  C21018548   6.770   1.664   9.652  0.8309  0.1653 -0.4000
  165SOPE  H10118549   6.730   1.584   9.587 -1.3722 -0.5487  1.7119
  165SOPE  C21118550   6.791   1.802   9.599  0.6324 -0.5772 -0.2501
  165SOPE  H11R18551   6.843   1.868   9.672  3.4897 -0.2424 -2.4151
  165SOPE  H11S18552   6.686   1.835   9.586 -0.2394 -2.6771  0.9997
  165SOPE  C21218553   6.882   1.800   9.476  0.1710 -0.0360 -0.2947
  165SOPE  H12R18554   6.975   1.746   9.503  1.1319  0.8166 -1.7243
  165SOPE  H12S18555   6.914   1.902   9.447  2.4288 -0.6790 -0.2111
  165SOPE  C21318556   6.818   1.730   9.353 -0.2031 -0.0252  0.6632
  165SOPE  H13R18557   6.721   1.782   9.338  0.1779  0.2643 -1.0534
  165SOPE  H13S18558   6.795   1.623   9.369 -0.2426  0.1044  1.4989
  165SOPE  C21418559   6.902   1.750   9.225  0.0643 -0.2015 -0.0674
  165SOPE  H14R18560   6.996   1.692   9.231  0.1213  0.0400  2.1334
  165SOPE  H14S18561   6.905   1.860   9.210 -0.7683  0.1309  1.9110
  165SOPE  C21518562   6.828   1.686   9.104  1.0278  0.0449  0.3358
  165SOPE  H15R18563   6.892   1.703   9.015  0.1062 -2.2792 -0.8476
  165SOPE  H15S18564   6.741   1.753   9.089  0.9071  0.1241  1.3202
  165SOPE  C21618565   6.801   1.534   9.108 -0.1117 -0.2590  0.8270
  165SOPE  H16R18566   6.731   1.502   9.189 -0.3790  0.8159  1.0327
  165SOPE  H16S18567   6.899   1.486   9.127  1.3710 -0.2662 -5.0099
  165SOPE  C21718568   6.767   1.476   8.969  0.3989 -0.3773  0.3294
  165SOPE  H17R18569   6.677   1.529   8.931 -0.5864 -1.1300  1.5300
  165SOPE  H17S18570   6.735   1.370   8.978 -2.0359  0.2775  0.2758
  165SOPE  C21818571   6.873   1.470   8.865 -0.3890 -0.1581 -0.0590
  165SOPE  H18R18572   6.930   1.374   8.870 -0.8614 -0.4082  0.7457
  165SOPE  H18S18573   6.941   1.556   8.880  0.7402 -0.8557 -0.9619
  165SOPE  H18T18574   6.830   1.477   8.763 -0.4306  1.6640  0.0554
  165SOPE   C3318575   6.775   2.106  10.384 -0.2098 -0.3695  0.7633
  165SOPE   H3X18576   6.867   2.079  10.440  0.1587  0.5868  0.6462
  165SOPE   H3Y18577   6.758   2.215  10.403  0.2188 -0.0001 -0.8287
  165SOPE   C3418578   6.783   2.083  10.232  0.3098  0.6763 -0.5094
  165SOPE   H4X18579   6.804   1.974  10.223 -0.6346  0.5933 -2.1018
  165SOPE   H4Y18580   6.865   2.140  10.184  1.9935 -1.0599  0.1750
  165SOPE   C3518581   6.661   2.126  10.149 -0.1151 -0.2249 -0.6033
  165SOPE   H5X18582   6.680   2.235  10.133  2.1675 -0.7295 -1.8670
  165SOPE   H5Y18583   6.572   2.099  10.209  0.8474 -1.1322  0.4538
  165SOPE   C3618584   6.651   2.057  10.013 -0.9532  0.6544  0.5950
  165SOPE   H6X18585   6.631   1.950  10.033  1.3816  0.4017  1.8541
  165SOPE   H6Y18586   6.744   2.062   9.952 -1.9520  0.6616 -1.0062
  165SOPE   C3718587   6.536   2.105   9.919  0.2465 -0.1876 -0.3303
  165SOPE   H7X18588   6.532   2.216   9.910 -0.7769 -0.2921 -1.4560
  165SOPE   H7Y18589   6.452   2.051   9.968 -0.7404 -1.3557 -3.1011
  165SOPE   C3818590   6.553   2.055   9.776 -0.0473  0.6867  0.0424
  165SOPE   H8X18591   6.520   1.950   9.768  0.1056  0.6336  0.1191
  165SOPE   H8Y18592   6.661   2.053   9.752  0.2348  0.5899  1.2739
  165SOPE   C3918593   6.465   2.130   9.677 -0.8851 -0.7784 -0.6024
  165SOPE   H9X18594   6.496   2.235   9.661 -1.9266 -0.0956  1.5748
  165SOPE   H9Y18595   6.361   2.144   9.713 -0.6969 -0.3063 -0.2348
  165SOPE  C31018596   6.457   2.068   9.541  0.5281 -0.6878 -0.2135
  165SOPE  H10X18597   6.394   1.977   9.553 -1.5157  0.5787 -0.7961
  165SOPE  H10Y18598   6.559   2.042   9.504  1.7459  3.1634  0.0801
  165SOPE  C31118599   6.379   2.150   9.445  0.3985 -0.1111 -0.0143
  165SOPE  H11X18600   6.431   2.243   9.412 -1.0178 -0.2397 -3.0040
  165SOPE  H11Y18601   6.276   2.180   9.473 -0.1822 -0.5698 -1.5585
  165SOPE  C31218602   6.352   2.081   9.307 -0.4452 -0.0455 -0.0281
  165SOPE  H12X18603   6.313   2.161   9.240  0.0422 -0.6323 -1.0409
  165SOPE  H12Y18604   6.266   2.014   9.324 -0.4875 -0.4067 -1.5193
  165SOPE  C31318605   6.475   2.016   9.246 -0.2835  0.2676  0.1069
  165SOPE  H13X18606   6.434   1.942   9.174 -1.0885  1.0142 -0.2368
  165SOPE  H13Y18607   6.537   1.948   9.307  0.8394 -0.2446 -1.5459
  165SOPE  C31418608   6.558   2.122   9.171  0.2751  0.4098 -0.0310
  165SOPE  H14X18609   6.582   2.198   9.249 -0.0567 -1.1822  1.7026
  165SOPE  H14Y18610   6.483   2.161   9.099 -1.6779 -1.3800  0.9177
  165SOPE  C31518611   6.687   2.072   9.103  0.2223  0.3778  0.1379
  165SOPE  H15X18612   6.659   1.973   9.061 -1.6411  0.9130  0.0549
  165SOPE  H15Y18613   6.768   2.051   9.175 -0.5971 -1.9864  0.4620
  165SOPE  C31618614   6.729   2.160   8.984 -0.5952  0.3554  0.2269
  165SOPE  H16X18615   6.774   2.255   9.020  1.1277 -0.2717 -0.1558
  165SOPE  H16Y18616   6.632   2.183   8.935 -0.9659  0.6256  1.0696
  165SOPE  C31718617   6.840   2.114   8.890  0.5285 -0.9501 -0.0372
  165SOPE  H17X18618   6.787   2.033   8.836 -0.1929 -0.4392 -0.1136
  165SOPE  H17Y18619   6.923   2.069   8.949 -0.0637  0.6060  2.1112
  165SOPE  C31818620   6.899   2.216   8.798 -0.6629  0.3877  0.2050
  165SOPE  H18X18621   7.002   2.192   8.763 -0.9278  0.8101 -0.9238
  165SOPE  H18Y18622   6.893   2.320   8.837 -0.9088  0.4554 -0.0048
  165SOPE  H18Z18623   6.838   2.220   8.705  0.6408 -0.1644 -0.6934
  166SOPE     N18624   4.495   3.590  11.061  0.3657 -0.2861  0.2450
  166SOPE   HN118625   4.431   3.529  11.115  0.4731 -1.2973 -0.7370
  166SOPE   HN218626   4.578   3.599  11.123 -0.9122  0.1306  1.9783
  166SOPE   HN318627   4.450   3.684  11.055  2.6758  0.9978  1.4490
  166SOPE   C1218628   4.515   3.528  10.926 -0.1105 -0.2432 -0.4052
  166SOPE  H12A18629   4.623   3.526  10.900 -0.0229 -0.1188 -0.0558
  166SOPE  H12B18630   4.457   3.591  10.856  0.0024  0.7187  0.3516
  166SOPE   C1118631   4.449   3.390  10.928  0.0158  0.8445  0.0356
  166SOPE  H11A18632   4.520   3.336  10.994 -0.3078 -0.0804 -0.3514
  166SOPE  H11B18633   4.446   3.338  10.830 -1.9277 -0.1204  0.5330
  166SOPE     P18634   4.196   3.427  10.891  0.3757  0.2116  0.1658
  166SOPE   O1318635   4.076   3.458  10.977 -0.1300  0.6231  0.2061
  166SOPE   O1418636   4.171   3.314  10.802 -0.0900  0.2462  0.3478
  166SOPE   O1218637   4.318   3.400  10.986  0.2998 -0.5503 -0.2074
  166SOPE   O1118638   4.237   3.557  10.811 -0.6445  0.1093  0.1396
  166SOPE    C118639   4.230   3.567  10.666 -0.0695  0.9492 -0.0694
  166SOPE    HA18640   4.262   3.484  10.600 -1.4768 -0.0417  0.4521
  166SOPE    HB18641   4.302   3.650  10.646  0.7727  0.1096 -0.6121
  166SOPE    C218642   4.090   3.602  10.629 -0.2704 -1.1916 -0.0341
  166SOPE    HS18643   4.026   3.513  10.647 -0.0501 -0.9904  2.0737
  166SOPE   O2118644   4.096   3.659  10.491 -0.0590 -0.3267 -0.5402
  166SOPE   C2118645   3.997   3.610  10.411 -0.4038 -0.1916  0.3473
  166SOPE   O2218646   3.921   3.518  10.438 -0.3213 -0.9543 -0.1451
  166SOPE   C2218647   4.013   3.695  10.281 -0.1556  0.0061 -0.2349
  166SOPE   H2R18648   4.120   3.686  10.254  0.8081 -4.6122  3.7170
  166SOPE   H2S18649   3.980   3.795  10.316  0.4833  0.1500 -0.0431
  166SOPE    C318650   4.029   3.711  10.730 -0.4748 -0.8334 -0.1659
  166SOPE    HX18651   4.090   3.802  10.715 -0.3050 -0.8029  0.6972
  166SOPE    HY18652   4.044   3.676  10.834  0.9874 -1.2437 -0.4873
  166SOPE   O3118653   3.892   3.733  10.693  0.4044  0.0546 -0.2436
  166SOPE   C3118654   3.814   3.794  10.788 -0.0667 -0.4839 -0.8592
  166SOPE   O3218655   3.854   3.822  10.903 -0.3334  0.4135 -0.1793
  166SOPE   C3218656   3.673   3.789  10.740 -0.0232  0.1275 -0.2260
  166SOPE   H2X18657   3.654   3.680  10.734 -0.5009  0.2227 -0.5149
  166SOPE   H2Y18658   3.663   3.823  10.634 -0.2490  0.3216 -0.1449
  166SOPE   C2318659   3.919   3.651  10.158  0.0413 -0.0923 -0.5001
  166SOPE   H3R18660   3.811   3.648  10.187  0.2797  2.1638  0.9099
  166SOPE   H3S18661   3.948   3.546  10.137 -1.2819 -1.1139  2.1896
  166SOPE   C2418662   3.938   3.740  10.036 -0.5231 -0.2202  0.3612
  166SOPE   H4R18663   3.884   3.836  10.049 -0.5996  0.0627 -1.7971
  166SOPE   H4S18664   4.048   3.756  10.031 -0.3135 -0.7572  2.4122
  166SOPE   C2518665   3.886   3.661   9.919  0.6191 -0.6002 -0.4478
  166SOPE   H5R18666   3.956   3.579   9.893  0.5246 -0.2472 -1.8774
  166SOPE   H5S18667   3.782   3.626   9.938  0.3003 -0.5283 -1.9590
  166SOPE   C2618668   3.865   3.742   9.790  0.9823  0.2059  1.0804
  166SOPE   H6R18669   3.780   3.812   9.808 -0.0629 -1.0478  1.1501
  166SOPE   H6S18670   3.960   3.798   9.775  1.3550 -0.2725  1.6339
  166SOPE   C2718671   3.827   3.657   9.672 -0.2519 -0.2561  0.9053
  166SOPE   H7R18672   3.901   3.577   9.652 -0.1033 -0.2228  1.3206
  166SOPE   H7S18673   3.734   3.602   9.697 -0.9501  0.6944  0.4734
  166SOPE   C2818674   3.810   3.734   9.535  0.2185  0.2614 -0.5304
  166SOPE   H8R18675   3.886   3.815   9.526  1.6280 -0.7274  1.6441
  166SOPE   H8S18676   3.833   3.670   9.446 -0.7563 -1.3045  0.2908
  166SOPE   C2918677   3.670   3.788   9.531  1.2862  0.1363  0.8583
  166SOPE   H9118678   3.644   3.848   9.619  1.6010  2.3481 -0.4653
  166SOPE  C21018679   3.571   3.754   9.438 -0.6425 -0.1964  0.1035
  166SOPE  H10118680   3.471   3.798   9.454  0.0896  1.5648  0.0929
  166SOPE  C21118681   3.595   3.673   9.311 -0.7264 -0.0939 -0.6102
  166SOPE  H11R18682   3.594   3.563   9.326  4.2136 -0.6328 -2.5421
  166SOPE  H11S18683   3.690   3.700   9.261 -0.6499 -1.6993 -1.3659
  166SOPE  C21218684   3.493   3.698   9.193 -0.7576 -0.1353 -0.0678
  166SOPE  H12R18685   3.388   3.674   9.221 -0.6786 -2.4748 -1.5523
  166SOPE  H12S18686   3.524   3.622   9.118  0.0497  0.8716 -0.7871
  166SOPE  C21318687   3.503   3.846   9.138  0.0179  0.5621 -0.2021
  166SOPE  H13R18688   3.609   3.865   9.112 -0.0400 -0.0677 -0.9412
  166SOPE  H13S18689   3.465   3.915   9.216 -0.5957  0.8948 -0.7816
  166SOPE  C21418690   3.434   3.873   9.002 -0.9367 -0.0311 -0.1718
  166SOPE  H14R18691   3.459   3.791   8.931 -0.2811 -0.1553  0.1869
  166SOPE  H14S18692   3.485   3.966   8.969  1.7608 -1.1010  0.6831
  166SOPE  C21518693   3.283   3.880   8.999  0.3525 -0.1057  0.1011
  166SOPE  H15R18694   3.241   3.782   9.030  0.3013  0.7428  3.0147
  166SOPE  H15S18695   3.248   3.901   8.896  0.3409  1.5387  0.4074
  166SOPE  C21618696   3.237   4.005   9.075  0.1186 -0.1747  0.4075
  166SOPE  H16R18697   3.316   4.076   9.043  2.5135 -3.4199 -1.4349
  166SOPE  H16S18698   3.259   3.991   9.183 -0.6404  0.4625  0.6508
  166SOPE  C21718699   3.106   4.057   9.019 -0.0480  0.6110  0.4561
  166SOPE  H17R18700   3.041   3.968   9.027  0.4888  0.2714  1.2573
  166SOPE  H17S18701   3.108   4.086   8.912 -1.5418  0.5240  0.3845
  166SOPE  C21818702   3.052   4.178   9.087  0.4044 -0.4237  0.0810
  166SOPE  H18R18703   2.950   4.203   9.050  0.1526 -0.8192  0.5027
  166SOPE  H18S18704   3.124   4.263   9.084 -1.7113  1.4158 -1.9249
  166SOPE  H18T18705   3.033   4.147   9.192  1.4974  0.5612  0.5969
  166SOPE   C3318706   3.559   3.836  10.830 -0.7170  0.3361 -0.1744
  166SOPE   H3X18707   3.581   3.803  10.934 -0.4341  2.2290  0.4037
  166SOPE   H3Y18708   3.464   3.794  10.790 -0.3540  0.2714 -0.9748
  166SOPE   C3418709   3.527   3.986  10.839  0.0938 -0.8404  0.2202
  166SOPE   H4X18710   3.613   4.048  10.872  1.5799 -1.7201 -1.7742
  166SOPE   H4Y18711   3.455   3.998  10.923 -0.0212 -1.2242  0.1785
  166SOPE   C3518712   3.463   4.049  10.714  0.3747  0.4899 -0.1470
  166SOPE   H5X18713   3.388   3.980  10.671  0.3962 -0.0181  0.6179
  166SOPE   H5Y18714   3.541   4.075  10.639 -0.0324  2.8370  0.1693
  166SOPE   C3618715   3.403   4.185  10.745  0.2093  0.6138  0.0835
  166SOPE   H6X18716   3.474   4.270  10.756 -0.3974  0.9080  2.2126
  166SOPE   H6Y18717   3.347   4.179  10.841 -1.2363 -1.0812 -0.7979
  166SOPE   C3718718   3.309   4.225  10.638  0.2536  0.3458 -0.0407
  166SOPE   H7X18719   3.253   4.313  10.679 -0.3873  0.1634 -0.5144
  166SOPE   H7Y18720   3.249   4.134  10.616  1.7228 -0.8891  0.9056
  166SOPE   C3818721   3.391   4.267  10.519 -0.4185  0.1355 -0.1417
  166SOPE   H8X18722   3.469   4.192  10.496 -0.7496 -0.6801  1.2564
  166SOPE   H8Y18723   3.448   4.355  10.553  1.1885 -1.2539  0.9286
  166SOPE   C3918724   3.307   4.288  10.391  0.4733 -0.5131  0.1011
  166SOPE   H9X18725   3.246   4.376  10.421 -0.8841 -1.6257  0.7201
  166SOPE   H9Y18726   3.236   4.204  10.375 -0.1743 -0.1572  1.0317
  166SOPE  C31018727   3.405   4.316  10.273  0.4486 -0.1939  0.1873
  166SOPE  H10X18728   3.381   4.251  10.186 -1.1890 -0.5739  0.8769
  166SOPE  H10Y18729   3.502   4.274  10.307  0.1654 -1.2823 -0.3155
  166SOPE  C31118730   3.427   4.465  10.226 -0.4070  0.1298 -0.5813
  166SOPE  H11X18731   3.441   4.518  10.322 -0.7885  0.4803 -0.7148
  166SOPE  H11Y18732   3.333   4.494  10.174 -2.0215  0.4696  2.3091
  166SOPE  C31218733   3.543   4.486  10.129  0.4705 -0.1376  0.4896
  166SOPE  H12X18734   3.572   4.388  10.087  3.8865  0.6426  0.7444
  166SOPE  H12Y18735   3.636   4.529  10.173  0.0568  0.9842  0.3134
  166SOPE  C31318736   3.493   4.585  10.024 -0.5468 -0.6995  0.5320
  166SOPE  H13X18737   3.450   4.674  10.074  2.2078  1.0376  0.0253
  166SOPE  H13Y18738   3.402   4.549   9.972 -0.3291  1.7556 -1.7177
  166SOPE  C31418739   3.598   4.615   9.912 -0.0405 -0.1580 -0.1340
  166SOPE  H14X18740   3.626   4.529   9.847 -0.0847  0.2741 -0.7316
  166SOPE  H14Y18741   3.693   4.646   9.961 -0.5918 -1.3709  1.7820
  166SOPE  C31518742   3.552   4.728   9.820 -0.1353  0.7094 -0.0035
  166SOPE  H15X18743   3.625   4.746   9.739 -2.2392  0.6830 -2.0295
  166SOPE  H15Y18744   3.544   4.820   9.882 -0.9609  0.9236 -0.4148
  166SOPE  C31618745   3.430   4.712   9.733  0.7033  0.0817  0.9181
  166SOPE  H16X18746   3.383   4.806   9.696 -0.5950 -1.0738 -0.4934
  166SOPE  H16Y18747   3.353   4.667   9.798 -0.6261  0.7495 -0.1455
  166SOPE  C31718748   3.463   4.622   9.621  0.0353 -0.0917  0.4037
  166SOPE  H17X18749   3.498   4.527   9.665 -1.5103 -0.4842  0.8579
  166SOPE  H17Y18750   3.549   4.662   9.563 -1.9444  2.2102 -1.1653
  166SOPE  C31818751   3.356   4.599   9.512  0.1171  0.8223 -0.1558
  166SOPE  H18X18752   3.391   4.532   9.431  0.7533  2.4359 -1.2741
  166SOPE  H18Y18753   3.340   4.696   9.460  1.7544  1.1075 -0.1716
  166SOPE  H18Z18754   3.257   4.563   9.548 -0.5435  0.2380 -2.3802
  167SOPE     N18755   0.283   6.242   6.594  0.6006  0.3659 -0.2478
  167SOPE   HN118756   0.215   6.236   6.516  0.2120  0.7071  0.0602
  167SOPE   HN218757   0.231   6.254   6.684 -0.3358  1.2654 -0.8865
  167SOPE   HN318758   0.345   6.324   6.582  0.4991  0.6000  0.6831
  167SOPE   C1218759   0.355   6.110   6.610  0.1281 -0.2186 -0.3816
  167SOPE  H12A18760   0.389   6.112   6.715 -1.4745 -1.6837  0.2140
  167SOPE  H12B18761   0.438   6.114   6.536 -0.2756 -1.4236 -0.9266
  167SOPE   C1118762   0.272   5.985   6.584 -0.1865 -0.4568  0.5226
  167SOPE  H11A18763   0.185   5.984   6.654  1.1261 -0.2762  2.2104
  167SOPE  H11B18764   0.336   5.903   6.623  0.6782  1.6071  3.8685
  167SOPE     P18765   0.119   6.039   6.361 -0.0708  0.4699  0.2281
  167SOPE   O1318766   0.092   5.973   6.230 -0.4110  0.1845 -0.1139
  167SOPE   O1418767   0.140   6.184   6.361 -0.0208  0.2322 -0.2669
  167SOPE   O1218768   0.250   5.972   6.435 -0.0536  0.6055 -0.4622
  167SOPE   O1118769   0.012   5.990   6.465 -0.2487 -0.4699  0.0675
  167SOPE    C118770  -0.108   6.063   6.476 -0.4266 -0.8864  0.1226
  167SOPE    HA18771  -0.190   5.988   6.473 -0.8794 -0.4953  1.7167
  167SOPE    HB18772  -0.128   6.130   6.389 -1.8830 -0.4345  0.7585
  167SOPE    C218773  -0.127   6.151   6.602  0.0376 -0.1604  0.1158
  167SOPE    HS18774  -0.063   6.242   6.591 -2.0822  1.6115  1.6220
  167SOPE   O2118775  -0.087   6.079   6.718 -0.0007  0.4675 -0.2185
  167SOPE   C2118776  -0.006   6.139   6.799 -0.4350 -0.2132 -0.1207
  167SOPE   O2218777   0.061   6.240   6.781 -0.4643  1.0632  0.1819
  167SOPE   C2218778  -0.002   6.077   6.936 -0.0677 -0.3818 -0.2145
  167SOPE   H2R18779   0.103   6.094   6.970 -0.2677 -0.2157  0.3223
  167SOPE   H2S18780   0.003   5.968   6.913 -0.1551 -0.0827 -1.8068
  167SOPE    C318781  -0.280   6.199   6.613  0.1787  0.2816 -0.0022
  167SOPE    HX18782  -0.348   6.111   6.620 -2.2483  2.0425 -0.0618
  167SOPE    HY18783  -0.303   6.249   6.517 -0.4937 -1.0736 -0.5809
  167SOPE   O3118784  -0.296   6.279   6.724  0.4412 -0.6330  0.7694
  167SOPE   C3118785  -0.282   6.411   6.708 -0.5416  0.5085 -0.7599
  167SOPE   O3218786  -0.258   6.473   6.603  0.8659 -0.0967  0.1258
  167SOPE   C3218787  -0.289   6.490   6.846  0.5718 -0.3371  0.4680
  167SOPE   H2X18788  -0.287   6.413   6.927 -0.9267  0.4247  1.2723
  167SOPE   H2Y18789  -0.383   6.549   6.847  0.3462 -0.6979  0.7453
  167SOPE   C2318790  -0.107   6.135   7.035  0.3930  0.1295 -0.4485
  167SOPE   H3R18791  -0.208   6.114   6.993  1.0515  0.0234 -2.0294
  167SOPE   H3S18792  -0.103   6.246   7.040  1.5856  0.0753  0.0641
  167SOPE   C2418793  -0.111   6.076   7.171  0.0705  0.7150 -0.1154
  167SOPE   H4R18794  -0.126   5.966   7.161 -2.7847  0.9143  0.8741
  167SOPE   H4S18795  -0.015   6.089   7.226 -0.2477  3.8050 -0.1339
  167SOPE   C2518796  -0.218   6.136   7.263 -0.0333 -1.0929  0.0698
  167SOPE   H5R18797  -0.212   6.246   7.252  1.5257 -1.2702 -1.2581
  167SOPE   H5S18798  -0.316   6.094   7.230 -0.6554  0.0292  0.4486
  167SOPE   C2618799  -0.200   6.115   7.415  0.0587  0.6078 -0.0360
  167SOPE   H6R18800  -0.107   6.162   7.451 -0.7015  0.3534  2.4319
  167SOPE   H6S18801  -0.282   6.157   7.478 -0.2777 -0.6602  0.4050
  167SOPE   C2718802  -0.202   5.970   7.463  0.6422  0.2749  0.1118
  167SOPE   H7R18803  -0.302   5.935   7.432  0.6599  0.6536 -0.3720
  167SOPE   H7S18804  -0.119   5.916   7.413  1.0019  1.6176 -0.7970
  167SOPE   C2818805  -0.198   5.964   7.622 -0.1967  0.6155  0.2041
  167SOPE   H8R18806  -0.260   6.047   7.663 -0.8873 -0.2938  1.0262
  167SOPE   H8S18807  -0.252   5.872   7.653  1.3977 -0.3976  0.0874
  167SOPE   C2918808  -0.058   5.973   7.676 -1.0728 -0.6974 -0.5613
  167SOPE   H9118809   0.011   6.027   7.610 -2.1560  1.2735 -0.1479
  167SOPE  C21018810  -0.011   5.921   7.790  0.0867  0.5937 -0.6726
  167SOPE  H10118811   0.095   5.941   7.815  0.2594  0.7613 -1.5016
  167SOPE  C21118812  -0.087   5.844   7.900  0.6653  0.1440  0.5071
  167SOPE  H11R18813  -0.037   5.746   7.913  2.2699  0.9913  1.0276
  167SOPE  H11S18814  -0.193   5.834   7.867  0.9248 -1.4137  0.0835
  167SOPE  C21218815  -0.094   5.910   8.037  0.1917  0.1626 -1.0548
  167SOPE  H12R18816  -0.129   5.834   8.110  0.8188 -0.0303 -0.9541
  167SOPE  H12S18817  -0.169   5.992   8.043 -2.1111 -1.9327  2.2041
  167SOPE  C21318818   0.043   5.965   8.078  0.3658 -0.3088 -0.4785
  167SOPE  H13R18819   0.059   6.058   8.019  0.2571 -0.2212 -0.3694
  167SOPE  H13S18820   0.122   5.888   8.064  0.8610 -0.3354  2.0788
  167SOPE  C21418821   0.037   6.006   8.225 -0.1443 -0.0047 -0.3818
  167SOPE  H14R18822  -0.053   6.066   8.250  0.4871  0.6277  0.4059
  167SOPE  H14S18823   0.129   6.060   8.258  0.7737 -3.1854  3.0586
  167SOPE  C21518824   0.033   5.900   8.332  0.2747  0.1157  0.2612
  167SOPE  H15R18825   0.129   5.842   8.338 -0.5906 -1.3199  0.9559
  167SOPE  H15S18826  -0.049   5.834   8.296  0.5643  1.3787 -2.9603
  167SOPE  C21618827   0.014   5.944   8.478  0.5583  0.1365  0.1535
  167SOPE  H16R18828  -0.053   6.032   8.484  0.6412  0.2898 -0.9665
  167SOPE  H16S18829   0.117   5.968   8.511 -0.1319  2.7725  0.5852
  167SOPE  C21718830  -0.050   5.829   8.569  0.1477  0.3654 -0.6414
  167SOPE  H17R18831   0.028   5.750   8.576 -1.1679 -0.9476 -0.2816
  167SOPE  H17S18832  -0.146   5.787   8.532  0.6553 -0.4218 -1.0926
  167SOPE  C21818833  -0.082   5.871   8.712 -0.6159 -0.0640 -0.2628
  167SOPE  H18R18834  -0.160   5.796   8.737  1.7152 -2.8537 -0.9043
  167SOPE  H18S18835  -0.134   5.969   8.720  1.3090  0.8509  2.5877
  167SOPE  H18T18836   0.005   5.872   8.781 -0.2879 -0.0146 -0.6730
  167SOPE   C3318837  -0.164   6.580   6.855  0.1606  0.6450  0.1003
  167SOPE   H3X18838  -0.165   6.654   6.772  1.0483  0.1356 -0.3866
  167SOPE   H3Y18839  -0.070   6.521   6.848  1.1586  2.1055  0.6908
  167SOPE   C3418840  -0.168   6.663   6.980  0.3131  0.3438 -0.0637
  167SOPE   H4X18841  -0.263   6.722   6.979  0.8260  1.1843 -0.2482
  167SOPE   H4Y18842  -0.089   6.741   6.970 -0.6617  1.2793 -0.7101
  167SOPE   C3518843  -0.165   6.579   7.109 -0.0407 -0.2259  0.0100
  167SOPE   H5X18844  -0.070   6.523   7.126  1.2646  1.5190 -1.1292
  167SOPE   H5Y18845  -0.248   6.505   7.113  0.0283 -0.3928 -1.2072
  167SOPE   C3618846  -0.174   6.673   7.229 -0.0195  0.2365  0.5664
  167SOPE   H6X18847  -0.271   6.720   7.255 -0.2068  0.6931 -0.8773
  167SOPE   H6Y18848  -0.103   6.758   7.216  0.0411  0.0863 -0.1098
  167SOPE   C3718849  -0.139   6.607   7.359  0.2925  0.0412  0.1300
  167SOPE   H7X18850  -0.075   6.516   7.358 -0.0496 -0.4434 -5.1134
  167SOPE   H7Y18851  -0.235   6.565   7.395 -0.1519  1.1366  0.2837
  167SOPE   C3818852  -0.090   6.708   7.461  0.3943  0.1624  0.2183
  167SOPE   H8X18853  -0.168   6.785   7.472 -0.3307 -0.3615 -1.0080
  167SOPE   H8Y18854   0.007   6.749   7.424 -0.6092 -0.1094 -3.0285
  167SOPE   C3918855  -0.069   6.653   7.603 -0.6091  0.2045 -0.5516
  167SOPE   H9X18856  -0.007   6.560   7.604  3.0023  2.3902  1.2968
  167SOPE   H9Y18857  -0.156   6.627   7.667 -0.5578 -0.0500 -0.5845
  167SOPE  C31018858   0.016   6.741   7.700 -0.9666 -0.0154  0.2873
  167SOPE  H10X18859  -0.035   6.840   7.696 -0.4528  0.2308 -0.5781
  167SOPE  H10Y18860   0.117   6.770   7.664 -0.6865  2.0213  2.4706
  167SOPE  C31118861   0.028   6.703   7.846  0.0408 -0.4780 -0.8266
  167SOPE  H11X18862   0.093   6.613   7.846 -0.8840 -1.1721 -1.7710
  167SOPE  H11Y18863  -0.066   6.671   7.894 -1.1721  0.8293 -2.2148
  167SOPE  C31218864   0.080   6.820   7.940 -0.0648  0.9068  0.1650
  167SOPE  H12X18865   0.029   6.918   7.928  1.2341  1.5435 -0.2956
  167SOPE  H12Y18866   0.186   6.837   7.911 -0.4074  1.1116 -1.0298
  167SOPE  C31318867   0.076   6.778   8.082 -0.0004  0.2421 -0.8811
  167SOPE  H13X18868   0.151   6.696   8.082  0.5371  0.7100 -0.1309
  167SOPE  H13Y18869  -0.018   6.734   8.122  1.8186 -2.2684  0.9651
  167SOPE  C31418870   0.131   6.875   8.180  0.4042  0.3271  0.6904
  167SOPE  H14X18871   0.053   6.954   8.183 -0.0353 -0.0116 -0.9126
  167SOPE  H14Y18872   0.219   6.926   8.136  0.0521  0.9990  0.7415
  167SOPE  C31518873   0.153   6.836   8.321 -0.0572 -0.2171 -1.0686
  167SOPE  H15X18874   0.062   6.783   8.356  0.6215 -0.4197  0.5192
  167SOPE  H15Y18875   0.162   6.932   8.375 -1.6481 -0.7195  0.1670
  167SOPE  C31618876   0.284   6.754   8.339  0.8519  0.3598 -0.2497
  167SOPE  H16X18877   0.322   6.780   8.440  1.1913  0.1221 -0.3166
  167SOPE  H16Y18878   0.371   6.778   8.274  1.7261  1.8039  1.3674
  167SOPE  C31718879   0.257   6.604   8.337  0.3588  0.1983  0.3574
  167SOPE  H17X18880   0.179   6.584   8.260  0.2884 -0.9935  0.7129
  167SOPE  H17Y18881   0.202   6.568   8.427 -2.2398  0.3815 -1.0432
  167SOPE  C31818882   0.388   6.532   8.308  0.5091 -0.6954 -0.2847
  167SOPE  H18X18883   0.469   6.566   8.376  0.2477 -1.6796  0.5374
  167SOPE  H18Y18884   0.434   6.542   8.207  2.2761  0.5404  0.6028
  167SOPE  H18Z18885   0.371   6.422   8.315 -2.1061 -0.2735  1.2168
  168SOPE     N18886   0.471   3.556   6.526 -0.3306  0.0878 -0.9364
  168SOPE   HN118887   0.556   3.562   6.466  2.9665  2.1918  3.3786
  168SOPE   HN218888   0.380   3.532   6.481 -0.0617 -0.1315 -1.3629
  168SOPE   HN318889   0.444   3.644   6.574 -3.1256 -2.8232  3.5382
  168SOPE   C1218890   0.497   3.448   6.633 -0.1536 -0.5009  0.6785
  168SOPE  H12A18891   0.434   3.477   6.720 -2.0819 -1.5489 -0.3140
  168SOPE  H12B18892   0.604   3.456   6.662  0.3877  2.3058 -1.6053
  168SOPE   C1118893   0.479   3.312   6.574 -0.5810  0.7382 -0.8113
  168SOPE  H11A18894   0.374   3.314   6.539 -0.7925 -1.6937 -0.5348
  168SOPE  H11B18895   0.487   3.240   6.659  1.4979  1.0522 -0.6698
  168SOPE     P18896   0.597   3.143   6.414 -0.0485 -0.1356  0.1753
  168SOPE   O1318897   0.689   3.070   6.504  0.0306 -0.5374 -0.2082
  168SOPE   O1418898   0.650   3.160   6.278  0.2504  0.8293 -0.4703
  168SOPE   O1218899   0.574   3.286   6.473  0.3272  0.0478 -0.1091
  168SOPE   O1118900   0.454   3.068   6.418 -0.2942  0.5034 -0.7123
  168SOPE    C118901   0.444   2.937   6.462 -0.2802 -0.3723 -0.0035
  168SOPE    HA18902   0.490   2.922   6.562 -1.9648  1.4178  1.1298
  168SOPE    HB18903   0.498   2.868   6.394 -1.8735 -0.3931 -1.3235
  168SOPE    C218904   0.297   2.884   6.487 -0.2204  0.9664  0.4571
  168SOPE    HS18905   0.233   2.919   6.403 -1.6352 -2.7917 -0.2557
  168SOPE   O2118906   0.254   2.940   6.609  0.2456 -0.1739 -0.1563
  168SOPE   C2118907   0.191   3.061   6.607  0.2943 -0.5863  0.7993
  168SOPE   O2218908   0.169   3.134   6.516  1.1206  0.5858 -0.2142
  168SOPE   C2218909   0.140   3.099   6.747 -0.7604  1.0827  0.3389
  168SOPE   H2R18910   0.229   3.081   6.811 -0.5819  1.2722  0.1456
  168SOPE   H2S18911   0.055   3.032   6.772 -0.1392 -0.0622 -0.5048
  168SOPE    C318912   0.292   2.726   6.478 -0.2116 -0.9102  0.2292
  168SOPE    HX18913   0.302   2.708   6.368 -0.7361  1.5321 -0.2939
  168SOPE    HY18914   0.192   2.686   6.504  0.3056 -2.4519 -0.0604
  168SOPE   O3118915   0.395   2.663   6.559 -0.6300 -0.1060 -0.1873
  168SOPE   C3118916   0.449   2.554   6.504 -0.1774 -0.2130  0.0289
  168SOPE   O3218917   0.405   2.494   6.406  0.0820  0.1944 -0.5073
  168SOPE   C3218918   0.588   2.532   6.574  0.2549  0.8513 -0.2751
  168SOPE   H2X18919   0.647   2.598   6.507  0.4920  0.6239 -0.2900
  168SOPE   H2Y18920   0.623   2.427   6.570  0.3624  0.9178 -1.3276
  168SOPE   C2318921   0.085   3.239   6.752 -0.6727  0.2855 -0.0802
  168SOPE   H3R18922   0.012   3.257   6.669  1.1469 -1.3124 -2.1417
  168SOPE   H3S18923   0.170   3.305   6.723  0.8706 -0.9269  1.5208
  168SOPE   C2418924   0.056   3.286   6.897  0.8411 -0.5094  0.0929
  168SOPE   H4R18925   0.002   3.381   6.881  0.6358 -0.6832 -0.2649
  168SOPE   H4S18926  -0.004   3.207   6.947  0.5647 -2.1757 -2.6522
  168SOPE   C2518927   0.177   3.318   6.989  0.3961 -0.5973 -0.7423
  168SOPE   H5R18928   0.251   3.235   6.993  2.2649  1.0291  1.7728
  168SOPE   H5S18929   0.228   3.407   6.945 -0.1904  0.4984  0.7010
  168SOPE   C2618930   0.122   3.346   7.135 -0.7773 -0.3470  0.6296
  168SOPE   H6R18931   0.033   3.413   7.132 -0.8081 -0.3845  0.7325
  168SOPE   H6S18932   0.109   3.248   7.185  1.5178 -1.2678 -0.4215
  168SOPE   C2718933   0.232   3.437   7.209 -0.1276  0.4138  0.2577
  168SOPE   H7R18934   0.335   3.397   7.193 -0.5144  0.0629 -1.6747
  168SOPE   H7S18935   0.238   3.537   7.159 -0.1728  0.2900 -0.0005
  168SOPE   C2818936   0.200   3.458   7.362  0.9442 -0.0402 -0.6403
  168SOPE   H8R18937   0.282   3.522   7.401  1.9874 -1.4889 -0.3303
  168SOPE   H8S18938   0.113   3.526   7.371 -0.6270 -1.8433 -1.3880
  168SOPE   C2918939   0.189   3.328   7.446 -0.2780  0.4045  0.1187
  168SOPE   H9118940   0.176   3.236   7.388  3.6091  0.5554 -1.3051
  168SOPE  C21018941   0.210   3.325   7.574 -0.2243  0.2319  0.1954
  168SOPE  H10118942   0.186   3.236   7.635 -1.1785  1.4225  1.6230
  168SOPE  C21118943   0.231   3.440   7.663 -0.6645 -0.0600  0.3352
  168SOPE  H11R18944   0.217   3.535   7.606  0.0794 -1.6246 -2.6461
  168SOPE  H11S18945   0.332   3.441   7.709 -1.7946  0.4409  3.0093
  168SOPE  C21218946   0.140   3.437   7.786 -0.0016  0.0025  0.1352
  168SOPE  H12R18947   0.143   3.347   7.852 -1.2764  0.3612  0.7114
  168SOPE  H12S18948   0.034   3.448   7.753 -0.6139  1.5652  2.3889
  168SOPE  C21318949   0.147   3.564   7.886 -0.3997  0.4990 -0.0593
  168SOPE  H13R18950   0.149   3.641   7.806  1.9085  1.1658  0.5575
  168SOPE  H13S18951   0.243   3.552   7.942  2.8191 -1.2887 -5.2299
  168SOPE  C21418952   0.033   3.575   7.985  1.0492 -0.2996 -0.0493
  168SOPE  H14R18953   0.018   3.470   8.020 -1.9819  0.6123  1.7939
  168SOPE  H14S18954  -0.062   3.598   7.933  0.6589 -2.1646 -0.2165
  168SOPE  C21518955   0.058   3.657   8.109 -0.2999  0.0513 -0.1357
  168SOPE  H15R18956   0.056   3.762   8.074 -0.0264  0.3353  0.6770
  168SOPE  H15S18957   0.159   3.648   8.154 -0.1724  0.0047 -0.4357
  168SOPE  C21618958  -0.047   3.629   8.216  0.5560 -0.0331 -0.2094
  168SOPE  H16R18959  -0.022   3.682   8.310 -0.9742  2.1384 -0.9511
  168SOPE  H16S18960  -0.041   3.522   8.247  0.3485  0.6673  2.4865
  168SOPE  C21718961  -0.195   3.664   8.184 -0.0820  0.4240  0.3470
  168SOPE  H17R18962  -0.242   3.592   8.113  0.1226  2.9340 -2.5398
  168SOPE  H17S18963  -0.211   3.763   8.136  0.2305 -0.3672 -1.4822
  168SOPE  C21818964  -0.280   3.667   8.317  0.3255 -0.3209 -0.9543
  168SOPE  H18R18965  -0.303   3.559   8.334  1.1669 -0.1886  1.3639
  168SOPE  H18S18966  -0.375   3.723   8.304  0.0827 -0.9517 -2.0906
  168SOPE  H18T18967  -0.220   3.704   8.402 -1.6378 -1.3106  0.9718
  168SOPE   C3318968   0.609   2.592   6.720  0.3817  0.2239  0.4231
  168SOPE   H3X18969   0.577   2.698   6.722 -0.0250  0.1032  2.6947
  168SOPE   H3Y18970   0.719   2.580   6.733  0.3510 -1.7835 -0.8212
  168SOPE   C3418971   0.566   2.510   6.838  1.0633  0.3522  0.2974
  168SOPE   H4X18972   0.593   2.402   6.826  0.7771  0.4310 -1.2210
  168SOPE   H4Y18973   0.455   2.514   6.838  1.0261 -0.1402  1.8320
  168SOPE   C3518974   0.630   2.563   6.973  0.8743  0.4715  0.2089
  168SOPE   H5X18975   0.626   2.674   6.970 -1.4151  0.4415  0.3255
  168SOPE   H5Y18976   0.737   2.532   6.985  0.0943 -2.3947  0.6942
  168SOPE   C3618977   0.548   2.521   7.089 -0.0008  0.5823 -0.3786
  168SOPE   H6X18978   0.550   2.412   7.110  1.3250  0.0982 -2.7522
  168SOPE   H6Y18979   0.441   2.551   7.092 -0.0110  0.4923  0.2587
  168SOPE   C3718980   0.601   2.587   7.222  0.4217 -0.0446  0.4789
  168SOPE   H7X18981   0.587   2.696   7.208 -0.5950 -0.2561 -0.2408
  168SOPE   H7Y18982   0.707   2.555   7.235 -0.3103 -2.6385  0.6095
  168SOPE   C3818983   0.518   2.546   7.348  0.0715  0.1743  0.5710
  168SOPE   H8X18984   0.557   2.444   7.367  1.0982  0.0134 -2.0093
  168SOPE   H8Y18985   0.410   2.542   7.324  0.4594  1.8589 -1.8849
  168SOPE   C3918986   0.549   2.648   7.458  0.4226  0.3019 -0.6040
  168SOPE   H9X18987   0.488   2.740   7.450  0.6047  0.4161 -0.6915
  168SOPE   H9Y18988   0.656   2.679   7.465  0.5559 -0.3334  0.4349
  168SOPE  C31018989   0.511   2.594   7.592  0.3951 -0.2587 -0.0100
  168SOPE  H10X18990   0.584   2.511   7.607 -1.2623 -1.8940 -0.6417
  168SOPE  H10Y18991   0.413   2.543   7.579  0.5050 -0.9326  1.6152
  168SOPE  C31118992   0.509   2.682   7.716 -0.3885  0.6637  0.0618
  168SOPE  H11X18993   0.461   2.781   7.701 -1.6990  0.4066  2.1657
  168SOPE  H11Y18994   0.616   2.701   7.741 -0.8001  0.8111  1.8475
  168SOPE  C31218995   0.452   2.603   7.832 -0.2116 -0.3300 -0.6068
  168SOPE  H12X18996   0.505   2.514   7.871 -2.1169 -1.0420  0.4492
  168SOPE  H12Y18997   0.350   2.570   7.804 -0.5613 -0.2653  0.5354
  168SOPE  C31318998   0.427   2.701   7.949 -0.5732 -0.4008  0.1785
  168SOPE  H13X18999   0.373   2.784   7.899  0.3454 -0.3068 -0.6850
  168SOPE  H13Y19000   0.513   2.746   8.002  0.5062 -3.5664  1.3902
  168SOPE  C31419001   0.328   2.632   8.062 -0.3039 -0.3348  0.4908
  168SOPE  H14X19002   0.237   2.581   8.023 -0.4048 -0.2101  0.5638
  168SOPE  H14Y19003   0.293   2.704   8.138 -3.0628  0.1062 -1.0809
  168SOPE  C31519004   0.413   2.531   8.140 -0.3902  0.3979 -0.7148
  168SOPE  H15X19005   0.517   2.569   8.145 -1.0250  2.0869  3.1795
  168SOPE  H15Y19006   0.422   2.441   8.076 -0.5690  0.1634 -0.4140
  168SOPE  C31619007   0.355   2.499   8.272 -0.1773 -0.0414 -0.1480
  168SOPE  H16X19008   0.246   2.478   8.263 -0.2777  0.7795 -0.8914
  168SOPE  H16Y19009   0.356   2.592   8.334 -1.4874 -0.8828  1.2264
  168SOPE  C31719010   0.419   2.379   8.337 -0.3094  0.0866  0.3659
  168SOPE  H17X19011   0.530   2.382   8.343 -0.3494  0.9335  0.9340
  168SOPE  H17Y19012   0.398   2.296   8.266  0.7250 -1.5023  1.8261
  168SOPE  C31819013   0.367   2.339   8.475  0.6748 -0.9987 -0.5846
  168SOPE  H18X19014   0.379   2.426   8.544  0.4949 -1.0973 -0.4290
  168SOPE  H18Y19015   0.436   2.260   8.509  1.1736 -0.5986 -0.6585
  168SOPE  H18Z19016   0.259   2.313   8.477  0.9748 -2.2841  1.1410
  169SOPE     N19017   2.732   5.546   6.485 -0.2297  0.3315  0.5051
  169SOPE   HN119018   2.638   5.592   6.485 -0.1856  0.4526 -0.8545
  169SOPE   HN219019   2.795   5.601   6.424 -2.0383  1.6053 -0.3156
  169SOPE   HN319020   2.726   5.448   6.451  3.8292  0.0942 -0.0150
  169SOPE   C1219021   2.781   5.529   6.622  0.3206  0.3979 -0.0648
  169SOPE  H12A19022   2.874   5.468   6.618  0.3661  0.4715 -0.1185
  169SOPE  H12B19023   2.708   5.469   6.679  2.5350 -1.9029  0.5485
  169SOPE   C1119024   2.829   5.657   6.687  0.3989  0.3224 -1.0185
  169SOPE  H11A19025   2.859   5.634   6.791  0.5885 -1.0789 -1.3704
  169SOPE  H11B19026   2.737   5.720   6.686 -1.4881 -2.2829 -0.7618
  169SOPE     P19027   3.088   5.674   6.638  0.1217  0.0960 -0.1640
  169SOPE   O1319028   3.176   5.786   6.595  0.0794  0.0860 -0.8356
  169SOPE   O1419029   3.109   5.553   6.561 -0.3207  1.0042 -0.3491
  169SOPE   O1219030   2.936   5.719   6.616 -0.2112  0.6692  0.2355
  169SOPE   O1119031   3.100   5.640   6.791  0.0619  0.1093 -0.2560
  169SOPE    C119032   3.080   5.751   6.874 -0.1692  0.4198 -0.5806
  169SOPE    HA19033   3.052   5.710   6.974 -2.3363  0.8604 -0.9595
  169SOPE    HB19034   2.991   5.811   6.845 -0.7216  0.4013  0.9698
  169SOPE    C219035   3.207   5.833   6.910 -0.1346  0.5022  0.1859
  169SOPE    HS19036   3.252   5.884   6.823  2.1114  0.7263  1.3885
  169SOPE   O2119037   3.287   5.728   6.960  0.3378  0.4904  0.6607
  169SOPE   C2119038   3.417   5.733   6.959  0.1244 -1.0097  0.7851
  169SOPE   O2219039   3.482   5.818   6.901 -0.0702 -0.5454 -0.4391
  169SOPE   C2219040   3.486   5.616   7.031 -0.7072  0.3153  0.0206
  169SOPE   H2R19041   3.580   5.585   6.981 -1.2486 -0.7076 -0.3804
  169SOPE   H2S19042   3.414   5.532   7.022 -1.5447  1.0671 -0.4533
  169SOPE    C319043   3.193   5.945   7.016  0.0892  0.5170  0.0789
  169SOPE    HX19044   3.134   6.027   6.969 -0.5147  0.4042  0.6229
  169SOPE    HY19045   3.288   5.991   7.051 -1.2113  3.5189 -0.0091
  169SOPE   O3119046   3.126   5.885   7.130 -0.7542 -0.4802  0.0439
  169SOPE   C3119047   3.060   5.977   7.202 -0.1629  0.0267 -0.0875
  169SOPE   O3219048   3.070   6.097   7.185  0.5955  0.3293  0.1628
  169SOPE   C3219049   3.013   5.915   7.331  0.6775 -0.0099 -0.4595
  169SOPE   H2X19050   3.100   5.874   7.387 -0.7327 -2.5925  0.0374
  169SOPE   H2Y19051   2.949   5.829   7.300 -1.1356  1.0685  0.0915
  169SOPE   C2319052   3.516   5.662   7.179  0.9102  0.6492  0.0328
  169SOPE   H3R19053   3.597   5.737   7.192 -0.0405  1.5672  0.9359
  169SOPE   H3S19054   3.562   5.579   7.236  1.4120  2.5077  2.5416
  169SOPE   C2419055   3.393   5.697   7.263  0.6251 -0.2419  0.7006
  169SOPE   H4R19056   3.380   5.808   7.259  0.6011 -0.2775 -1.6497
  169SOPE   H4S19057   3.306   5.652   7.209 -0.2928  1.5434  0.6106
  169SOPE   C2519058   3.389   5.640   7.411 -0.2725  0.2808  0.2939
  169SOPE   H5R19059   3.292   5.586   7.420 -0.8026  1.3491  1.2602
  169SOPE   H5S19060   3.474   5.576   7.440 -0.7773  1.1911  4.3143
  169SOPE   C2619061   3.381   5.754   7.520 -0.4322 -0.0046  0.2495
  169SOPE   H6R19062   3.434   5.846   7.484  0.3906 -0.7570 -0.5180
  169SOPE   H6S19063   3.276   5.784   7.540 -0.1136  0.8124  0.7556
  169SOPE   C2719064   3.441   5.700   7.648  0.2999 -0.1096  0.8036
  169SOPE   H7R19065   3.392   5.605   7.679  0.5869 -1.6054 -2.8727
  169SOPE   H7S19066   3.548   5.670   7.639 -0.1889 -1.7253 -0.0656
  169SOPE   C2819067   3.426   5.807   7.758 -0.0046 -0.7957  0.2693
  169SOPE   H8R19068   3.461   5.903   7.714  0.7389 -1.0932  0.2035
  169SOPE   H8S19069   3.324   5.816   7.800  0.3637 -0.0718  1.0544
  169SOPE   C2919070   3.516   5.788   7.880 -0.7193  0.1410  0.1262
  169SOPE   H9119071   3.620   5.824   7.872 -0.4104 -0.9852 -1.5733
  169SOPE  C21019072   3.479   5.732   7.997  0.3700 -0.7833 -0.0329
  169SOPE  H10119073   3.543   5.750   8.085 -1.1412  1.1847  0.7452
  169SOPE  C21119074   3.346   5.663   8.028 -0.6779  0.1325 -0.5878
  169SOPE  H11R19075   3.278   5.665   7.940 -0.3685  0.1687 -0.8300
  169SOPE  H11S19076   3.305   5.700   8.124 -1.0699 -2.0026  0.1021
  169SOPE  C21219077   3.368   5.513   8.055  0.0210  0.9229 -0.0003
  169SOPE  H12R19078   3.395   5.470   7.956  0.5731 -1.7529  1.2254
  169SOPE  H12S19079   3.275   5.460   8.084  1.0449 -0.2655  1.2563
  169SOPE  C21319080   3.476   5.477   8.162 -0.3747 -0.1060 -0.2155
  169SOPE  H13R19081   3.573   5.526   8.138 -1.3505  2.1716  0.2067
  169SOPE  H13S19082   3.482   5.367   8.174  1.0898  0.1487  1.8187
  169SOPE  C21419083   3.442   5.531   8.299  0.1445  0.2376 -0.5574
  169SOPE  H14R19084   3.336   5.508   8.321  0.8469 -2.0488  0.7928
  169SOPE  H14S19085   3.443   5.642   8.304 -0.5386  0.2359 -0.3419
  169SOPE  C21519086   3.527   5.492   8.419  0.5046  1.0295  0.2510
  169SOPE  H15R19087   3.626   5.540   8.401  1.0394 -0.4919 -1.0002
  169SOPE  H15S19088   3.531   5.382   8.428 -1.9370  0.9862  1.7038
  169SOPE  C21619089   3.474   5.541   8.552  1.3383 -0.1159 -0.0297
  169SOPE  H16R19090   3.374   5.494   8.566  1.5702 -0.6191 -0.0554
  169SOPE  H16S19091   3.472   5.652   8.561  0.2228 -0.2339  1.5928
  169SOPE  C21719092   3.555   5.492   8.669  0.0727  0.1282 -1.3032
  169SOPE  H17R19093   3.580   5.385   8.649 -0.3962 -0.8340  2.4702
  169SOPE  H17S19094   3.492   5.492   8.761 -1.1355 -0.3264 -2.1073
  169SOPE  C21819095   3.675   5.580   8.704  0.1843  0.2888  0.3576
  169SOPE  H18R19096   3.761   5.571   8.634  0.8728 -1.5366  1.3480
  169SOPE  H18S19097   3.723   5.548   8.799  2.4819  0.3515 -0.7088
  169SOPE  H18T19098   3.647   5.686   8.721 -1.3652 -0.0689  0.1702
  169SOPE   C3319099   2.927   5.999   7.431  0.6540  0.1043  0.2686
  169SOPE   H3X19100   2.866   6.071   7.373  2.5323 -0.5674 -2.7239
  169SOPE   H3Y19101   2.996   6.071   7.480  0.3132  2.2633 -2.2341
  169SOPE   C3419102   2.852   5.917   7.540  0.4384 -0.1999  0.2997
  169SOPE   H4X19103   2.931   5.852   7.583 -0.6031 -1.2975  0.5780
  169SOPE   H4Y19104   2.767   5.851   7.514  0.7589 -0.1716 -0.8964
  169SOPE   C3519105   2.794   6.008   7.652  0.2829  0.5609  0.1190
  169SOPE   H5X19106   2.879   6.067   7.692 -0.0019  1.5230 -0.6622
  169SOPE   H5Y19107   2.764   5.936   7.731  1.3334  0.9287  0.8705
  169SOPE   C3619108   2.684   6.108   7.615  0.6968 -0.0379 -0.4692
  169SOPE   H6X19109   2.606   6.055   7.557 -0.2583  0.7506  0.0751
  169SOPE   H6Y19110   2.728   6.182   7.544  1.9891 -0.6416 -0.3272
  169SOPE   C3719111   2.624   6.174   7.729  0.6309 -0.1495 -0.6670
  169SOPE   H7X19112   2.592   6.099   7.804 -1.1656  1.8248  0.6551
  169SOPE   H7Y19113   2.527   6.227   7.715 -0.8821 -2.4309  0.5740
  169SOPE   C3819114   2.718   6.257   7.814 -0.6163  0.3252 -0.7627
  169SOPE   H8X19115   2.807   6.199   7.848 -0.5384  0.8505 -0.0449
  169SOPE   H8Y19116   2.751   6.348   7.758 -0.9540  0.5599 -0.5837
  169SOPE   C3919117   2.647   6.316   7.945 -0.5002 -0.5333  0.1820
  169SOPE   H9X19118   2.539   6.333   7.921  0.0451  0.7062 -1.6314
  169SOPE   H9Y19119   2.703   6.407   7.976 -0.4511  0.0394 -1.5055
  169SOPE  C31019120   2.651   6.224   8.065  0.3008  0.2238 -0.6901
  169SOPE  H10X19121   2.753   6.215   8.109  0.2065  0.5146 -0.4067
  169SOPE  H10Y19122   2.621   6.124   8.027  1.0913 -0.4124  0.3048
  169SOPE  C31119123   2.553   6.277   8.178  0.0392 -0.6998 -0.4043
  169SOPE  H11X19124   2.451   6.277   8.133  0.1032  3.4081 -0.9252
  169SOPE  H11Y19125   2.581   6.383   8.188 -3.0515  0.3446 -1.6456
  169SOPE  C31219126   2.568   6.206   8.306 -0.2986  0.4220 -0.7893
  169SOPE  H12X19127   2.675   6.206   8.336 -0.4663 -2.5133  0.1695
  169SOPE  H12Y19128   2.527   6.103   8.303 -0.6467  0.4997  0.4597
  169SOPE  C31319129   2.491   6.274   8.420  0.1266  0.1629 -0.5143
  169SOPE  H13X19130   2.387   6.266   8.383  0.2139 -2.5829 -0.3507
  169SOPE  H13Y19131   2.506   6.384   8.427 -1.0375  0.3515 -0.8093
  169SOPE  C31419132   2.495   6.200   8.557 -0.1022  0.3461  0.1743
  169SOPE  H14X19133   2.457   6.098   8.531 -0.8391  0.5972  0.2267
  169SOPE  H14Y19134   2.421   6.245   8.627 -0.8906 -1.4629  0.5655
  169SOPE  C31519135   2.632   6.181   8.622  0.4358 -0.0688 -0.4672
  169SOPE  H15X19136   2.682   6.272   8.661  0.1913  0.0524 -0.4327
  169SOPE  H15Y19137   2.691   6.136   8.539 -0.7408 -1.0227 -0.8134
  169SOPE  C31619138   2.642   6.086   8.744  0.7895  0.4426  0.5624
  169SOPE  H16X19139   2.577   5.997   8.727  0.6446  0.6860 -0.1755
  169SOPE  H16Y19140   2.606   6.137   8.836 -0.7421  1.2430 -0.4407
  169SOPE  C31719141   2.780   6.037   8.762  0.8602  1.0333 -0.0834
  169SOPE  H17X19142   2.850   6.115   8.796 -2.2127  3.1494  1.8633
  169SOPE  H17Y19143   2.809   5.996   8.662 -3.0360  1.4051 -1.5369
  169SOPE  C31819144   2.790   5.918   8.859 -0.0363 -0.1822  0.5383
  169SOPE  H18X19145   2.729   5.941   8.949 -0.3337  0.5663  0.1539
  169SOPE  H18Y19146   2.895   5.900   8.892  0.8270  1.6253 -0.9625
  169SOPE  H18Z19147   2.743   5.824   8.825 -0.5288 -0.5718  2.2014
  170SOPE     N19148   2.139   2.811   6.788 -0.4479  0.1855 -0.0990
  170SOPE   HN119149   2.218   2.756   6.828 -1.1359  0.1963  1.3589
  170SOPE   HN219150   2.174   2.909   6.793  2.9237 -0.8917  0.1540
  170SOPE   HN319151   2.056   2.778   6.842  1.9398 -0.8529  3.3096
  170SOPE   C1219152   2.117   2.790   6.640 -0.8110 -0.0618  0.1072
  170SOPE  H12A19153   2.030   2.849   6.604 -0.5845 -0.6584 -1.5011
  170SOPE  H12B19154   2.084   2.685   6.628 -0.7744 -0.1262  0.5484
  170SOPE   C1119155   2.242   2.820   6.557  0.2104 -0.5028  0.4673
  170SOPE  H11A19156   2.201   2.814   6.453 -0.7870  0.0444  0.8160
  170SOPE  H11B19157   2.314   2.737   6.569  1.6603  0.8363  1.2771
  170SOPE     P19158   2.450   2.973   6.604  0.2331  0.1127 -0.4594
  170SOPE   O1319159   2.484   3.106   6.652 -0.2846 -0.1715 -0.0877
  170SOPE   O1419160   2.515   2.917   6.484  0.1493 -0.2721 -0.1095
  170SOPE   O1219161   2.287   2.958   6.589 -0.2048  0.6088  0.1588
  170SOPE   O1119162   2.457   2.875   6.721 -0.1469 -0.2159  0.2795
  170SOPE    C119163   2.577   2.859   6.801 -0.5252 -0.7756  0.7476
  170SOPE    HA19164   2.647   2.940   6.773  0.5600 -2.5388 -2.0630
  170SOPE    HB19165   2.631   2.764   6.782  1.0892 -0.2097  2.2519
  170SOPE    C219166   2.560   2.879   6.956  0.4001 -0.4666  0.5318
  170SOPE    HS19167   2.488   2.811   7.005 -0.2585 -0.8022 -0.8781
  170SOPE   O2119168   2.527   3.019   6.981 -0.0600 -0.4330 -0.4078
  170SOPE   C2119169   2.393   3.041   6.963 -0.5064  0.4188 -0.0454
  170SOPE   O2219170   2.306   2.954   6.948 -0.2632  0.1953  0.2639
  170SOPE   C2219171   2.352   3.186   6.965  0.5579 -0.4340  0.6937
  170SOPE   H2R19172   2.311   3.210   6.864  1.5211 -1.3263  0.0619
  170SOPE   H2S19173   2.446   3.243   6.976  0.9816 -0.4082 -2.1712
  170SOPE    C319174   2.697   2.850   7.022  0.0515 -0.0204 -0.0915
  170SOPE    HX19175   2.766   2.923   6.976 -0.7880  0.3851 -0.7528
  170SOPE    HY19176   2.722   2.747   6.988  0.4792 -0.4883  1.5563
  170SOPE   O3119177   2.697   2.846   7.166 -0.0076 -0.4782 -0.1155
  170SOPE   C3119178   2.798   2.776   7.216 -0.2457 -0.1412  0.0082
  170SOPE   O3219179   2.898   2.741   7.162 -0.6400 -0.1697  0.0189
  170SOPE   C3219180   2.768   2.745   7.367  0.2757 -0.0628  0.6941
  170SOPE   H2X19181   2.713   2.649   7.377 -0.4825  0.3971  0.9663
  170SOPE   H2Y19182   2.708   2.831   7.402 -0.0210  1.2147 -2.5598
  170SOPE   C2319183   2.246   3.222   7.074 -0.1036  0.6651  0.3526
  170SOPE   H3R19184   2.194   3.131   7.110 -0.6788  1.1718  0.8241
  170SOPE   H3S19185   2.171   3.294   7.037 -0.1123 -0.1795 -1.3766
  170SOPE   C2419186   2.306   3.284   7.196  0.7832 -0.3223 -0.0725
  170SOPE   H4R19187   2.379   3.217   7.248 -0.4290 -0.7328  1.1630
  170SOPE   H4S19188   2.376   3.367   7.171  1.2395 -0.1013  1.7555
  170SOPE   C2519189   2.204   3.349   7.305 -0.2945 -0.4459 -0.6524
  170SOPE   H5R19190   2.151   3.429   7.250  0.9524 -1.5602 -3.6984
  170SOPE   H5S19191   2.135   3.270   7.341  0.2664 -0.7022 -0.1089
  170SOPE   C2619192   2.283   3.404   7.426 -0.1958  0.2218  0.5488
  170SOPE   H6R19193   2.221   3.397   7.518 -1.4260  1.8790 -0.1012
  170SOPE   H6S19194   2.381   3.351   7.428 -0.2918 -0.0359 -0.6550
  170SOPE   C2719195   2.303   3.553   7.411  0.0645  0.0280 -0.2098
  170SOPE   H7R19196   2.369   3.573   7.323 -1.2385  1.0021 -0.9974
  170SOPE   H7S19197   2.206   3.605   7.395 -0.5635 -0.8719  0.5675
  170SOPE   C2819198   2.365   3.611   7.539 -0.0876 -0.5862 -0.2487
  170SOPE   H8R19199   2.422   3.525   7.578 -0.1471 -0.8503 -0.7327
  170SOPE   H8S19200   2.430   3.699   7.518 -0.6228 -0.2511 -0.5337
  170SOPE   C2919201   2.254   3.652   7.633 -0.0309 -0.9385  0.1110
  170SOPE   H9119202   2.206   3.748   7.609  0.2921 -1.2315 -1.8478
  170SOPE  C21019203   2.209   3.586   7.742  0.3231 -0.3445 -0.0166
  170SOPE  H10119204   2.115   3.612   7.792  1.1253 -1.3347  2.1384
  170SOPE  C21119205   2.267   3.461   7.803  0.0383  0.0831 -0.6774
  170SOPE  H11R19206   2.370   3.457   7.762  0.7389  1.7465  0.8026
  170SOPE  H11S19207   2.217   3.366   7.774  1.3980 -1.8412  2.5697
  170SOPE  C21219208   2.256   3.467   7.956 -0.7241 -1.0358  0.2040
  170SOPE  H12R19209   2.299   3.370   7.990  0.3928 -0.8282 -0.5768
  170SOPE  H12S19210   2.153   3.477   7.996 -1.1648 -4.6667  0.3473
  170SOPE  C21319211   2.348   3.585   8.014 -0.6031 -0.4390 -1.0212
  170SOPE  H13R19212   2.324   3.685   7.974  1.8489  1.0023  0.7716
  170SOPE  H13S19213   2.457   3.562   8.006 -0.6992 -1.7553  0.9087
  170SOPE  C21419214   2.320   3.605   8.163 -0.5165  0.0704  0.1177
  170SOPE  H14R19215   2.345   3.504   8.203  2.3305  0.0682 -1.3558
  170SOPE  H14S19216   2.214   3.623   8.190 -0.4505  0.7178 -0.0446
  170SOPE  C21519217   2.431   3.695   8.233  0.3134 -0.6946 -0.0375
  170SOPE  H15R19218   2.418   3.797   8.190  1.4478 -0.7274 -0.4719
  170SOPE  H15S19219   2.533   3.654   8.225  0.0147 -1.3831 -0.4454
  170SOPE  C21619220   2.398   3.718   8.386 -0.4564 -0.3363 -0.1348
  170SOPE  H16R19221   2.288   3.724   8.403 -0.7594  1.2857 -2.2355
  170SOPE  H16S19222   2.431   3.819   8.417  0.0806 -0.7252  0.5837
  170SOPE  C21719223   2.454   3.603   8.471 -0.9519  0.0734  0.4471
  170SOPE  H17R19224   2.561   3.633   8.481 -1.1268  0.5519  0.9230
  170SOPE  H17S19225   2.466   3.505   8.420  1.4563 -1.3115  3.3303
  170SOPE  C21819226   2.409   3.585   8.618 -0.8013 -0.4536  0.1112
  170SOPE  H18R19227   2.298   3.594   8.627 -0.7534  1.4115 -0.5737
  170SOPE  H18S19228   2.443   3.675   8.674 -1.4303  1.1843 -1.9569
  170SOPE  H18T19229   2.430   3.490   8.670 -0.2220  0.0130  0.7471
  170SOPE   C3319230   2.903   2.738   7.440 -0.9618  0.4747  0.5358
  170SOPE   H3X19231   2.974   2.817   7.410  1.6264 -2.0413 -0.3948
  170SOPE   H3Y19232   2.945   2.639   7.412 -0.0260  0.8886  0.4726
  170SOPE   C3419233   2.884   2.748   7.591  0.4790 -0.3851 -0.1052
  170SOPE   H4X19234   2.864   2.853   7.620 -0.7250 -0.8227  0.7120
  170SOPE   H4Y19235   2.981   2.714   7.635 -0.2734 -1.2810  0.9273
  170SOPE   C3519236   2.768   2.667   7.660 -0.6873 -1.0206  0.0849
  170SOPE   H5X19237   2.775   2.561   7.625 -0.4808 -1.1508  0.5197
  170SOPE   H5Y19238   2.672   2.711   7.626 -0.0854  0.9854  0.8297
  170SOPE   C3619239   2.781   2.660   7.803 -0.9156 -0.1551 -0.3388
  170SOPE   H6X19240   2.876   2.609   7.825  0.3277  1.0350 -2.5345
  170SOPE   H6Y19241   2.702   2.590   7.836 -1.1495  0.3789  0.2684
  170SOPE   C3719242   2.763   2.796   7.870  1.0288 -0.1791 -0.1511
  170SOPE   H7X19243   2.671   2.854   7.848  1.9717  1.6486  0.4804
  170SOPE   H7Y19244   2.850   2.864   7.853  0.6790  0.8015  1.6689
  170SOPE   C3819245   2.756   2.770   8.019 -0.0232 -0.5614 -0.5856
  170SOPE   H8X19246   2.859   2.754   8.059  0.7364  3.6524 -0.4307
  170SOPE   H8Y19247   2.695   2.687   8.060  0.5512 -1.3353 -1.2684
  170SOPE   C3919248   2.714   2.898   8.091  0.3653 -0.0105 -0.7346
  170SOPE   H9X19249   2.610   2.916   8.058  0.0183  0.1191  0.3869
  170SOPE   H9Y19250   2.777   2.981   8.053  0.6837 -0.5308 -1.3554
  170SOPE  C31019251   2.726   2.900   8.248 -0.2717 -0.6612 -0.6546
  170SOPE  H10X19252   2.715   3.002   8.291  2.8055  0.4782 -2.2241
  170SOPE  H10Y19253   2.833   2.883   8.273  0.3726 -0.3857 -3.0397
  170SOPE  C31119254   2.636   2.809   8.339 -0.0133 -0.0354  0.2742
  170SOPE  H11X19255   2.663   2.702   8.340 -1.2002 -0.3742 -1.0219
  170SOPE  H11Y19256   2.535   2.810   8.292 -0.5863  1.0075  1.4610
  170SOPE  C31219257   2.612   2.872   8.483  0.7417 -0.4494 -0.1813
  170SOPE  H12X19258   2.562   2.970   8.465  1.9196 -0.1608 -2.1352
  170SOPE  H12Y19259   2.711   2.898   8.527  0.3196  0.6489  0.1694
  170SOPE  C31319260   2.510   2.788   8.563  0.4467  0.4411  0.8520
  170SOPE  H13X19261   2.548   2.687   8.539 -1.5172  0.2948 -2.1628
  170SOPE  H13Y19262   2.407   2.805   8.527  0.4547 -1.2253 -0.0173
  170SOPE  C31419263   2.518   2.830   8.707  0.1119 -0.2599  0.6176
  170SOPE  H14X19264   2.486   2.936   8.712 -1.3474 -0.6084 -0.5348
  170SOPE  H14Y19265   2.625   2.815   8.733  0.2244 -1.7557 -0.5590
  170SOPE  C31519266   2.426   2.743   8.794 -0.1480  0.1090  0.2284
  170SOPE  H15X19267   2.431   2.641   8.751  2.7112 -0.4592  1.6765
  170SOPE  H15Y19268   2.323   2.787   8.798  0.9004  2.8626 -0.7115
  170SOPE  C31619269   2.467   2.735   8.940  0.5259 -0.1271  0.8564
  170SOPE  H16X19270   2.458   2.835   8.986 -2.0253  0.1797 -0.1699
  170SOPE  H16Y19271   2.574   2.709   8.954  0.1582 -3.0338 -0.8608
  170SOPE  C31719272   2.392   2.633   9.020  0.2496 -0.3768 -0.6840
  170SOPE  H17X19273   2.284   2.654   9.005  0.0408  0.1181  1.2493
  170SOPE  H17Y19274   2.409   2.654   9.128  1.0121 -2.8159 -0.2626
  170SOPE  C31819275   2.425   2.492   8.987 -0.0962 -0.9079  0.4376
  170SOPE  H18X19276   2.533   2.469   8.992 -0.0639 -2.1874 -3.1433
  170SOPE  H18Y19277   2.399   2.469   8.881  0.4051  1.3531 -0.2392
  170SOPE  H18Z19278   2.370   2.424   9.056  1.2916 -1.3720  1.1272
  171SOPE     N19279   3.248   0.192   6.413  0.9762  0.2626  0.5592
  171SOPE   HN119280   3.240   0.121   6.489 -1.3582 -1.4739 -1.1849
  171SOPE   HN219281   3.344   0.233   6.416  1.0033  0.1462  1.5215
  171SOPE   HN319282   3.181   0.269   6.432  1.6478  1.5152 -1.7388
  171SOPE   C1219283   3.220   0.118   6.287  0.3437 -0.3288  0.1037
  171SOPE  H12A19284   3.230   0.179   6.195  0.1252 -2.5369 -1.4679
  171SOPE  H12B19285   3.119   0.075   6.299  0.3005 -0.4811 -0.7343
  171SOPE   C1119286   3.316   0.001   6.269  0.1164  0.0596  0.2507
  171SOPE  H11A19287   3.420   0.033   6.247  1.6037 -2.4036  2.9131
  171SOPE  H11B19288   3.281  -0.058   6.182  0.0942 -0.1171  0.3774
  171SOPE     P19289   3.368  -0.217   6.384 -0.1105 -0.0652  0.0536
  171SOPE   O1319290   3.501  -0.216   6.311  0.4328 -0.6350 -0.8302
  171SOPE   O1419291   3.257  -0.305   6.333 -0.3106 -0.3784  0.4839
  171SOPE   O1219292   3.320  -0.065   6.395  0.6143 -0.3393  0.5347
  171SOPE   O1119293   3.401  -0.260   6.538  0.6816 -0.5650  0.4288
  171SOPE    C119294   3.373  -0.167   6.642 -0.9631  0.2191  0.2936
  171SOPE    HA19295   3.268  -0.169   6.678 -0.7747  1.8947  1.0292
  171SOPE    HB19296   3.397  -0.061   6.620  2.0850 -0.6664 -1.2904
  171SOPE    C219297   3.473  -0.203   6.757  0.2512  0.2376  0.4755
  171SOPE    HS19298   3.577  -0.200   6.718 -0.2140 -1.2680 -0.9674
  171SOPE   O2119299   3.442  -0.341   6.801  0.3641 -0.1626  0.1509
  171SOPE   C2119300   3.547  -0.419   6.835 -0.2133 -0.1463 -0.6256
  171SOPE   O2219301   3.662  -0.386   6.835 -0.6104  0.2947  0.3388
  171SOPE   C2219302   3.493  -0.559   6.855  0.1062  0.2351  0.0676
  171SOPE   H2R19303   3.541  -0.614   6.771 -1.7766  1.6350 -2.0467
  171SOPE   H2S19304   3.382  -0.553   6.851  0.2095  1.4640 -1.7894
  171SOPE    C319305   3.455  -0.098   6.867 -0.1670 -0.1425  0.4021
  171SOPE    HX19306   3.349  -0.088   6.897 -0.1598  0.1084  0.3471
  171SOPE    HY19307   3.472  -0.000   6.816 -1.5842 -0.0041  0.1668
  171SOPE   O3119308   3.538  -0.128   6.981  0.3970  0.2900 -0.8510
  171SOPE   C3119309   3.666  -0.114   6.962 -0.8457 -0.3792 -0.1151
  171SOPE   O3219310   3.722  -0.070   6.862 -0.2686 -0.6201  0.2616
  171SOPE   C3219311   3.759  -0.150   7.078  0.1561 -0.2306 -0.3262
  171SOPE   H2X19312   3.814  -0.057   7.104 -2.2968  2.2155 -3.0479
  171SOPE   H2Y19313   3.818  -0.234   7.037 -2.3807 -1.8441 -0.8816
  171SOPE   C2319314   3.544  -0.611   6.993  0.3129  0.3762  0.7064
  171SOPE   H3R19315   3.651  -0.597   7.019  0.7803 -0.9668 -0.3669
  171SOPE   H3S19316   3.531  -0.721   6.994  1.3075  0.2410  0.3214
  171SOPE   C2419317   3.456  -0.553   7.106 -0.6464  0.3518 -0.6440
  171SOPE   H4R19318   3.453  -0.442   7.099  0.7275  0.4244 -0.3255
  171SOPE   H4S19319   3.352  -0.591   7.094 -0.2386 -0.7527 -0.7831
  171SOPE   C2519320   3.505  -0.590   7.249  0.3259  0.0177  0.6185
  171SOPE   H5R19321   3.511  -0.701   7.259  1.7352  0.1039  0.9181
  171SOPE   H5S19322   3.601  -0.537   7.266 -0.2084  0.5291  2.1911
  171SOPE   C2619323   3.410  -0.548   7.360  0.1867  0.2773  0.2673
  171SOPE   H6R19324   3.407  -0.437   7.348 -0.3541  0.4049  1.3912
  171SOPE   H6S19325   3.306  -0.584   7.358  0.3565 -0.2910  1.0372
  171SOPE   C2719326   3.467  -0.587   7.502  0.3654 -0.5556 -0.1000
  171SOPE   H7R19327   3.467  -0.698   7.509 -1.7272 -0.6075 -0.0703
  171SOPE   H7S19328   3.568  -0.542   7.500 -0.1715  0.7064 -1.8764
  171SOPE   C2819329   3.379  -0.535   7.615  0.2846 -0.1332 -0.1957
  171SOPE   H8R19330   3.438  -0.576   7.699  1.2205  1.5215 -0.0135
  171SOPE   H8S19331   3.388  -0.425   7.626  1.5282 -0.2758  0.4322
  171SOPE   C2919332   3.231  -0.576   7.618  0.0023  0.1471 -0.4367
  171SOPE   H9119333   3.180  -0.576   7.520 -3.8638 -0.4289  1.4120
  171SOPE  C21019334   3.163  -0.615   7.727  0.4624 -0.3167  0.7874
  171SOPE  H10119335   3.057  -0.642   7.713  1.1902 -1.5369 -4.3792
  171SOPE  C21119336   3.214  -0.631   7.864 -0.0391 -0.5785 -0.2683
  171SOPE  H11R19337   3.316  -0.589   7.875 -0.5276 -0.0031  2.9936
  171SOPE  H11S19338   3.211  -0.740   7.883 -1.1370 -0.7818 -1.4212
  171SOPE  C21219339   3.116  -0.559   7.959 -0.5153  0.2764  0.2717
  171SOPE  H12R19340   3.017  -0.600   7.933 -0.4919  0.3339  0.0918
  171SOPE  H12S19341   3.123  -0.450   7.940  0.4676 -0.1283 -1.8909
  171SOPE  C21319342   3.137  -0.578   8.104  0.2184 -0.8926 -0.6598
  171SOPE  H13R19343   3.227  -0.520   8.134 -1.2560  1.7467 -0.9906
  171SOPE  H13S19344   3.149  -0.683   8.136  1.7792 -0.8991 -1.1582
  171SOPE  C21419345   3.025  -0.502   8.192 -0.1858 -0.0509 -0.4942
  171SOPE  H14R19346   2.936  -0.564   8.170 -0.7465  1.7913 -4.4397
  171SOPE  H14S19347   3.007  -0.401   8.148 -2.5237 -0.1457  0.1213
  171SOPE  C21519348   3.057  -0.497   8.341 -0.2199  0.1540 -0.4349
  171SOPE  H15R19349   3.164  -0.469   8.347 -0.5028  1.1504  4.8093
  171SOPE  H15S19350   3.044  -0.599   8.383  0.6155  1.3685  3.1843
  171SOPE  C21619351   2.983  -0.395   8.429  0.7001  0.4535  0.2435
  171SOPE  H16R19352   2.885  -0.445   8.449  2.0289 -2.3679  0.2950
  171SOPE  H16S19353   2.963  -0.301   8.374 -1.2205 -0.7263 -1.2668
  171SOPE  C21719354   3.051  -0.366   8.562  0.1088  0.5125 -0.3991
  171SOPE  H17R19355   3.003  -0.279   8.613  0.7701  0.5934  0.0936
  171SOPE  H17S19356   3.152  -0.325   8.541 -0.2604  0.8373 -1.6552
  171SOPE  C21819357   3.066  -0.476   8.672  0.4353 -0.0187  0.4599
  171SOPE  H18R19358   3.110  -0.426   8.761 -2.4566  0.9473  1.4750
  171SOPE  H18S19359   3.131  -0.564   8.652  2.0955  1.1783  0.3308
  171SOPE  H18T19360   2.967  -0.506   8.714  1.4979 -3.1363  0.9909
  171SOPE   C3319361   3.669  -0.184   7.199 -0.6788  0.2253 -0.9109
  171SOPE   H3X19362   3.621  -0.282   7.177  1.5597 -0.6629 -2.2275
  171SOPE   H3Y19363   3.590  -0.108   7.218 -1.9544 -1.3534  0.4347
  171SOPE   C3419364   3.751  -0.178   7.329  0.2295  0.7860  0.4542
  171SOPE   H4X19365   3.808  -0.083   7.338 -0.0309  0.8111  2.1534
  171SOPE   H4Y19366   3.828  -0.257   7.321 -0.1426  0.4574  0.0690
  171SOPE   C3519367   3.664  -0.209   7.451  0.4437  0.2941 -0.5597
  171SOPE   H5X19368   3.639  -0.317   7.451  0.9192  0.1776 -0.1493
  171SOPE   H5Y19369   3.567  -0.156   7.439 -0.7592 -1.6393  0.2722
  171SOPE   C3619370   3.729  -0.162   7.583  0.2739 -0.5612  1.0641
  171SOPE   H6X19371   3.737  -0.051   7.572 -3.0513 -0.3406 -0.4549
  171SOPE   H6Y19372   3.827  -0.211   7.599 -0.0524 -1.5327  0.2068
  171SOPE   C3719373   3.640  -0.194   7.698 -1.0286  0.2788 -0.7802
  171SOPE   H7X19374   3.616  -0.301   7.714 -2.0936  0.5658 -0.3873
  171SOPE   H7Y19375   3.540  -0.150   7.679 -2.6300 -3.5604 -2.1144
  171SOPE   C3819376   3.712  -0.141   7.826  1.4756  0.5462 -0.0250
  171SOPE   H8X19377   3.742  -0.034   7.823  1.4237  0.6099  1.2699
  171SOPE   H8Y19378   3.805  -0.201   7.836  1.3988  0.2832 -0.8204
  171SOPE   C3919379   3.633  -0.152   7.955  0.4718  0.7115 -0.1243
  171SOPE   H9X19380   3.589  -0.253   7.941  1.5193 -0.0853  1.8477
  171SOPE   H9Y19381   3.544  -0.089   7.974 -1.3815 -0.5381 -3.8408
  171SOPE  C31019382   3.705  -0.160   8.091 -0.1464  0.0565  0.5114
  171SOPE  H10X19383   3.748  -0.060   8.115  1.0085 -0.5267  0.9457
  171SOPE  H10Y19384   3.786  -0.237   8.090  0.2618  0.4803  0.6041
  171SOPE  C31119385   3.615  -0.198   8.209 -0.1763  0.2078  0.2880
  171SOPE  H11X19386   3.605  -0.308   8.206  0.9045  0.1054  0.0270
  171SOPE  H11Y19387   3.517  -0.149   8.192 -0.0903  0.2518 -0.0922
  171SOPE  C31219388   3.667  -0.156   8.350 -0.1499 -0.1694  0.0866
  171SOPE  H12X19389   3.680  -0.046   8.352  0.9424 -0.2998  0.5426
  171SOPE  H12Y19390   3.765  -0.209   8.350 -1.1246 -2.0881 -1.3330
  171SOPE  C31319391   3.574  -0.202   8.460 -0.0245 -0.3194  1.4420
  171SOPE  H13X19392   3.555  -0.309   8.438  2.4400 -0.6566  0.5737
  171SOPE  H13Y19393   3.473  -0.156   8.461  0.1814  0.1404  2.1482
  171SOPE  C31419394   3.617  -0.201   8.612 -0.4774 -0.0162 -0.3191
  171SOPE  H14X19395   3.699  -0.275   8.622 -0.9505 -0.5575 -0.3861
  171SOPE  H14Y19396   3.521  -0.230   8.660 -0.9329  0.1159 -1.1451
  171SOPE  C31519397   3.651  -0.061   8.658  0.0515 -0.7137 -0.8096
  171SOPE  H15X19398   3.565   0.007   8.645 -0.7643 -1.0527  2.0688
  171SOPE  H15Y19399   3.745  -0.021   8.614  1.1694  0.1568  2.1584
  171SOPE  C31619400   3.670  -0.070   8.815  0.2105 -0.7436 -0.2558
  171SOPE  H16X19401   3.740  -0.151   8.846  0.5962  0.5299  2.4995
  171SOPE  H16Y19402   3.569  -0.101   8.850 -0.1698 -0.2778 -0.9266
  171SOPE  C31719403   3.712   0.069   8.873 -0.2047 -0.2048 -0.7635
  171SOPE  H17X19404   3.641   0.140   8.825  1.3753  0.6594 -1.9262
  171SOPE  H17Y19405   3.816   0.091   8.840 -0.3646 -0.3896 -1.3929
  171SOPE  C31819406   3.718   0.080   9.022  0.6274  0.1076  0.0944
  171SOPE  H18X19407   3.613   0.076   9.059  0.3203 -0.3305 -0.8143
  171SOPE  H18Y19408   3.767   0.175   9.052  1.2920 -0.6532  1.5363
  171SOPE  H18Z19409   3.777  -0.004   9.066 -1.1953 -0.5733  1.3798
  172SOPE     N19410   2.973   2.575   6.950 -0.4543 -0.5919  0.0886
  172SOPE   HN119411   2.960   2.629   7.037  0.5888 -1.6521  0.9302
  172SOPE   HN219412   3.007   2.647   6.883 -1.1260 -0.1519  0.2114
  172SOPE   HN319413   2.879   2.544   6.917 -1.1953  0.9319  0.6885
  172SOPE   C1219414   3.069   2.461   6.975 -0.4888 -0.4616  0.3929
  172SOPE  H12A19415   3.029   2.400   7.060  0.0738  0.2085  1.1490
  172SOPE  H12B19416   3.162   2.504   7.017 -0.4439 -0.6215  0.4580
  172SOPE   C1119417   3.098   2.374   6.852 -0.3678  0.2833 -0.3466
  172SOPE  H11A19418   3.007   2.322   6.814 -0.6002  1.9766 -2.2246
  172SOPE  H11B19419   3.166   2.294   6.886  0.2197  0.6177 -0.7197
  172SOPE     P19420   3.313   2.435   6.704  0.2594  0.5853 -0.1711
  172SOPE   O1319421   3.343   2.513   6.582  0.1518 -0.1328  0.5194
  172SOPE   O1419422   3.335   2.290   6.679  0.2710 -0.0652 -0.2045
  172SOPE   O1219423   3.161   2.443   6.749 -0.4817 -0.1594 -0.3270
  172SOPE   O1119424   3.389   2.495   6.828  0.0729  0.4722  0.0529
  172SOPE    C119425   3.523   2.512   6.820 -1.0144 -0.2754  0.3358
  172SOPE    HA19426   3.549   2.619   6.815  0.3041 -0.6583 -3.0524
  172SOPE    HB19427   3.572   2.472   6.729 -1.4852  1.0067 -0.5062
  172SOPE    C219428   3.579   2.467   6.955 -0.5020 -0.5184 -0.7159
  172SOPE    HS19429   3.683   2.503   6.941 -1.3764  2.5797 -0.0704
  172SOPE   O2119430   3.573   2.325   6.972 -0.1864  0.2329 -0.2963
  172SOPE   C2119431   3.658   2.262   6.895  0.8611 -0.5018 -0.4088
  172SOPE   O2219432   3.723   2.305   6.796 -0.2359  0.6112  0.1039
  172SOPE   C2219433   3.678   2.127   6.952 -0.3742  0.5128 -0.8003
  172SOPE   H2R19434   3.680   2.044   6.878 -0.1430 -1.4976  1.3301
  172SOPE   H2S19435   3.594   2.099   7.019  0.7773  0.6495  0.7519
  172SOPE    C319436   3.518   2.530   7.079  0.1351 -0.3598  0.3574
  172SOPE    HX19437   3.407   2.533   7.068 -0.1080 -0.4026  2.3757
  172SOPE    HY19438   3.541   2.638   7.085  0.3677 -0.4255  0.6730
  172SOPE   O3119439   3.567   2.468   7.196  0.2092 -0.2135 -0.5224
  172SOPE   C3119440   3.482   2.389   7.261  1.1664  0.1610 -0.1590
  172SOPE   O3219441   3.372   2.360   7.213  0.5035 -0.0461  0.7738
  172SOPE   C3219442   3.533   2.330   7.390  0.0034  0.3408 -0.1748
  172SOPE   H2X19443   3.474   2.380   7.470  0.3467  1.4775 -0.6090
  172SOPE   H2Y19444   3.639   2.362   7.389  0.6847 -1.7897 -0.8292
  172SOPE   C2319445   3.811   2.106   7.025 -0.5905 -0.3763 -0.2365
  172SOPE   H3R19446   3.809   2.153   7.126 -3.6885 -1.7084  0.4494
  172SOPE   H3S19447   3.891   2.156   6.966 -1.7327  0.6359 -0.9794
  172SOPE   C2419448   3.848   1.956   7.045  0.5899 -0.1770 -0.1411
  172SOPE   H4R19449   3.792   1.911   7.130 -1.0567 -0.5076 -1.3328
  172SOPE   H4S19450   3.827   1.909   6.946 -0.0030 -1.3119  0.5078
  172SOPE   C2519451   3.998   1.946   7.084 -0.7596  0.1692  0.0998
  172SOPE   H5R19452   4.033   1.842   7.102  0.8210  0.6323 -0.1654
  172SOPE   H5S19453   4.065   2.001   7.014 -1.0624  0.0773 -0.2678
  172SOPE   C2619454   4.033   2.009   7.222 -0.5126  0.5250  0.1970
  172SOPE   H6R19455   4.142   1.998   7.242 -0.8873  2.2728  4.2429
  172SOPE   H6S19456   4.020   2.119   7.216  1.0238  0.7065 -5.1613
  172SOPE   C2719457   3.959   1.953   7.347 -0.2975 -0.4008  0.0703
  172SOPE   H7R19458   3.851   1.938   7.326  0.4275 -3.1094 -2.4866
  172SOPE   H7S19459   3.994   1.849   7.364 -0.8048 -0.7749 -1.0475
  172SOPE   C2819460   3.975   2.033   7.477  0.0793 -0.1191 -0.0881
  172SOPE   H8R19461   3.925   2.128   7.449 -1.6688 -1.1842 -0.7459
  172SOPE   H8S19462   3.922   1.977   7.557  0.6156  0.3447  0.6037
  172SOPE   C2919463   4.119   2.064   7.518 -0.6964  0.3978 -0.1635
  172SOPE   H9119464   4.186   1.982   7.486 -1.3883 -0.5955  0.8508
  172SOPE  C21019465   4.171   2.172   7.583  0.6725 -0.0058  0.8064
  172SOPE  H10119466   4.281   2.179   7.583  0.6596  0.5553 -0.8212
  172SOPE  C21119467   4.090   2.299   7.629  0.1963  0.8362 -0.0938
  172SOPE  H11R19468   4.037   2.336   7.539 -2.1780 -1.5733  0.1984
  172SOPE  H11S19469   4.167   2.373   7.660  0.1723  1.8928 -2.3670
  172SOPE  C21219470   3.996   2.283   7.753  0.8897 -0.7628  0.8594
  172SOPE  H12R19471   3.906   2.232   7.713  1.4940 -0.3901 -1.0792
  172SOPE  H12S19472   3.953   2.375   7.798 -0.6556 -0.7558 -0.5274
  172SOPE  C21319473   4.059   2.211   7.873  0.0147  0.0178  0.6603
  172SOPE  H13R19474   4.149   2.267   7.907 -0.6572  0.4944  1.7028
  172SOPE  H13S19475   4.097   2.117   7.827  0.3557  0.4750 -0.0201
  172SOPE  C21419476   3.959   2.194   7.993  0.3778 -0.9600  0.1678
  172SOPE  H14R19477   3.868   2.136   7.966 -0.6741  0.9255 -0.5221
  172SOPE  H14S19478   3.925   2.293   8.027 -0.6971 -0.9109 -0.9730
  172SOPE  C21519479   4.014   2.126   8.123 -1.0724  0.8714 -1.0195
  172SOPE  H15R19480   3.943   2.143   8.207 -0.0397 -3.2788  0.9678
  172SOPE  H15S19481   4.114   2.167   8.148 -2.1092  2.8837  0.1140
  172SOPE  C21619482   4.033   1.968   8.129  0.3977  0.1560  0.5894
  172SOPE  H16R19483   4.113   1.938   8.059 -1.5145 -1.1535 -1.1368
  172SOPE  H16S19484   3.934   1.923   8.105 -0.2541  2.0744 -0.5684
  172SOPE  C21719485   4.077   1.916   8.267 -0.1746 -0.3040 -0.3522
  172SOPE  H17R19486   4.014   1.966   8.344 -1.2449 -0.0200 -1.3882
  172SOPE  H17S19487   4.184   1.943   8.280 -0.1998 -0.2471 -0.2633
  172SOPE  C21819488   4.050   1.772   8.290  0.2785  0.4265  0.3670
  172SOPE  H18R19489   3.942   1.751   8.275  0.5406 -0.2067 -0.8265
  172SOPE  H18S19490   4.068   1.757   8.398  1.4347  0.5106  0.2006
  172SOPE  H18T19491   4.123   1.707   8.237 -1.1322  0.5337 -1.8457
  172SOPE   C3319492   3.506   2.181   7.400 -0.8384 -0.5945 -0.1883
  172SOPE   H3X19493   3.557   2.132   7.314 -0.4721  0.3776 -0.5425
  172SOPE   H3Y19494   3.396   2.174   7.405 -0.9454  1.2241  0.5936
  172SOPE   C3419495   3.569   2.124   7.533 -0.4197 -0.2735  0.0903
  172SOPE   H4X19496   3.679   2.143   7.531 -0.6664  1.4560  0.7637
  172SOPE   H4Y19497   3.555   2.014   7.526  1.4974 -0.5185 -0.5938
  172SOPE   C3519498   3.521   2.189   7.657 -0.0688 -0.0136  0.0023
  172SOPE   H5X19499   3.421   2.142   7.673 -0.4314 -0.1147 -2.2054
  172SOPE   H5Y19500   3.511   2.300   7.657  0.8300  0.1397 -2.6559
  172SOPE   C3619501   3.603   2.165   7.784 -0.0263  0.2536  0.1347
  172SOPE   H6X19502   3.689   2.233   7.801  2.2093 -2.0407 -1.1979
  172SOPE   H6Y19503   3.648   2.063   7.778 -1.5907 -0.5002  0.6123
  172SOPE   C3719504   3.512   2.173   7.901 -0.1798  0.5672 -0.7550
  172SOPE   H7X19505   3.430   2.101   7.883 -0.8308  1.0281  0.3056
  172SOPE   H7Y19506   3.463   2.272   7.898 -0.0342  0.6465 -0.4980
  172SOPE   C3819507   3.581   2.147   8.029 -0.3664  0.1231  0.2117
  172SOPE   H8X19508   3.673   2.209   8.029  0.3469 -0.8828 -1.0154
  172SOPE   H8Y19509   3.599   2.037   8.030  1.4079  0.3932 -0.0148
  172SOPE   C3919510   3.493   2.185   8.156 -0.2240 -0.8679 -0.0384
  172SOPE   H9X19511   3.389   2.145   8.150 -0.3645 -0.5231  0.0850
  172SOPE   H9Y19512   3.498   2.296   8.159 -1.4948 -0.7258 -1.7890
  172SOPE  C31019513   3.552   2.128   8.286  0.0289 -0.4542 -0.3163
  172SOPE  H10X19514   3.655   2.170   8.296 -0.3764  0.4482  0.2134
  172SOPE  H10Y19515   3.565   2.019   8.267 -1.0138 -0.5167 -0.7200
  172SOPE  C31119516   3.469   2.152   8.420  0.0346  0.6020 -0.4618
  172SOPE  H11X19517   3.533   2.134   8.509 -0.0531  1.9686 -0.1131
  172SOPE  H11Y19518   3.394   2.070   8.420  0.6909 -0.0211  0.7456
  172SOPE  C31219519   3.410   2.290   8.427 -0.5063  0.1024  0.4985
  172SOPE  H12X19520   3.350   2.333   8.343  0.7385  1.6447  0.3381
  172SOPE  H12Y19521   3.499   2.356   8.429 -0.4804  0.0439  1.4960
  172SOPE  C31319522   3.318   2.317   8.542  0.5867 -0.1653 -0.2010
  172SOPE  H13X19523   3.347   2.232   8.607 -2.1284 -1.9381 -1.1265
  172SOPE  H13Y19524   3.214   2.300   8.505  1.2348 -3.3410 -0.8624
  172SOPE  C31419525   3.327   2.458   8.597  0.0833  0.4550  0.5959
  172SOPE  H14X19526   3.242   2.516   8.555 -0.9780 -1.8988 -0.7630
  172SOPE  H14Y19527   3.416   2.518   8.570 -0.4863  0.9954 -0.1283
  172SOPE  C31519528   3.317   2.456   8.752 -0.1499  0.7704  0.4350
  172SOPE  H15X19529   3.404   2.405   8.798 -0.1217  0.6438  0.2393
  172SOPE  H15Y19530   3.229   2.394   8.778 -0.4331  0.8286 -0.3610
  172SOPE  C31619531   3.296   2.595   8.803  0.7213 -0.2063 -0.0049
  172SOPE  H16X19532   3.198   2.635   8.770  0.7447  0.6513  0.9267
  172SOPE  H16Y19533   3.380   2.658   8.766  1.4136 -2.2577 -2.2201
  172SOPE  C31719534   3.271   2.600   8.954  0.3751 -0.2105 -0.7009
  172SOPE  H17X19535   3.348   2.550   9.016 -0.5701  0.7046  1.2935
  172SOPE  H17Y19536   3.176   2.541   8.956 -1.4865  2.6302  0.9941
  172SOPE  C31819537   3.230   2.731   9.013 -0.9197 -0.1444  0.6355
  172SOPE  H18X19538   3.222   2.728   9.124  0.5330  0.2681  0.7749
  172SOPE  H18Y19539   3.142   2.775   8.960 -2.6461 -0.5856  2.9326
  172SOPE  H18Z19540   3.311   2.806   9.000 -0.9945  0.3487  2.5590
  173SAPI   C1219541   2.736   0.812  10.666 -0.3761  0.4254 -0.1769
  173SAPI    H219542   2.795   0.839  10.575 -0.1470  1.1656  0.1839
  173SAPI    O219543   2.670   0.928  10.721 -0.0712  0.2317 -0.3038
  173SAPI   HO219544   2.746   0.978  10.753  0.3806 -1.0880  0.7916
  173SAPI   C1319545   2.646   0.690  10.646 -0.3803 -0.3324  0.2371
  173SAPI    H319546   2.707   0.602  10.615  0.0028  0.2207 -0.6160
  173SAPI    O319547   2.563   0.719  10.529 -0.4296  0.1397 -0.8972
  173SAPI   HO319548   2.487   0.769  10.558 -1.1063 -1.3294 -0.0246
  173SAPI   C1419549   2.577   0.647  10.769  0.1039 -0.3342  0.0661
  173SAPI    H419550   2.510   0.724  10.813  1.3264  1.9279 -1.8187
  173SAPI    O419551   2.486   0.540  10.741 -0.0055 -0.0133 -0.3928
  173SAPI   HO419552   2.434   0.518  10.819 -0.1446  0.3369 -0.3858
  173SAPI   C1519553   2.686   0.609  10.873  0.0860 -0.2190  0.3559
  173SAPI    H519554   2.743   0.525  10.827  1.2176  1.2309 -0.9800
  173SAPI    O519555   2.621   0.553  10.986  0.0094  0.7233 -0.2322
  173SAPI   HO519556   2.600   0.461  10.968  0.6960  1.1117 -3.7185
  173SAPI   C1619557   2.766   0.724  10.904  0.2734 -0.0456  0.0355
  173SAPI    H619558   2.707   0.808  10.948 -0.0943  0.0278 -0.5792
  173SAPI    O619559   2.865   0.696  11.004  0.6996  0.3462  0.1199
  173SAPI   HO619560   2.923   0.623  10.982  2.0164  1.4778 -0.3105
  173SAPI   C1119561   2.838   0.772  10.773 -0.5317  0.1044 -0.0802
  173SAPI    H119562   2.885   0.678  10.737  1.5774  2.0567 -2.8889
  173SAPI     P19563   3.086   0.865  10.744  0.0344  0.2020  0.2620
  173SAPI   O1319564   3.148   0.731  10.785  0.1229  0.0252 -0.0450
  173SAPI   O1419565   3.160   0.989  10.782 -0.4949 -0.0738 -0.1686
  173SAPI   O1219566   2.931   0.872  10.803 -0.5016 -0.2187  0.6296
  173SAPI   O1119567   3.062   0.874  10.592  0.0604  0.8972  0.2560
  173SAPI    C119568   3.130   0.772  10.513 -0.8258  0.7666  0.4199
  173SAPI    HA19569   3.104   0.670  10.549 -0.3323  0.5734  0.2316
  173SAPI    HB19570   3.090   0.784  10.411  0.7522  1.0723 -0.1914
  173SAPI    C219571   3.285   0.790  10.500 -0.1329  0.2749  0.5866
  173SAPI    HS19572   3.331   0.797  10.601  0.1766  3.1607  0.3293
  173SAPI   O2119573   3.316   0.911  10.435 -0.1431 -0.1481 -0.6540
  173SAPI   C2119574   3.429   0.971  10.456  0.0906  0.1570  0.5143
  173SAPI   O2219575   3.517   0.934  10.537 -0.0789 -0.5574  0.1790
  173SAPI   C2219576   3.438   1.098  10.367  0.6505  0.5130 -1.1459
  173SAPI   H2R19577   3.360   1.088  10.289 -0.2283 -2.2210 -0.0305
  173SAPI   H2S19578   3.422   1.185  10.434 -0.3288 -2.4579  2.8951
  173SAPI    C319579   3.349   0.667  10.427 -0.2576  0.1884  0.3066
  173SAPI    HX19580   3.308   0.581  10.483  0.6342 -0.3083  0.2040
  173SAPI    HY19581   3.459   0.667  10.441 -0.3463  2.1352  1.3500
  173SAPI   O3119582   3.311   0.669  10.285 -0.0935 -0.4609  0.2762
  173SAPI   C3119583   3.283   0.553  10.234 -0.5816 -0.3966  0.4859
  173SAPI   O3219584   3.288   0.443  10.297 -0.3703 -0.1700  0.2648
  173SAPI   C3219585   3.249   0.556  10.083  0.5869  0.0618 -0.3755
  173SAPI   H2X19586   3.324   0.622  10.034  1.6708 -0.1087  0.9662
  173SAPI   H2Y19587   3.148   0.600  10.068 -0.0846 -0.0471  2.9732
  173SAPI   C2319588   3.575   1.097  10.300  0.6238  0.2976 -0.2207
  173SAPI   H3R19589   3.655   1.111  10.376  1.9210  2.6501 -1.8836
  173SAPI   H3S19590   3.583   1.190  10.240  1.9392 -0.1021 -0.7032
  173SAPI   C2419591   3.607   0.972  10.216  0.2206 -0.2257 -0.5858
  173SAPI   H4R19592   3.612   0.883  10.283 -1.5995 -1.4387 -1.9432
  173SAPI   H4S19593   3.714   0.991  10.195  0.1382  0.4571 -0.4118
  173SAPI   C2519594   3.527   0.951  10.089  0.0071 -0.8281  0.2609
  173SAPI   H5R19595   3.449   0.875  10.105 -0.5143 -0.4655 -0.4356
  173SAPI   C2619596   3.552   1.000   9.960 -0.4531 -0.2329 -0.5601
  173SAPI   H6R19597   3.481   0.980   9.878 -1.1139 -0.0148 -0.0508
  173SAPI   C2719598   3.659   1.091   9.922  0.3779 -1.1312  0.3326
  173SAPI   H7R19599   3.721   1.033   9.850  0.2330  0.9531 -1.5601
  173SAPI   H7S19600   3.730   1.112  10.005 -0.3182  0.0254  0.6538
  173SAPI   C2819601   3.615   1.214   9.850  0.5959 -0.0638  0.9537
  173SAPI   H8R19602   3.571   1.281   9.925 -2.7651 -1.9361  0.8329
  173SAPI   C2919603   3.594   1.224   9.717  0.3009  0.0641 -0.2754
  173SAPI   H9R19604   3.541   1.312   9.677  0.4384  0.4906  0.4539
  173SAPI  C21019605   3.632   1.119   9.620  0.7072  0.5045 -0.1450
  173SAPI  H10R19606   3.661   1.024   9.669  0.6034  0.3673 -0.3493
  173SAPI  H10S19607   3.716   1.168   9.567  1.0889 -0.6032 -0.5822
  173SAPI  C21119608   3.515   1.071   9.532 -0.2576 -0.7571  0.2132
  173SAPI  H11R19609   3.437   1.019   9.588 -1.9140  0.6897 -0.6345
  173SAPI  C21219610   3.496   1.113   9.402  0.7228  0.6235 -0.0405
  173SAPI  H12R19611   3.418   1.062   9.343  1.0554  0.1609 -0.0853
  173SAPI  C21319612   3.576   1.201   9.312  0.0493 -0.5250  0.2096
  173SAPI  H13R19613   3.633   1.284   9.358 -2.7141  1.0207  1.1278
  173SAPI  H13S19614   3.505   1.254   9.245  2.5831  3.9911  0.7037
  173SAPI  C21419615   3.675   1.132   9.221  0.2404 -0.1589  0.0055
  173SAPI  H14R19616   3.729   1.045   9.262  1.4614 -0.5116 -2.1775
  173SAPI  C21519617   3.701   1.174   9.098 -0.3675 -0.1983  0.2847
  173SAPI  H15R19618   3.766   1.102   9.047 -0.1679  0.1960 -0.0212
  173SAPI  C21619619   3.641   1.293   9.013  0.1469  0.8866  0.9734
  173SAPI  H16R19620   3.724   1.367   9.010  2.2504 -1.2478  2.3090
  173SAPI  H16S19621   3.559   1.334   9.075 -2.3419 -0.3947 -1.2619
  173SAPI  C21719622   3.573   1.252   8.879  0.8639 -0.4805 -0.0629
  173SAPI  H17R19623   3.515   1.340   8.844  4.0670  0.8344 -2.5040
  173SAPI  H17S19624   3.491   1.176   8.885 -2.6207  2.7514 -2.1598
  173SAPI  C21819625   3.678   1.220   8.775 -0.7556  0.6853  0.2943
  173SAPI  H18R19626   3.751   1.143   8.809  0.3434  1.7105  0.2993
  173SAPI  H18S19627   3.738   1.311   8.754 -1.3363  1.9474  3.4213
  173SAPI  C21919628   3.616   1.161   8.644  0.0575 -0.4583 -0.0219
  173SAPI  H19R19629   3.584   1.056   8.661  1.0718 -0.5479  1.5480
  173SAPI  H19S19630   3.702   1.152   8.575  0.3479 -2.8143  0.5534
  173SAPI  C22019631   3.507   1.247   8.584 -0.3207 -0.5099 -0.4348
  173SAPI  H20R19632   3.415   1.219   8.639 -0.4815 -0.2317 -0.5624
  173SAPI  H20S19633   3.491   1.226   8.476 -2.6054  1.3993 -0.5497
  173SAPI  H20T19634   3.528   1.354   8.603 -0.6349 -0.8098  1.8266
  173SAPI   C3319635   3.249   0.411  10.025  0.5417 -0.2198 -0.6505
  173SAPI   H3X19636   3.194   0.334  10.083  1.9147 -0.7234  0.0342
  173SAPI   H3Y19637   3.355   0.378  10.036  0.6442  0.7435  1.9326
  173SAPI   C3419638   3.227   0.394   9.872  0.7204  0.2961 -0.1490
  173SAPI   H4X19639   3.259   0.481   9.810  0.7430  0.4602  0.0904
  173SAPI   H4Y19640   3.118   0.402   9.853  0.9375  0.1864 -1.5050
  173SAPI   C3519641   3.286   0.260   9.810  0.1275 -0.0912  0.5746
  173SAPI   H5X19642   3.222   0.176   9.844 -0.1220  1.1522  3.4836
  173SAPI   H5Y19643   3.387   0.243   9.855  0.9094  0.9930 -0.7137
  173SAPI   C3619644   3.307   0.269   9.651 -0.1774  0.4011  0.4432
  173SAPI   H6X19645   3.360   0.178   9.617 -0.0095  0.3202  0.9153
  173SAPI   H6Y19646   3.382   0.350   9.634  0.6903 -0.0451  1.9937
  173SAPI   C3719647   3.176   0.293   9.580 -0.2459  0.3028 -0.4785
  173SAPI   H7X19648   3.143   0.394   9.611 -0.0340  0.2945 -0.2231
  173SAPI   H7Y19649   3.107   0.213   9.615  1.2293 -0.3286  1.1259
  173SAPI   C3819650   3.183   0.278   9.428  0.1809  0.5013 -0.6214
  173SAPI   H8X19651   3.210   0.179   9.383 -1.6553 -0.3939  0.1428
  173SAPI   H8Y19652   3.271   0.339   9.398 -0.5546  1.1450 -1.5045
  173SAPI   C3919653   3.057   0.325   9.357  0.0565 -0.3448  0.7839
  173SAPI   H9X19654   3.042   0.431   9.387  0.9838  0.2096 -0.6165
  173SAPI   H9Y19655   2.976   0.258   9.393 -0.1884 -0.5228 -0.0707
  173SAPI  C31019656   3.075   0.311   9.208  0.1840 -0.1554 -0.3942
  173SAPI  H10X19657   3.113   0.207   9.200  1.6936 -0.1872  4.2922
  173SAPI  H10Y19658   3.153   0.380   9.169  0.0757 -0.5685 -1.3676
  173SAPI  C31119659   2.952   0.326   9.112  0.4505 -0.1636 -0.3960
  173SAPI  H11X19660   2.867   0.258   9.138 -1.7321  1.2620 -3.1960
  173SAPI  H11Y19661   2.980   0.292   9.010  0.0148 -2.1200  0.0776
  173SAPI  C31219662   2.887   0.466   9.110 -1.1795 -0.4864  0.4869
  173SAPI  H12X19663   2.952   0.544   9.065 -1.2140 -1.2622 -0.9668
  173SAPI  H12Y19664   2.864   0.495   9.215 -0.6703  0.1798  0.4206
  173SAPI  C31319665   2.757   0.458   9.028  1.0432 -0.7080  0.4019
  173SAPI  H13X19666   2.694   0.538   9.073 -0.6869 -2.6200  1.5619
  173SAPI  H13Y19667   2.703   0.362   9.047 -2.9993  1.3731  0.4453
  173SAPI  C31419668   2.763   0.471   8.873 -0.2526  0.0051  0.2363
  173SAPI  H14X19669   2.825   0.382   8.851 -0.7669 -1.2512  3.4062
  173SAPI  H14Y19670   2.810   0.566   8.839  0.2937 -0.5464 -0.5848
  173SAPI  C31519671   2.627   0.463   8.810  0.6925  0.7177  0.7731
  173SAPI  H15X19672   2.578   0.562   8.808 -0.8177  0.0100 -1.6024
  173SAPI  H15Y19673   2.558   0.398   8.868 -0.5296  2.1146  0.9267
  173SAPI  C31619674   2.630   0.387   8.675 -0.4063 -0.7213 -0.0150
  173SAPI  H16X19675   2.661   0.284   8.701 -0.5392 -0.6684  0.3673
  173SAPI  H16Y19676   2.706   0.439   8.612 -0.8749  0.9139  0.7227
  173SAPI  C31719677   2.499   0.376   8.603 -0.3676 -0.8292 -0.1944
  173SAPI  H17X19678   2.512   0.323   8.506 -0.0854 -0.3565 -0.4237
  173SAPI  H17Y19679   2.460   0.479   8.584 -1.3086 -1.5664 -2.6008
  173SAPI  C31819680   2.388   0.299   8.681 -0.6397 -0.3108  0.3070
  173SAPI  H18X19681   2.294   0.280   8.624 -1.7304  0.0450  1.9206
  173SAPI  H18Y19682   2.353   0.355   8.771 -0.5199  0.1195  0.0881
  173SAPI  H18Z19683   2.422   0.195   8.701 -1.2214 -0.7949 -1.1211
  174SAPI   C1219684   0.713   2.488  11.173  0.1271  0.7354 -0.9642
  174SAPI    H219685   0.702   2.475  11.063  0.6702  1.4669 -1.1126
  174SAPI    O219686   0.598   2.544  11.240  0.5287  0.5959  0.0755
  174SAPI   HO219687   0.590   2.634  11.207  0.8786  0.4672 -0.3660
  174SAPI   C1319688   0.743   2.350  11.230  0.2918  0.5435 -0.2049
  174SAPI    H319689   0.833   2.305  11.183  0.6043 -1.1099  1.8514
  174SAPI    O319690   0.633   2.262  11.200 -0.4489  0.1150  0.6247
  174SAPI   HO319691   0.547   2.302  11.217 -2.8866 -3.7566 -0.9654
  174SAPI   C1419692   0.780   2.355  11.376  0.1334  0.1589 -0.3639
  174SAPI    H419693   0.700   2.410  11.430 -0.8478  0.7870 -2.3600
  174SAPI    O419694   0.779   2.227  11.431 -0.2264 -0.1677 -0.5290
  174SAPI   HO419695   0.820   2.162  11.374 -0.9928 -2.0175  0.9301
  174SAPI   C1519696   0.905   2.438  11.405  0.8297 -0.3264 -0.0625
  174SAPI    H519697   0.993   2.385  11.361  0.3990 -1.8830  0.8601
  174SAPI    O519698   0.937   2.457  11.546  0.3087 -0.3539  0.0020
  174SAPI   HO519699   1.033   2.461  11.545  0.3863 -1.3207  1.0113
  174SAPI   C1619700   0.883   2.574  11.344 -0.3505 -0.0496  0.5990
  174SAPI    H619701   0.827   2.644  11.409  1.0222  0.9065  0.8034
  174SAPI    O619702   1.007   2.631  11.349 -0.1582 -0.7206 -0.4302
  174SAPI   HO619703   0.992   2.718  11.311  1.1014  1.7578  4.0806
  174SAPI   C1119704   0.834   2.565  11.197 -0.5121 -0.1994  0.4839
  174SAPI    H119705   0.920   2.509  11.155  1.2529  0.5974  2.7457
  174SAPI     P19706   0.896   2.743  11.000  0.3458  0.2049 -0.4523
  174SAPI   O1319707   1.025   2.679  10.999 -0.4406  0.1870 -0.2206
  174SAPI   O1419708   0.888   2.889  10.989  0.3251  0.3089 -0.5410
  174SAPI   O1219709   0.821   2.695  11.139 -0.5709 -0.2048  0.5966
  174SAPI   O1119710   0.804   2.682  10.890  0.2549  0.0501 -0.9425
  174SAPI    C119711   0.682   2.749  10.857 -0.3978  0.2840 -0.7039
  174SAPI    HA19712   0.632   2.791  10.946 -0.0759 -0.3739 -0.1983
  174SAPI    HB19713   0.709   2.828  10.783 -1.3410  0.6467 -0.6696
  174SAPI    C219714   0.573   2.646  10.813  0.5166 -0.3540 -0.2711
  174SAPI    HS19715   0.554   2.566  10.887  0.5964 -0.7999 -0.7275
  174SAPI   O2119716   0.613   2.602  10.684  0.9548 -0.5609 -0.1875
  174SAPI   C2119717   0.689   2.491  10.695  0.6310 -0.5622 -1.1625
  174SAPI   O2219718   0.680   2.409  10.782 -0.1510  0.5216 -0.1057
  174SAPI   C2219719   0.797   2.484  10.586  0.2086  0.8521 -0.5593
  174SAPI   H2R19720   0.874   2.561  10.605  0.4094  1.2189 -2.6513
  174SAPI   H2S19721   0.847   2.386  10.597 -0.3247  0.7662  1.4880
  174SAPI    C319722   0.430   2.710  10.814 -0.4077 -0.0318 -0.1688
  174SAPI    HX19723   0.392   2.723  10.917 -0.0178 -0.7057  0.0630
  174SAPI    HY19724   0.363   2.633  10.771  0.5691 -0.2917 -1.2830
  174SAPI   O3119725   0.427   2.840  10.751 -0.3773  0.1511  0.6733
  174SAPI   C3119726   0.422   2.846  10.615  0.3075 -1.3863  0.5269
  174SAPI   O3219727   0.418   2.754  10.536  0.3082  0.2368  0.0750
  174SAPI   C3219728   0.438   2.986  10.565  0.3720 -0.7709 -0.0950
  174SAPI   H2X19729   0.543   3.016  10.586 -0.0993 -0.5554  2.1555
  174SAPI   H2Y19730   0.372   3.060  10.614 -0.3783 -0.5071 -1.4682
  174SAPI   C2319731   0.745   2.512  10.441  0.1068 -0.5595 -0.0593
  174SAPI   H3R19732   0.688   2.608  10.433  0.0348 -0.6945 -1.5338
  174SAPI   H3S19733   0.680   2.429  10.406  0.9267 -2.0148  1.6867
  174SAPI   C2419734   0.860   2.518  10.330 -0.4879 -0.4999  0.4194
  174SAPI   H4R19735   0.933   2.582  10.385  0.2619 -2.1414  1.4490
  174SAPI   H4S19736   0.819   2.581  10.248  2.0023  0.5427 -0.1283
  174SAPI   C2519737   0.919   2.387  10.288 -0.0523 -0.2609 -0.8191
  174SAPI   H5R19738   0.958   2.324  10.370 -1.2818  0.4035  0.3057
  174SAPI   C2619739   0.925   2.331  10.169 -0.5770  0.2322  0.0362
  174SAPI   H6R19740   0.961   2.228  10.154 -1.1770  0.3199 -2.5034
  174SAPI   C2719741   0.886   2.396  10.039  0.3455  0.4650  0.1507
  174SAPI   H7R19742   0.949   2.352   9.959 -2.5819 -2.0105 -1.0171
  174SAPI   H7S19743   0.900   2.506  10.038 -1.5645  0.7456 -1.0571
  174SAPI   C2819744   0.745   2.363   9.997 -0.4734  0.0391 -0.0035
  174SAPI   H8R19745   0.673   2.337  10.076 -0.0733 -1.1536 -0.0056
  174SAPI   C2919746   0.701   2.337   9.870  0.1063  0.2846  0.0071
  174SAPI   H9R19747   0.603   2.289   9.861  0.2406  0.2492 -1.4661
  174SAPI  C21019748   0.777   2.335   9.739 -0.3405  0.8268 -0.1628
  174SAPI  H10R19749   0.885   2.336   9.765 -0.7998 -1.7227  2.3425
  174SAPI  H10S19750   0.751   2.429   9.685 -0.2030 -0.5644 -2.8268
  174SAPI  C21119751   0.744   2.213   9.655  0.0098 -0.8455 -0.4895
  174SAPI  H11R19752   0.765   2.116   9.704  1.4039  0.1404  0.9786
  174SAPI  C21219753   0.697   2.228   9.531 -0.0483  0.0228 -0.3570
  174SAPI  H12R19754   0.687   2.137   9.470  0.3800  0.8962 -1.7622
  174SAPI  C21319755   0.677   2.357   9.453 -0.1189 -0.5598 -0.5726
  174SAPI  H13R19756   0.623   2.433   9.514  0.7284 -1.1520  0.9814
  174SAPI  H13S19757   0.612   2.327   9.368  0.6634 -1.7623 -0.7788
  174SAPI  C21419758   0.806   2.421   9.403 -0.1042  0.0351 -0.1196
  174SAPI  H14R19759   0.863   2.448   9.493  0.3528  1.3955 -0.7879
  174SAPI  C21519760   0.863   2.418   9.283 -0.2338 -0.2251 -0.8378
  174SAPI  H15R19761   0.961   2.463   9.261 -0.5116  0.6870 -0.2507
  174SAPI  C21619762   0.806   2.358   9.159  0.5117  0.1084  0.0537
  174SAPI  H16R19763   0.787   2.433   9.080  1.5108 -0.1151 -0.4206
  174SAPI  H16S19764   0.710   2.306   9.178  1.3348 -0.5400  3.0315
  174SAPI  C21719765   0.904   2.252   9.103  0.1286 -0.3150  0.4268
  174SAPI  H17R19766   0.937   2.187   9.187  0.3521 -0.2587  0.3820
  174SAPI  H17S19767   0.989   2.315   9.069  0.7710 -1.1918  0.3815
  174SAPI  C21819768   0.836   2.163   8.993 -0.4962 -0.1996  0.6502
  174SAPI  H18R19769   0.732   2.130   9.017 -1.0917  0.9366 -0.2578
  174SAPI  H18S19770   0.898   2.075   8.966  1.7192  1.4604  0.0114
  174SAPI  C21919771   0.823   2.234   8.851  0.1810  0.4666  0.0798
  174SAPI  H19R19772   0.925   2.259   8.815  1.5372 -2.3474  1.7073
  174SAPI  H19S19773   0.770   2.330   8.871  0.4198  0.3657  1.2413
  174SAPI  C22019774   0.740   2.158   8.749  0.1179 -0.0305  0.4324
  174SAPI  H20R19775   0.722   2.207   8.651  1.4080  0.1098  0.2517
  174SAPI  H20S19776   0.637   2.148   8.790 -0.4708  1.7514 -0.5103
  174SAPI  H20T19777   0.803   2.068   8.734  1.0762  0.4481  1.3988
  174SAPI   C3319778   0.413   2.991  10.412  0.4306  0.2323 -0.8561
  174SAPI   H3X19779   0.387   3.096  10.386  2.1569  0.8817 -0.0946
  174SAPI   H3Y19780   0.328   2.927  10.379 -0.8839  1.6926 -0.4171
  174SAPI   C3419781   0.536   2.957  10.322 -0.0631  0.1084  0.2399
  174SAPI   H4X19782   0.578   2.858  10.350 -0.4054 -0.7682 -2.1361
  174SAPI   H4Y19783   0.608   3.040  10.343 -0.1199  0.4197 -0.7683
  174SAPI   C3519784   0.512   2.958  10.171  0.7941 -0.1876  0.0110
  174SAPI   H5X19785   0.519   3.060  10.129  1.5492  0.0809  0.7441
  174SAPI   H5Y19786   0.412   2.913  10.153  0.9231 -0.6510  0.4369
  174SAPI   C3619787   0.610   2.866  10.102 -0.7596 -0.6454  0.1622
  174SAPI   H6X19788   0.591   2.761  10.134 -0.0017 -0.3029  1.8386
  174SAPI   H6Y19789   0.710   2.895  10.140 -1.8297  1.3680  1.6565
  174SAPI   C3719790   0.609   2.870   9.950 -0.1187 -0.2806 -0.6502
  174SAPI   H7X19791   0.702   2.823   9.914  2.0998  1.1521  2.7054
  174SAPI   H7Y19792   0.613   2.974   9.913  1.5217 -0.7071 -1.7743
  174SAPI   C3819793   0.491   2.792   9.892 -0.5984  0.9137 -0.6213
  174SAPI   H8X19794   0.397   2.828   9.941  0.0174  0.5872  0.8634
  174SAPI   H8Y19795   0.524   2.690   9.921 -0.2790  0.8685 -1.1391
  174SAPI   C3919796   0.481   2.799   9.740  0.3103  0.8408  0.5355
  174SAPI   H9X19797   0.459   2.900   9.700  1.3917  0.3415 -1.4436
  174SAPI   H9Y19798   0.393   2.739   9.709  0.7275  0.3903  0.2167
  174SAPI  C31019799   0.603   2.752   9.662 -0.0103  0.7754 -0.1860
  174SAPI  H10X19800   0.637   2.653   9.699  0.0893  0.5783 -0.7866
  174SAPI  H10Y19801   0.686   2.821   9.688 -0.7719  0.7777  2.5090
  174SAPI  C31119802   0.590   2.732   9.509  0.1788 -0.4648  0.0764
  174SAPI  H11X19803   0.522   2.645   9.494  0.1623 -0.5754  0.7652
  174SAPI  H11Y19804   0.692   2.694   9.484 -0.2112 -1.0369 -0.6839
  174SAPI  C31219805   0.548   2.860   9.430  0.4096  0.6690 -0.3839
  174SAPI  H12X19806   0.609   2.946   9.465 -1.6128  1.9904  0.0604
  174SAPI  H12Y19807   0.439   2.878   9.444  0.3251  0.2249 -0.4307
  174SAPI  C31319808   0.564   2.835   9.282  0.9297 -0.0339  0.1368
  174SAPI  H13X19809   0.478   2.775   9.245  0.3510  1.1247 -0.4834
  174SAPI  H13Y19810   0.657   2.777   9.265 -0.0701 -1.5582 -0.3147
  174SAPI  C31419811   0.563   2.971   9.201 -0.6479 -0.0460 -0.3654
  174SAPI  H14X19812   0.658   3.026   9.215  0.7557 -2.5516  0.6460
  174SAPI  H14Y19813   0.479   3.038   9.228  0.0918  0.0601  1.8708
  174SAPI  C31519814   0.568   2.950   9.049  0.1141  0.6118 -0.2932
  174SAPI  H15X19815   0.460   2.954   9.020 -0.2241  1.1724  0.9637
  174SAPI  H15Y19816   0.605   2.849   9.023  0.3041  0.3880  0.7976
  174SAPI  C31619817   0.621   3.075   8.973  0.1812 -0.3939  0.3081
  174SAPI  H16X19818   0.729   3.087   8.998  0.0886  0.1105  0.4927
  174SAPI  H16Y19819   0.570   3.165   9.014 -3.7879 -3.0070  1.6018
  174SAPI  C31719820   0.606   3.078   8.820 -0.0743  0.0073  0.5214
  174SAPI  H17X19821   0.504   3.092   8.777  0.4267  1.0704 -0.3685
  174SAPI  H17Y19822   0.645   2.986   8.772  0.7094 -0.3642  1.8430
  174SAPI  C31819823   0.679   3.205   8.764  0.8677  0.3389 -0.6102
  174SAPI  H18X19824   0.647   3.212   8.658  3.6645  1.7855 -1.4498
  174SAPI  H18Y19825   0.790   3.205   8.759  0.8574 -1.2687 -2.7047
  174SAPI  H18Z19826   0.645   3.298   8.814  0.7859 -0.6783  1.3325
  175SAPI   C1219827   5.095   5.877   6.335  0.4987 -0.3559  0.7077
  175SAPI    H219828   4.992   5.904   6.368  0.3353  0.9215 -0.7136
  175SAPI    O219829   5.093   5.743   6.299 -0.4235 -0.2674 -0.0135
  175SAPI   HO219830   5.050   5.698   6.372 -0.7395 -1.6359 -1.0118
  175SAPI   C1319831   5.113   5.957   6.200  0.4701  0.2052  0.2425
  175SAPI    H319832   5.093   6.065   6.216  0.5082  0.7970 -3.0830
  175SAPI    O319833   5.015   5.908   6.104  0.6129 -0.2121 -0.1434
  175SAPI   HO319834   5.036   5.815   6.097 -0.8630 -0.6366  0.6662
  175SAPI   C1419835   5.257   5.949   6.150 -0.4279  0.7879 -0.0149
  175SAPI    H419836   5.275   5.839   6.149  0.6753  0.9645 -0.7649
  175SAPI    O419837   5.272   5.991   6.017 -0.1146  0.1872 -0.2651
  175SAPI   HO419838   5.301   6.082   6.023  0.8237 -0.1784  1.1522
  175SAPI   C1519839   5.361   5.986   6.257 -0.0586 -1.1903 -0.4389
  175SAPI    H519840   5.349   6.095   6.275 -0.7595 -1.4352  0.6278
  175SAPI    O519841   5.496   5.967   6.208 -0.4616  0.0792 -0.5046
  175SAPI   HO519842   5.557   5.999   6.275  1.3599 -2.0318 -1.0606
  175SAPI   C1619843   5.345   5.907   6.395  0.0932 -0.5454  1.2506
  175SAPI    H619844   5.383   5.804   6.381  4.1959  0.9424 -0.0717
  175SAPI    O619845   5.433   5.971   6.489 -0.0404  0.1702 -0.3396
  175SAPI   HO619846   5.475   5.899   6.536  0.1458  1.1767  1.1389
  175SAPI   C1119847   5.203   5.916   6.436  0.5514  0.0705  0.6476
  175SAPI    H119848   5.181   6.022   6.464 -0.3590 -0.1855  0.9548
  175SAPI     P19849   5.069   5.884   6.668 -0.0050  0.4174 -0.1408
  175SAPI   O1319850   5.019   5.762   6.740  0.8241 -0.3890 -0.2528
  175SAPI   O1419851   4.968   5.975   6.603  0.1482  0.0739  0.0072
  175SAPI   O1219852   5.183   5.837   6.555 -0.6424 -0.2366  0.0295
  175SAPI   O1119853   5.144   5.971   6.781 -0.2242  0.4174  0.1402
  175SAPI    C119854   5.284   5.952   6.808 -0.2468 -0.1411  0.2977
  175SAPI    HA19855   5.341   5.973   6.715 -0.6258 -0.4379 -0.0018
  175SAPI    HB19856   5.326   6.021   6.884 -0.2697 -1.3899  1.4886
  175SAPI    C219857   5.321   5.812   6.864 -0.2417 -0.5504 -0.0781
  175SAPI    HS19858   5.320   5.744   6.776  1.4455 -2.2162  1.1126
  175SAPI   O2119859   5.222   5.767   6.957  0.1404  0.0545 -0.1721
  175SAPI   C2119860   5.192   5.643   6.968 -0.3823  0.5673 -0.2189
  175SAPI   O2219861   5.228   5.551   6.891  0.1815  0.0829  0.1616
  175SAPI   C2219862   5.103   5.627   7.100 -0.1486  0.2499 -0.0741
  175SAPI   H2R19863   5.147   5.686   7.183  0.5676 -1.4772  0.8152
  175SAPI   H2S19864   5.005   5.674   7.077 -1.0204  0.1894  3.1435
  175SAPI    C319865   5.463   5.800   6.928  0.7370 -0.4589 -0.3497
  175SAPI    HX19866   5.540   5.817   6.850  0.8929 -0.6763 -0.2465
  175SAPI    HY19867   5.488   5.695   6.956 -1.0014 -0.8827 -0.2393
  175SAPI   O3119868   5.477   5.889   7.041 -0.0710 -0.3342  0.4573
  175SAPI   C3119869   5.471   5.837   7.165 -0.1355 -0.2493 -0.0921
  175SAPI   O3219870   5.432   5.729   7.194  0.1864  0.5051  0.4163
  175SAPI   C3219871   5.505   5.957   7.257 -0.4584 -0.2959 -0.0875
  175SAPI   H2X19872   5.414   6.013   7.287 -0.1671  1.3476 -2.0843
  175SAPI   H2Y19873   5.576   6.023   7.204 -0.8178  1.0416  1.0163
  175SAPI   C2319874   5.083   5.472   7.146  0.5055  0.0431  0.0596
  175SAPI   H3R19875   5.051   5.415   7.056 -1.6130 -0.0418  0.8175
  175SAPI   H3S19876   5.001   5.454   7.219  0.1944 -1.6907 -0.6685
  175SAPI   C2419877   5.214   5.406   7.196  0.0062 -0.1495 -0.5009
  175SAPI   H4R19878   5.291   5.421   7.117 -0.2217 -0.2111 -0.7380
  175SAPI   H4S19879   5.183   5.299   7.202  0.7600 -0.2975  1.5864
  175SAPI   C2519880   5.276   5.468   7.320  0.2008 -0.4024  0.1671
  175SAPI   H5R19881   5.311   5.573   7.311  1.2705 -0.7889 -0.4270
  175SAPI   C2619882   5.291   5.412   7.442  0.4197 -0.6586  0.1094
  175SAPI   H6R19883   5.335   5.479   7.517 -0.1532 -1.8920  1.5863
  175SAPI   C2719884   5.251   5.275   7.487  0.5526  0.1513 -0.2631
  175SAPI   H7R19885   5.195   5.229   7.402 -3.5291  1.3723  1.5143
  175SAPI   H7S19886   5.177   5.273   7.570  0.3683 -0.3606 -0.4352
  175SAPI   C2819887   5.381   5.202   7.526  0.0598 -0.1957  0.7923
  175SAPI   H8R19888   5.426   5.147   7.443  0.5186 -2.5777  2.5097
  175SAPI   C2919889   5.437   5.194   7.647  0.1801  0.8947  0.3437
  175SAPI   H9R19890   5.527   5.132   7.661  0.4118  1.0699 -0.3615
  175SAPI  C21019891   5.384   5.260   7.773  0.6254  0.3544 -0.2776
  175SAPI  H10R19892   5.321   5.347   7.743 -0.1139 -0.2238 -0.4204
  175SAPI  H10S19893   5.459   5.318   7.832 -1.3523  1.3762  1.3564
  175SAPI  C21119894   5.299   5.161   7.865 -0.2477 -1.0725 -0.2832
  175SAPI  H11R19895   5.190   5.170   7.851 -0.3874 -3.7396 -1.5840
  175SAPI  C21219896   5.323   5.074   7.963 -0.0058  0.3652 -0.0592
  175SAPI  H12R19897   5.247   5.008   8.009  1.4557  0.5446  2.8089
  175SAPI  C21319898   5.455   5.037   8.015  0.2309 -0.8553 -0.5153
  175SAPI  H13R19899   5.529   5.065   7.937  0.8777  1.0514  0.6940
  175SAPI  H13S19900   5.461   4.930   8.045 -0.8205 -1.0173 -0.8675
  175SAPI  C21419901   5.489   5.117   8.139 -0.0598 -0.7873 -0.1735
  175SAPI  H14R19902   5.424   5.201   8.167  0.5105 -1.1483  2.6242
  175SAPI  C21519903   5.601   5.092   8.211  0.9999 -0.5687  0.3924
  175SAPI  H15R19904   5.624   5.144   8.304  3.0767 -2.2639  0.8968
  175SAPI  C21619905   5.696   4.986   8.179 -0.3058 -0.0296 -0.4564
  175SAPI  H16R19906   5.788   5.033   8.140  0.2177  0.4891  1.2900
  175SAPI  H16S19907   5.663   4.914   8.101  0.0663 -0.7052 -0.0071
  175SAPI  C21719908   5.721   4.898   8.300 -0.2549 -0.1596 -0.6371
  175SAPI  H17R19909   5.626   4.840   8.305 -2.0909  2.6717 -0.0225
  175SAPI  H17S19910   5.728   4.959   8.392 -0.4578  0.5596 -1.0940
  175SAPI  C21819911   5.845   4.802   8.293  0.4932  0.3236 -0.0101
  175SAPI  H18R19912   5.929   4.862   8.253  2.2020 -1.0125  1.4235
  175SAPI  H18S19913   5.812   4.723   8.222  1.5705 -1.8346  1.7833
  175SAPI  C21919914   5.891   4.730   8.417  0.0584  0.4464 -0.4539
  175SAPI  H19R19915   5.929   4.819   8.471  0.5737 -1.0193  1.7155
  175SAPI  H19S19916   5.970   4.659   8.386  0.2934  1.1880 -1.6267
  175SAPI  C22019917   5.775   4.666   8.498 -0.3592 -0.7869  0.3384
  175SAPI  H20R19918   5.724   4.585   8.442 -2.2428  0.9531 -0.5848
  175SAPI  H20S19919   5.702   4.742   8.534  1.6781 -0.2138  3.7299
  175SAPI  H20T19920   5.831   4.631   8.587  2.7078  1.4025 -0.5616
  175SAPI   C3319921   5.588   5.903   7.376 -0.0889  0.0032  0.3534
  175SAPI   H3X19922   5.666   5.836   7.334 -0.2491  0.7219 -1.1353
  175SAPI   H3Y19923   5.508   5.853   7.436  0.1339  1.4550  1.9472
  175SAPI   C3419924   5.650   6.006   7.465 -0.0315 -0.5714  0.7036
  175SAPI   H4X19925   5.572   6.084   7.481  0.2338 -0.2985  0.6644
  175SAPI   H4Y19926   5.730   6.052   7.404  1.1263 -0.9092  1.9158
  175SAPI   C3519927   5.710   5.964   7.602  0.6261 -0.1555  0.0277
  175SAPI   H5X19928   5.782   5.882   7.579  0.5687 -0.0834 -0.4160
  175SAPI   H5Y19929   5.640   5.923   7.678 -0.6928  3.5581  1.0417
  175SAPI   C3619930   5.780   6.075   7.684 -0.4767  0.3686 -0.1192
  175SAPI   H6X19931   5.714   6.164   7.695 -0.2272  0.5540 -0.1150
  175SAPI   H6Y19932   5.869   6.120   7.637  2.0058 -1.3749  2.5796
  175SAPI   C3719933   5.834   6.031   7.827 -0.4291 -0.6334  0.4305
  175SAPI   H7X19934   5.924   5.967   7.810  1.6673  2.1036  0.3498
  175SAPI   H7Y19935   5.760   5.971   7.883  0.0699 -1.1513  0.5513
  175SAPI   C3819936   5.876   6.154   7.909 -0.4196 -0.3188  0.0061
  175SAPI   H8X19937   5.790   6.224   7.918 -1.0543 -1.2553  1.8628
  175SAPI   H8Y19938   5.957   6.201   7.849 -0.9292  0.0022 -0.4399
  175SAPI   C3919939   5.923   6.118   8.049  0.2278  0.0934  0.1535
  175SAPI   H9X19940   5.990   6.032   8.025  0.9716  1.2451 -2.2118
  175SAPI   H9Y19941   5.835   6.091   8.110  1.1483 -3.2851  0.2083
  175SAPI  C31019942   5.983   6.235   8.127 -0.2433 -0.3579  0.4981
  175SAPI  H10X19943   5.954   6.244   8.234 -1.0246 -1.1802  0.3661
  175SAPI  H10Y19944   5.959   6.332   8.079 -0.7204 -1.6936 -2.1365
  175SAPI  C31119945   6.134   6.232   8.124 -1.0710  0.5416 -0.3649
  175SAPI  H11X19946   6.178   6.208   8.025  0.6471 -2.3777  0.9507
  175SAPI  H11Y19947   6.156   6.142   8.186 -2.7076 -2.0506 -3.2625
  175SAPI  C31219948   6.216   6.340   8.182  0.1436  0.2752 -0.0955
  175SAPI  H12X19949   6.182   6.435   8.136 -0.1330 -0.1640 -0.8183
  175SAPI  H12Y19950   6.326   6.334   8.169  0.3344 -0.5451  1.6158
  175SAPI  C31319951   6.195   6.355   8.331 -0.0501 -0.5535  0.6438
  175SAPI  H13X19952   6.196   6.254   8.380  0.1459 -0.2658  1.2475
  175SAPI  H13Y19953   6.091   6.393   8.342 -0.5093 -1.1683 -1.2713
  175SAPI  C31419954   6.301   6.450   8.387 -0.2321 -0.0139  0.3214
  175SAPI  H14X19955   6.306   6.539   8.320  1.5843 -1.3870 -1.4725
  175SAPI  H14Y19956   6.397   6.395   8.380  1.4283  2.7149  0.3405
  175SAPI  C31519957   6.268   6.475   8.534 -0.1773 -0.1723  0.0114
  175SAPI  H15X19958   6.160   6.499   8.537  0.5715  4.1580 -1.1379
  175SAPI  H15Y19959   6.299   6.573   8.575 -3.7151  0.8405  0.5237
  175SAPI  C31619960   6.301   6.355   8.630 -0.0931  0.6141  0.3305
  175SAPI  H16X19961   6.412   6.351   8.624  0.1253  2.1646  2.3765
  175SAPI  H16Y19962   6.257   6.263   8.586  1.7955  0.8413 -2.3092
  175SAPI  C31719963   6.268   6.373   8.777  0.7837 -0.5134  0.3331
  175SAPI  H17X19964   6.325   6.296   8.833  2.6915 -0.8489 -1.9280
  175SAPI  H17Y19965   6.159   6.352   8.786  1.3304 -3.6558  0.6037
  175SAPI  C31819966   6.301   6.512   8.830  0.5996 -0.3947 -0.0198
  175SAPI  H18X19967   6.286   6.517   8.940  0.1204  4.3648 -0.1181
  175SAPI  H18Y19968   6.229   6.585   8.789 -0.5954 -1.2088  0.5561
  175SAPI  H18Z19969   6.404   6.541   8.800  0.7887 -1.1077 -0.0835
  176SAPI   C1219970   3.775   3.131   6.680 -0.2267 -0.4833  0.0434
  176SAPI    H219971   3.789   3.189   6.586 -3.2194 -2.2028 -1.6085
  176SAPI    O219972   3.789   3.220   6.788  0.6723  0.3555  0.3256
  176SAPI   HO219973   3.881   3.214   6.816  0.0555 -1.7416  2.1710
  176SAPI   C1319974   3.631   3.069   6.671 -0.1900 -0.2418  0.0992
  176SAPI    H319975   3.625   3.000   6.584 -0.8182  1.5039 -1.3075
  176SAPI    O319976   3.522   3.158   6.662  0.3633  0.2703  0.2923
  176SAPI   HO319977   3.519   3.206   6.745  0.9564 -2.1201  1.7981
  176SAPI   C1419978   3.611   2.975   6.792  0.0971 -0.3962  0.7149
  176SAPI    H419979   3.625   3.038   6.883  0.2570 -0.1471  0.5181
  176SAPI    O419980   3.485   2.915   6.802  0.1676  0.4137 -0.0602
  176SAPI   HO419981   3.466   2.895   6.894 -1.4006  0.3905 -0.3590
  176SAPI   C1519982   3.723   2.867   6.797 -0.8294  0.7468  0.1273
  176SAPI    H519983   3.712   2.804   6.706  1.7409 -2.1599  1.6416
  176SAPI    O519984   3.699   2.790   6.914  0.2752 -0.3611 -0.1798
  176SAPI   HO519985   3.785   2.766   6.947  1.6018  0.3164 -2.8323
  176SAPI   C1619986   3.862   2.931   6.803 -0.2052  0.2974 -0.4372
  176SAPI    H619987   3.866   2.995   6.894 -2.0279  0.0553 -0.1491
  176SAPI    O619988   3.959   2.820   6.823  0.1105 -0.4426 -0.6761
  176SAPI   HO619989   4.020   2.858   6.887  0.0849  1.0796 -1.5088
  176SAPI   C1119990   3.881   3.023   6.684 -0.1919  0.5746  0.3609
  176SAPI    H119991   3.878   2.959   6.593 -1.2217  0.6549  0.3265
  176SAPI     P19992   4.085   3.154   6.575  0.7513 -0.0233  0.1773
  176SAPI   O1319993   4.012   3.150   6.451  0.2162 -0.1313  0.3297
  176SAPI   O1419994   4.222   3.108   6.577 -0.0992  0.7393  1.2087
  176SAPI   O1219995   4.006   3.077   6.703 -0.5026 -0.4998  0.5019
  176SAPI   O1119996   4.082   3.306   6.628 -0.1659  0.4671  0.7131
  176SAPI    C119997   4.176   3.359   6.717  0.5400  0.3298  0.3075
  176SAPI    HA19998   4.247   3.280   6.748  1.2616  0.8350 -0.0114
  176SAPI    HB19999   4.225   3.443   6.663 -1.5191  1.4552  0.1046
  176SAPI    C220000   4.097   3.410   6.842 -0.1668 -1.1135 -0.0640
  176SAPI    HS20001   4.162   3.470   6.910  0.1454 -0.0640 -1.2420
  176SAPI   O2120002   4.053   3.288   6.917 -0.4437 -0.2020  0.2193
  176SAPI   C2120003   4.145   3.245   7.000  0.0312  0.4775 -0.4940
  176SAPI   O2220004   4.263   3.289   7.005 -0.1931  0.2944 -0.5455
  176SAPI   C2220005   4.085   3.145   7.105 -0.1335 -0.5206 -0.0084
  176SAPI   H2R20006   3.974   3.144   7.094 -0.2861  3.0907 -0.0919
  176SAPI   H2S20007   4.131   3.048   7.074  0.9401  0.3216 -1.1509
  176SAPI    C320008   3.983   3.507   6.798  0.3685 -0.0974  0.3447
  176SAPI    HX20009   3.902   3.449   6.748  0.1821  1.0892 -0.7826
  176SAPI    HY20010   4.022   3.581   6.726  3.2520  0.3833  2.2379
  176SAPI   O3120011   3.919   3.554   6.922  0.6243  0.1636 -0.3792
  176SAPI   C3120012   3.967   3.672   6.955  0.1692 -0.2304 -0.0269
  176SAPI   O3220013   4.046   3.740   6.892 -0.6187  0.1985  0.1124
  176SAPI   C3220014   3.888   3.715   7.080  0.7715 -0.1429  0.0863
  176SAPI   H2X20015   3.963   3.713   7.162  0.3685  0.8259  0.4930
  176SAPI   H2Y20016   3.802   3.647   7.095 -0.2564  1.6232  3.1215
  176SAPI   C2320017   4.118   3.194   7.243  0.3837 -0.7207 -0.8447
  176SAPI   H3R20018   4.081   3.298   7.256 -0.1688 -1.1493  1.2591
  176SAPI   H3S20019   4.228   3.190   7.258  0.2925 -0.1026  0.1018
  176SAPI   C2420020   4.061   3.110   7.363  0.1527  0.3746  0.4544
  176SAPI   H4R20021   3.955   3.097   7.332 -0.0513  0.3881  1.1356
  176SAPI   H4S20022   4.067   3.164   7.460 -2.2748  0.3745  0.6829
  176SAPI   C2520023   4.135   2.981   7.368 -0.1216  0.3302  0.8735
  176SAPI   H5R20024   4.140   2.924   7.274  1.9817  2.4778 -0.4120
  176SAPI   C2620025   4.182   2.921   7.478 -0.6918  0.2618 -0.4029
  176SAPI   H6R20026   4.246   2.831   7.474 -1.9145 -0.5915 -1.9840
  176SAPI   C2720027   4.185   2.975   7.621 -0.1722  0.4718 -0.1190
  176SAPI   H7R20028   4.222   3.079   7.606 -0.9476  0.5717 -1.5771
  176SAPI   H7S20029   4.257   2.919   7.684 -0.4318 -0.1597 -0.3765
  176SAPI   C2820030   4.051   2.975   7.688  0.2550  0.3064 -0.4928
  176SAPI   H8R20031   3.969   3.024   7.634  1.3335  2.8152 -0.0289
  176SAPI   C2920032   4.026   2.929   7.811 -0.1455  0.0246  0.5266
  176SAPI   H9R20033   3.920   2.923   7.839 -0.5097 -0.0631 -0.7847
  176SAPI  C21020034   4.128   2.867   7.907  0.4256  0.1089  0.2206
  176SAPI  H10R20035   4.129   2.940   7.991 -1.9466 -0.0855  0.4629
  176SAPI  H10S20036   4.235   2.875   7.877  1.0236  0.7787  2.3509
  176SAPI  C21120037   4.099   2.721   7.954 -0.4636 -0.1778  0.1435
  176SAPI  H11R20038   4.023   2.664   7.897 -0.6353  1.6266 -1.5290
  176SAPI  C21220039   4.155   2.676   8.061  0.3229 -0.0646 -0.2811
  176SAPI  H12R20040   4.133   2.572   8.091 -1.1944  0.3323  0.0930
  176SAPI  C21320041   4.258   2.740   8.160 -0.1838 -0.0260  0.3592
  176SAPI  H13R20042   4.221   2.714   8.261 -1.7100 -1.6738 -0.5515
  176SAPI  H13S20043   4.265   2.850   8.143  0.5006 -0.1967 -0.6062
  176SAPI  C21420044   4.391   2.673   8.132  0.4915 -0.2004  0.8179
  176SAPI  H14R20045   4.407   2.633   8.031 -1.8274  0.4456  0.1270
  176SAPI  C21520046   4.486   2.665   8.224 -0.6708  0.3215  0.2248
  176SAPI  H15R20047   4.580   2.617   8.193 -0.4665  1.3161 -0.7831
  176SAPI  C21620048   4.494   2.721   8.364 -0.4807 -0.6876 -0.5622
  176SAPI  H16R20049   4.405   2.677   8.414 -0.8336  1.6240  0.9927
  176SAPI  H16S20050   4.481   2.831   8.370 -1.1208 -0.6725 -1.9363
  176SAPI  C21720051   4.622   2.680   8.439  0.2518 -0.9103 -0.3847
  176SAPI  H17R20052   4.659   2.577   8.421  0.4441 -1.3085  1.9387
  176SAPI  H17S20053   4.600   2.680   8.548 -0.7799  2.1616 -0.4877
  176SAPI  C21820054   4.740   2.779   8.417 -0.3004  0.4084  0.1505
  176SAPI  H18R20055   4.694   2.873   8.457  0.2160  0.1526  1.3828
  176SAPI  H18S20056   4.771   2.792   8.312  0.2602 -0.7027  0.1676
  176SAPI  C21920057   4.857   2.742   8.499 -0.6315 -0.6299  0.0710
  176SAPI  H19R20058   4.911   2.659   8.448  2.6193  2.2283 -1.5420
  176SAPI  H19S20059   4.821   2.730   8.604  0.2577 -0.0602  0.4545
  176SAPI  C22020060   4.957   2.862   8.507  0.1205  0.3770  0.1250
  176SAPI  H20R20061   4.886   2.941   8.540 -1.2602 -0.7503 -0.0649
  176SAPI  H20S20062   5.005   2.891   8.411  1.6850 -0.5864  0.5762
  176SAPI  H20T20063   5.039   2.856   8.582  1.4500  4.4380 -0.7262
  176SAPI   C3320064   3.828   3.855   7.067 -0.2770 -0.7358 -0.8346
  176SAPI   H3X20065   3.810   3.882   6.961 -4.6959 -1.2010 -0.3684
  176SAPI   H3Y20066   3.891   3.935   7.112 -2.3760  0.4843  0.0577
  176SAPI   C3420067   3.688   3.871   7.139 -0.1733 -0.9922 -0.0224
  176SAPI   H4X20068   3.617   3.791   7.108  1.4076 -2.4403 -0.0777
  176SAPI   H4Y20069   3.651   3.971   7.107  2.3093 -0.8915 -3.0706
  176SAPI   C3520070   3.703   3.878   7.286 -0.2050 -0.3717 -0.6705
  176SAPI   H5X20071   3.609   3.903   7.339 -0.3767 -1.8819 -0.1930
  176SAPI   H5Y20072   3.776   3.953   7.321 -0.3711 -0.5077 -0.0086
  176SAPI   C3620073   3.744   3.747   7.354 -0.1794  0.0263 -0.2527
  176SAPI   H6X20074   3.854   3.734   7.345 -0.2708 -0.5851 -0.5956
  176SAPI   H6Y20075   3.699   3.658   7.305  0.8466  0.0352 -1.2685
  176SAPI   C3720076   3.713   3.744   7.504  0.2790  1.0509 -0.3116
  176SAPI   H7X20077   3.746   3.650   7.553 -0.8261  0.9906  0.3503
  176SAPI   H7Y20078   3.603   3.745   7.513  0.1308 -0.0922 -1.6822
  176SAPI   C3820079   3.762   3.865   7.579  0.5998 -0.2046 -0.0877
  176SAPI   H8X20080   3.697   3.953   7.560  2.5514  1.5392  0.8890
  176SAPI   H8Y20081   3.867   3.886   7.549  0.6191  2.3846  1.4233
  176SAPI   C3920082   3.770   3.838   7.729  0.9382 -0.1883  0.2392
  176SAPI   H9X20083   3.677   3.798   7.774 -0.4360  1.1135 -1.3435
  176SAPI   H9Y20084   3.783   3.933   7.785 -0.4835  1.2309 -1.7084
  176SAPI  C31020085   3.886   3.746   7.768  0.1434 -0.0527 -0.6071
  176SAPI  H10X20086   3.983   3.800   7.754  0.0156  0.0848 -0.9982
  176SAPI  H10Y20087   3.894   3.649   7.714 -1.6534 -0.7304  0.2971
  176SAPI  C31120088   3.860   3.717   7.923  0.1515  0.9591  0.6099
  176SAPI  H11X20089   3.801   3.624   7.919  0.8744  0.5369 -2.6256
  176SAPI  H11Y20090   3.803   3.800   7.969 -1.0195 -0.2968  1.5017
  176SAPI  C31220091   3.985   3.694   8.000 -0.3956  0.3908 -0.0784
  176SAPI  H12X20092   4.055   3.780   7.994 -1.4017  1.1381 -1.8011
  176SAPI  H12Y20093   4.040   3.613   7.948  0.7539  2.7260 -2.7879
  176SAPI  C31320094   3.957   3.670   8.148 -0.1916  0.0551  0.3459
  176SAPI  H13X20095   3.904   3.574   8.166 -0.3308 -0.2968 -1.7501
  176SAPI  H13Y20096   3.891   3.748   8.192 -0.8658 -0.1060 -0.3725
  176SAPI  C31420097   4.081   3.674   8.241 -0.6506  0.5804  0.0090
  176SAPI  H14X20098   4.116   3.779   8.227  1.6692 -0.2684 -1.0286
  176SAPI  H14Y20099   4.159   3.601   8.214 -1.4752  0.6770 -3.0184
  176SAPI  C31520100   4.051   3.661   8.392 -0.0791  0.5703  0.3782
  176SAPI  H15X20101   4.004   3.561   8.401 -2.4870  1.5512 -0.4453
  176SAPI  H15Y20102   3.963   3.727   8.410  0.1117  0.6370  1.1319
  176SAPI  C31620103   4.167   3.675   8.495  0.5780 -0.6099 -0.0019
  176SAPI  H16X20104   4.119   3.677   8.595  1.7997 -1.5514  0.6313
  176SAPI  H16Y20105   4.214   3.775   8.477 -0.0027 -0.1936  0.7313
  176SAPI  C31720106   4.276   3.566   8.507  0.5023 -0.8367  0.6827
  176SAPI  H17X20107   4.350   3.604   8.580  0.9317 -0.8040  0.2366
  176SAPI  H17Y20108   4.326   3.552   8.408  0.6932  1.2001  0.4467
  176SAPI  C31820109   4.226   3.434   8.558 -0.3809 -0.4608  0.1765
  176SAPI  H18X20110   4.141   3.403   8.494 -1.0843  2.6188 -0.5354
  176SAPI  H18Y20111   4.185   3.454   8.660  2.2043  1.4235  0.9601
  176SAPI  H18Z20112   4.309   3.360   8.566 -0.0301  0.0009  0.9341
  177SLPC     N20113   1.359   2.616  11.192 -0.0456  0.0793 -0.2424
  177SLPC   C1320114   1.349   2.734  11.288  0.0913  0.1531  0.2200
  177SLPC  H13A20115   1.418   2.813  11.261  1.4602 -1.0115  0.2088
  177SLPC  H13B20116   1.247   2.768  11.284  0.2656  0.6168 -0.5945
  177SLPC  H13C20117   1.364   2.701  11.389 -0.5252  2.5552  1.1740
  177SLPC   C1420118   1.267   2.508  11.248 -0.5017 -0.1206  0.1014
  177SLPC  H14A20119   1.252   2.428  11.177 -1.7137 -1.3503  1.6831
  177SLPC  H14B20120   1.290   2.479  11.349 -1.6498 -0.0722  0.3868
  177SLPC  H14C20121   1.169   2.550  11.263 -0.6800 -0.9807  1.5219
  177SLPC   C1520122   1.505   2.577  11.184  0.0292  0.1863  1.4653
  177SLPC  H15A20123   1.522   2.493  11.118 -2.3173  0.8364 -0.0929
  177SLPC  H15B20124   1.559   2.665  11.151  0.4906  0.1887  2.2091
  177SLPC  H15C20125   1.548   2.551  11.279 -0.5624 -1.4346  1.3136
  177SLPC   C1220126   1.299   2.668  11.063 -0.0390  0.4063  0.2580
  177SLPC  H12A20127   1.208   2.718  11.092 -0.4983 -1.0703  1.4721
  177SLPC  H12B20128   1.270   2.583  11.004  0.4380 -0.6018  1.4392
  177SLPC   C1120129   1.354   2.784  10.976 -0.5740 -0.1193  0.0409
  177SLPC  H11A20130   1.347   2.880  11.032  1.8722  2.2098 -3.2223
  177SLPC  H11B20131   1.296   2.804  10.884  0.3144 -3.2391 -1.3401
  177SLPC     P20132   1.605   2.873  10.937 -0.2299  0.5065 -0.2890
  177SLPC   O1320133   1.576   2.968  11.045  0.1451  0.3995  0.0856
  177SLPC   O1420134   1.742   2.813  10.933 -0.1493  0.4327  0.6720
  177SLPC   O1220135   1.489   2.752  10.937 -0.2578 -0.6781  0.2589
  177SLPC   O1120136   1.581   2.964  10.805 -0.0078  0.3481  0.1664
  177SLPC    C120137   1.599   2.907  10.670  0.6165  0.8519 -0.5057
  177SLPC    HA20138   1.594   2.982  10.588 -2.4865  0.0235 -1.2255
  177SLPC    HB20139   1.690   2.844  10.661 -1.3575 -3.0439  3.0703
  177SLPC    C220140   1.478   2.816  10.624 -0.2237 -0.3384 -0.1078
  177SLPC    HS20141   1.459   2.730  10.691 -0.5873  0.1780  0.4651
  177SLPC   O2120142   1.513   2.769  10.496  0.6413  0.1358  0.0510
  177SLPC   C2120143   1.465   2.658  10.454 -0.0375  0.0865 -0.1162
  177SLPC   O2220144   1.390   2.583  10.513  0.1570  0.0616  0.2667
  177SLPC   C2220145   1.531   2.639  10.321  0.8817  0.2548  0.0563
  177SLPC   H2R20146   1.586   2.724  10.274  1.3362  0.4644  0.9556
  177SLPC   H2S20147   1.611   2.566  10.345  0.0096 -0.3917  1.0651
  177SLPC    C320148   1.349   2.903  10.592 -0.0621 -0.4506 -0.3766
  177SLPC    HX20149   1.381   2.988  10.529 -1.7459  0.8731  0.4688
  177SLPC    HY20150   1.307   2.951  10.683 -0.5997 -0.5701 -0.5572
  177SLPC   O3120151   1.249   2.823  10.531 -0.1109 -0.4255 -0.1676
  177SLPC   C3120152   1.143   2.902  10.494 -0.2186  0.1046 -0.4140
  177SLPC   O3220153   1.136   3.020  10.511  0.3908  0.2259 -0.2717
  177SLPC   C3220154   1.030   2.817  10.439 -0.4527  0.3687  0.5144
  177SLPC   H2X20155   0.994   2.744  10.514  2.3113 -1.3224  0.3384
  177SLPC   H2Y20156   1.074   2.766  10.350  0.9947  1.9714  0.2519
  177SLPC   C2320157   1.430   2.574  10.222 -1.0777 -0.2099  0.4917
  177SLPC   H3R20158   1.395   2.490  10.286 -0.2321 -0.1994  0.9740
  177SLPC   H3S20159   1.485   2.533  10.134 -1.7633 -0.1295  0.0132
  177SLPC   C2420160   1.315   2.661  10.177 -0.4657  0.0026  0.0928
  177SLPC   H4R20161   1.365   2.746  10.126 -2.0506  1.8793  1.5612
  177SLPC   H4S20162   1.262   2.696  10.268  0.2618 -1.6118  1.1930
  177SLPC   C2520163   1.210   2.594  10.091 -0.1028  0.0643  0.2693
  177SLPC   H5R20164   1.120   2.659  10.097 -0.1702  0.1529 -1.3001
  177SLPC   H5S20165   1.190   2.494  10.137  2.9470 -0.2972  0.9804
  177SLPC   C2620166   1.245   2.574   9.948 -0.1477 -0.1184  0.3986
  177SLPC   H6R20167   1.155   2.523   9.906  0.7099 -1.3592  0.0326
  177SLPC   H6S20168   1.333   2.511   9.925  0.1233 -0.0418  1.2100
  177SLPC   C2720169   1.264   2.704   9.870 -0.4615  0.0622 -0.3338
  177SLPC   H7R20170   1.372   2.727   9.866 -0.4862  0.7546  1.6356
  177SLPC   H7S20171   1.211   2.789   9.920 -2.5539 -1.1368 -0.3785
  177SLPC   C2820172   1.199   2.688   9.730  0.3029  0.5660  0.4611
  177SLPC   H8R20173   1.091   2.660   9.729 -0.0275  1.8097 -0.5983
  177SLPC   H8S20174   1.252   2.601   9.685 -0.3990  0.5486 -0.3595
  177SLPC   C2920175   1.222   2.807   9.648 -0.0655 -0.4582 -0.3115
  177SLPC   H9R20176   1.231   2.897   9.711 -0.6528  0.4782 -1.5331
  177SLPC  C21020177   1.219   2.813   9.516 -0.2340 -0.8236  1.0968
  177SLPC  H10R20178   1.239   2.914   9.476  1.1717 -1.1824  0.8426
  177SLPC  C21120179   1.194   2.708   9.413 -0.6689  0.0272  0.7045
  177SLPC  H11R20180   1.254   2.716   9.320 -3.5127 -2.9957 -1.6441
  177SLPC  H11S20181   1.213   2.604   9.447  0.7852 -0.0952 -0.4021
  177SLPC  C21220182   1.049   2.706   9.376  0.4343 -0.5830  0.4918
  177SLPC  H12R20183   0.991   2.637   9.438 -3.1483 -0.3098 -2.2277
  177SLPC  C21320184   0.986   2.777   9.279  0.2992  0.5201 -0.1627
  177SLPC  H13R20185   0.879   2.762   9.261  0.2197  0.7134  0.1572
  177SLPC  C21420186   1.048   2.870   9.174  0.0807  0.0600 -0.1769
  177SLPC  H14R20187   1.156   2.887   9.196  0.2434 -0.5057 -0.5137
  177SLPC  H14S20188   0.998   2.969   9.184 -2.0807 -1.0435  0.5287
  177SLPC  C21520189   1.024   2.821   9.036  0.2753  0.2208  0.6078
  177SLPC  H15R20190   1.068   2.722   9.009 -3.5108 -1.6431  0.6494
  177SLPC  H15S20191   1.073   2.891   8.965 -0.6242 -2.5532 -3.0442
  177SLPC  C21620192   0.881   2.797   8.993  0.5834 -0.8498  0.7935
  177SLPC  H16R20193   0.832   2.889   9.031 -0.3727 -1.3787  0.8743
  177SLPC  H16S20194   0.825   2.712   9.038 -2.1642  1.5676  2.3174
  177SLPC  C21720195   0.853   2.787   8.835 -0.8141 -0.9616  0.2232
  177SLPC  H17R20196   0.856   2.888   8.789 -2.5145 -0.8571  0.2969
  177SLPC  H17S20197   0.757   2.738   8.809 -0.4293 -0.1228 -3.3952
  177SLPC  C21820198   0.942   2.691   8.766  0.1090 -0.3575 -0.0658
  177SLPC  H18R20199   0.914   2.590   8.802 -1.5902 -0.4333 -1.4747
  177SLPC  H18S20200   1.049   2.715   8.781 -0.1298  1.2006 -0.6184
  177SLPC  H18T20201   0.929   2.697   8.655 -0.2645  0.9417  0.0353
  177SLPC   C3320202   0.909   2.900  10.389 -0.6765 -0.4009  0.4055
  177SLPC   H3X20203   0.846   2.950  10.466 -1.3334  0.4809 -0.6885
  177SLPC   H3Y20204   0.844   2.824  10.341  0.2683 -1.0060  0.0545
  177SLPC   C3420205   0.956   2.995  10.278 -0.4542  0.4048  0.1557
  177SLPC   H4X20206   1.025   3.074  10.314  1.3039  0.3371 -2.7489
  177SLPC   H4Y20207   0.863   3.041  10.236 -0.6768 -1.3471 -1.3890
  177SLPC   C3520208   1.015   2.923  10.156  0.3273 -0.8564 -0.1974
  177SLPC   H5X20209   0.965   2.834  10.110 -1.9153 -0.0010  0.4689
  177SLPC   H5Y20210   1.116   2.897  10.194  2.1058  3.4437 -1.3535
  177SLPC   C3620211   1.040   3.022  10.036  0.8073  0.2013  0.0964
  177SLPC   H6X20212   1.139   3.007   9.987 -0.3649  0.4836 -2.5750
  177SLPC   H6Y20213   1.037   3.124  10.080  2.0451  0.6649 -0.8314
  177SLPC   C3720214   0.932   3.009   9.928 -0.1954  0.1851 -0.2568
  177SLPC   H7X20215   0.835   3.038   9.972  0.0707  1.2194 -0.3364
  177SLPC   H7Y20216   0.936   2.907   9.883 -1.4104 -0.2984  0.7033
  177SLPC   C3820217   0.972   3.101   9.809 -0.4863  0.2133 -0.9550
  177SLPC   H8X20218   1.083   3.097   9.805 -0.5094  0.3007 -1.9645
  177SLPC   H8Y20219   0.939   3.202   9.838  0.4877 -0.1159  1.5425
  177SLPC   C3920220   0.905   3.055   9.684 -0.1554  0.2640  0.3431
  177SLPC   H9X20221   0.795   3.063   9.692 -0.0490  1.6981  0.6928
  177SLPC   H9Y20222   0.936   2.951   9.663 -0.8835  0.3307 -1.1817
  177SLPC  C31020223   0.961   3.129   9.567  1.0403 -0.3408  0.0682
  177SLPC  H10X20224   1.050   3.081   9.521  1.8837  1.7534 -0.5956
  177SLPC  H10Y20225   1.000   3.228   9.597  1.2622 -0.6775  0.9394
  177SLPC  C31120226   0.874   3.143   9.442 -0.1770 -0.4199  0.4274
  177SLPC  H11X20227   0.774   3.183   9.469 -0.3390 -1.0008  0.7090
  177SLPC  H11Y20228   0.854   3.048   9.387  0.6862 -0.6331  0.4705
  177SLPC  C31220229   0.938   3.242   9.346  0.0052 -0.4013 -0.2147
  177SLPC  H12X20230   1.026   3.196   9.296  0.8347  1.4787 -0.5394
  177SLPC  H12Y20231   0.963   3.336   9.398  2.3181 -0.6476 -0.7573
  177SLPC  C31320232   0.851   3.281   9.228 -0.0389  0.0215  0.2453
  177SLPC  H13X20233   0.746   3.276   9.266 -0.2555 -1.0572 -0.4505
  177SLPC  H13Y20234   0.860   3.206   9.147 -0.6622  0.3813 -0.1652
  177SLPC  C31420235   0.894   3.418   9.165 -0.2907  0.8008 -0.4518
  177SLPC  H14X20236   0.992   3.403   9.114  1.3974  1.2796  2.4058
  177SLPC  H14Y20237   0.913   3.483   9.253  2.4360 -1.3700  0.7388
  177SLPC  C31520238   0.788   3.469   9.067  0.4031 -0.4373  0.1668
  177SLPC  H15X20239   0.746   3.382   9.012  0.4890  0.4627 -1.3759
  177SLPC  H15Y20240   0.836   3.540   8.997 -0.4913  0.9659  0.9345
  177SLPC  C31620241   0.660   3.527   9.124 -0.0536  0.3410 -0.2973
  177SLPC  H16X20242   0.684   3.602   9.203 -0.7997 -0.3027  0.5625
  177SLPC  H16Y20243   0.604   3.443   9.170  0.9067  0.0321  0.3550
  177SLPC  C31720244   0.574   3.598   9.014 -0.0239  0.0264  0.0559
  177SLPC  H17X20245   0.479   3.606   9.072 -0.6264 -0.9669 -0.7629
  177SLPC  H17Y20246   0.555   3.529   8.929  0.0034 -0.0668  0.1259
  177SLPC  C31820247   0.624   3.736   8.963  0.3346 -1.2226  0.3724
  177SLPC  H18X20248   0.637   3.810   9.045 -2.6586  1.7450 -1.5475
  177SLPC  H18Y20249   0.552   3.777   8.889  0.7551 -0.1663  0.5258
  177SLPC  H18Z20250   0.717   3.726   8.903 -0.1336  0.5542 -0.7321
  178SLPC     N20251   4.934   4.343  11.316 -0.6079 -0.1230  0.3861
  178SLPC   C1320252   4.964   4.403  11.185 -0.3259  0.1820  0.4796
  178SLPC  H13A20253   5.011   4.329  11.122 -0.8937  0.5299 -0.3665
  178SLPC  H13B20254   4.879   4.436  11.128 -1.0357  0.5678  1.7150
  178SLPC  H13C20255   5.033   4.485  11.188 -2.6801  2.3861 -0.9432
  178SLPC   C1420256   4.877   4.445  11.402 -0.4555 -0.5586 -0.0788
  178SLPC  H14A20257   4.834   4.398  11.489  0.4219 -2.7908 -0.7976
  178SLPC  H14B20258   4.954   4.517  11.427  0.5286 -1.4797 -0.4347
  178SLPC  H14C20259   4.802   4.504  11.351  0.8112 -0.2589 -1.6846
  178SLPC   C1520260   5.058   4.288  11.368 -0.0211 -0.6986 -0.7073
  178SLPC  H15A20261   5.034   4.220  11.448  0.6323 -0.3496 -0.2009
  178SLPC  H15B20262   5.105   4.225  11.293  0.5864 -0.9970 -0.0874
  178SLPC  H15C20263   5.137   4.357  11.394 -0.4723 -1.1659  2.2989
  178SLPC   C1220264   4.832   4.233  11.292  0.2192  0.7607  0.2411
  178SLPC  H12A20265   4.746   4.281  11.248  0.6840 -0.4241 -2.1289
  178SLPC  H12B20266   4.804   4.197  11.390  0.8276  0.0555  0.1659
  178SLPC   C1120267   4.880   4.115  11.205  0.5660 -0.3838 -0.3616
  178SLPC  H11A20268   4.819   4.024  11.224 -0.8818  1.2741  4.1602
  178SLPC  H11B20269   4.988   4.096  11.227  0.5311 -0.1761  0.0005
  178SLPC     P20270   4.750   4.155  10.981 -0.2890  0.0242  0.1321
  178SLPC   O1320271   4.708   4.019  10.960  0.7401  0.0554 -0.0813
  178SLPC   O1420272   4.655   4.255  11.038 -0.1020 -0.0908 -0.2576
  178SLPC   O1220273   4.882   4.156  11.065  0.0204 -1.3418 -0.2053
  178SLPC   O1120274   4.785   4.209  10.844 -0.2706 -0.1497  0.2449
  178SLPC    C120275   4.884   4.307  10.840 -0.2251 -0.2760  0.3635
  178SLPC    HA20276   4.872   4.387  10.917 -0.4027 -0.1159  0.1703
  178SLPC    HB20277   4.988   4.269  10.850  0.5745  2.0060  1.6618
  178SLPC    C220278   4.884   4.381  10.700 -0.2866  0.2537  0.2361
  178SLPC    HS20279   4.946   4.473  10.710  2.2734 -1.3767  0.3281
  178SLPC   O2120280   4.752   4.404  10.652  0.1089 -0.6597 -0.6103
  178SLPC   C2120281   4.690   4.488  10.726  0.0864  0.7685  0.6255
  178SLPC   O2220282   4.733   4.560  10.810 -0.1551  0.3240  0.0306
  178SLPC   C2220283   4.541   4.470  10.701  0.1351  0.1668  0.0968
  178SLPC   H2R20284   4.518   4.363  10.721  1.7678 -0.2738 -0.2276
  178SLPC   H2S20285   4.497   4.542  10.774 -0.6783 -1.1320  0.9358
  178SLPC    C320286   4.976   4.295  10.596  0.2129 -0.5856 -0.3601
  178SLPC    HX20287   4.955   4.189  10.621  3.1420 -1.0626  0.5117
  178SLPC    HY20288   5.085   4.307  10.617 -0.3612  1.0926  2.1162
  178SLPC   O3120289   4.941   4.314  10.461 -0.5983  0.1273 -0.0266
  178SLPC   C3120290   4.999   4.412  10.399  0.2139 -0.6036 -0.4695
  178SLPC   O3220291   5.060   4.507  10.457  0.4544  0.5772  0.3336
  178SLPC   C3220292   4.991   4.397  10.251  0.6811  0.3146 -0.8582
  178SLPC   H2X20293   4.921   4.475  10.214 -0.4015 -0.9752 -1.5989
  178SLPC   H2Y20294   4.950   4.296  10.233  1.0177  0.1404 -0.6567
  178SLPC   C2320295   4.487   4.500  10.560 -0.3805 -0.6802  1.0983
  178SLPC   H3R20296   4.538   4.435  10.486 -0.5731  0.5096 -0.1175
  178SLPC   H3S20297   4.526   4.599  10.530 -1.2726 -0.3880  0.8604
  178SLPC   C2420298   4.333   4.510  10.531  0.9837  0.1365 -0.4768
  178SLPC   H4R20299   4.297   4.566  10.619 -2.6999 -1.4251 -0.8156
  178SLPC   H4S20300   4.291   4.407  10.538  0.4551  0.3459 -0.5254
  178SLPC   C2520301   4.292   4.581  10.400 -0.1060 -0.5038  0.3180
  178SLPC   H5R20302   4.349   4.526  10.322 -2.9421 -0.9403 -1.5888
  178SLPC   H5S20303   4.315   4.690  10.407 -2.4720 -0.0531  3.4016
  178SLPC   C2620304   4.138   4.559  10.354  0.3021 -0.3178  0.4855
  178SLPC   H6R20305   4.097   4.656  10.318 -1.2776 -0.3509  2.1231
  178SLPC   H6S20306   4.067   4.540  10.437  0.8492  2.7847  1.8114
  178SLPC   C2720307   4.115   4.459  10.235 -0.7179 -0.2640 -0.5489
  178SLPC   H7R20308   4.140   4.358  10.273  5.0352  1.1408  0.3454
  178SLPC   H7S20309   4.195   4.463  10.159 -0.4775  0.6408 -0.2607
  178SLPC   C2820310   3.972   4.477  10.176 -0.0057 -1.0982  0.4213
  178SLPC   H8R20311   3.988   4.563  10.107  0.8893 -2.0615 -0.6053
  178SLPC   H8S20312   3.899   4.506  10.255 -0.6329  1.3872 -0.9411
  178SLPC   C2920313   3.923   4.357  10.106 -0.1563 -0.2932 -0.6883
  178SLPC   H9R20314   3.937   4.362   9.997 -2.7824  2.0642 -1.0401
  178SLPC  C21020315   3.855   4.255  10.167 -0.6872  0.1358  0.6019
  178SLPC  H10R20316   3.814   4.166  10.117  2.8659 -1.1467 -0.2872
  178SLPC  C21120317   3.820   4.248  10.311 -0.5884  0.7138 -1.0565
  178SLPC  H11R20318   3.736   4.318  10.331 -0.5857 -0.1471  2.8552
  178SLPC  H11S20319   3.908   4.293  10.362 -0.4596  0.3540 -0.9549
  178SLPC  C21220320   3.783   4.120  10.379  0.3135 -0.2171 -0.6948
  178SLPC  H12R20321   3.710   4.064  10.319 -0.0891 -3.0368  2.1535
  178SLPC  C21320322   3.808   4.071  10.502  0.6719 -0.1105 -0.4600
  178SLPC  H13R20323   3.771   3.970  10.525  2.6836 -1.5330 -2.9798
  178SLPC  C21420324   3.891   4.137  10.607 -0.6323 -0.2920  0.0184
  178SLPC  H14R20325   3.986   4.165  10.559 -0.5708  0.3163  0.4822
  178SLPC  H14S20326   3.915   4.062  10.686  1.9318  0.2789 -0.1592
  178SLPC  C21520327   3.823   4.258  10.678  0.0613  0.4964 -0.4049
  178SLPC  H15R20328   3.767   4.210  10.761  1.1783 -1.3821 -0.6797
  178SLPC  H15S20329   3.751   4.295  10.602 -1.8044 -1.0514  0.5328
  178SLPC  C21620330   3.927   4.355  10.716 -1.1952 -0.4473  0.2438
  178SLPC  H16R20331   3.888   4.456  10.744 -0.0043 -0.4514  2.1701
  178SLPC  H16S20332   3.992   4.365  10.627 -1.0650  0.1678  0.4041
  178SLPC  C21720333   4.011   4.302  10.832 -0.4321  0.4072 -0.0476
  178SLPC  H17R20334   4.053   4.200  10.822 -1.3591 -0.1311  1.2869
  178SLPC  H17S20335   3.941   4.284  10.916 -1.4799 -0.5604 -1.0964
  178SLPC  C21820336   4.111   4.399  10.889  0.1529  0.3834  0.0164
  178SLPC  H18R20337   4.116   4.380  10.998 -0.4089  1.5700  0.2693
  178SLPC  H18S20338   4.065   4.499  10.878 -1.2499 -0.1588  0.7083
  178SLPC  H18T20339   4.208   4.395  10.834  0.3812  0.9336  0.3738
  178SLPC   C3320340   5.135   4.416  10.198  0.6892  0.6968 -0.1276
  178SLPC   H3X20341   5.197   4.346  10.258 -1.8933 -1.9244 -0.2799
  178SLPC   H3Y20342   5.163   4.521  10.218  1.8909  0.7264 -1.7390
  178SLPC   C3420343   5.157   4.358  10.055 -0.2486  0.9444  0.0301
  178SLPC   H4X20344   5.150   4.247  10.060  0.3017  0.8954 -0.1892
  178SLPC   H4Y20345   5.260   4.376  10.017  1.6067 -2.3845  2.8408
  178SLPC   C3520346   5.062   4.412   9.953  0.9997 -0.2595 -0.4783
  178SLPC   H5X20347   5.071   4.522   9.968 -1.1335 -0.2743  1.6785
  178SLPC   H5Y20348   4.958   4.378   9.973  0.7845  0.8070  0.3415
  178SLPC   C3620349   5.119   4.372   9.817  0.8042  0.0140 -0.2210
  178SLPC   H6X20350   5.123   4.263   9.797 -1.5705 -0.1274 -0.1715
  178SLPC   H6Y20351   5.225   4.404   9.820 -0.1729  3.6964  0.4436
  178SLPC   C3720352   5.045   4.437   9.701 -0.5794 -0.0705  0.3885
  178SLPC   H7X20353   5.043   4.548   9.700  0.2672 -0.0444  0.5597
  178SLPC   H7Y20354   4.939   4.408   9.714 -0.4042 -1.1829 -0.4486
  178SLPC   C3820355   5.102   4.396   9.564  0.0332  0.5219  0.2809
  178SLPC   H8X20356   5.084   4.286   9.557  4.3385 -0.4402  1.3054
  178SLPC   H8Y20357   5.212   4.413   9.563  0.2397 -0.7169 -0.0677
  178SLPC   C3920358   5.029   4.466   9.449  0.0845 -0.3511  0.2408
  178SLPC   H9X20359   5.019   4.575   9.465 -1.7945 -0.0137 -2.5090
  178SLPC   H9Y20360   4.923   4.434   9.453 -0.9669  2.6652 -1.1323
  178SLPC  C31020361   5.088   4.452   9.304 -0.1030 -0.3201 -0.5178
  178SLPC  H10X20362   5.099   4.343   9.285 -1.6493 -0.7780  0.9635
  178SLPC  H10Y20363   5.192   4.490   9.318  0.8265 -2.4338 -1.1832
  178SLPC  C31120364   5.018   4.532   9.192 -0.0421  0.1416 -0.1090
  178SLPC  H11X20365   5.026   4.642   9.206 -0.6224  0.1827 -0.0765
  178SLPC  H11Y20366   4.910   4.509   9.193  0.0662 -0.4822 -1.3708
  178SLPC  C31220367   5.081   4.523   9.057  0.1037 -0.5962 -0.3168
  178SLPC  H12X20368   5.038   4.603   8.994  0.9990 -0.2312 -0.4874
  178SLPC  H12Y20369   5.060   4.427   9.004  1.0948 -1.0672  0.1062
  178SLPC  C31320370   5.233   4.538   9.058 -0.4539  0.3289  0.2094
  178SLPC  H13X20371   5.288   4.446   9.088 -0.9522  0.4181  1.4701
  178SLPC  H13Y20372   5.269   4.620   9.124 -0.2709 -0.1160  0.6785
  178SLPC  C31420373   5.295   4.573   8.921  0.0881 -0.0016  0.4612
  178SLPC  H14X20374   5.246   4.507   8.846  1.0675  0.3520 -0.5201
  178SLPC  H14Y20375   5.403   4.549   8.920 -0.0286 -0.8527 -2.5685
  178SLPC  C31520376   5.280   4.721   8.880 -0.0044 -0.2070  0.5416
  178SLPC  H15X20377   5.174   4.750   8.865  0.2339  0.6645  0.4627
  178SLPC  H15Y20378   5.331   4.784   8.957  0.0102  0.6096 -0.1124
  178SLPC  C31620379   5.356   4.740   8.748 -0.0951 -0.7428  0.2548
  178SLPC  H16X20380   5.466   4.739   8.763 -0.1171  1.4609  1.0243
  178SLPC  H16Y20381   5.342   4.846   8.717  2.8852 -0.9277 -2.2249
  178SLPC  C31720382   5.312   4.651   8.638  0.4070 -0.0238 -0.5087
  178SLPC  H17X20383   5.203   4.670   8.627  0.6703  3.0527  1.1210
  178SLPC  H17Y20384   5.334   4.547   8.668  0.9157  0.0033 -0.7871
  178SLPC  C31820385   5.383   4.668   8.505  0.3169  0.4563  0.2168
  178SLPC  H18X20386   5.341   4.588   8.440  0.1038  0.5686  0.2153
  178SLPC  H18Y20387   5.486   4.639   8.531 -0.6473  0.0871  4.3396
  178SLPC  H18Z20388   5.390   4.768   8.457 -1.3971  0.9887  1.0064
  179SLPC     N20389   5.390   6.492  10.906 -0.1798  0.9626 -0.2273
  179SLPC   C1320390   5.333   6.358  10.957  0.0857 -0.3271  0.6617
  179SLPC  H13A20391   5.226   6.358  10.942 -0.3231  2.6928  2.6770
  179SLPC  H13B20392   5.379   6.278  10.900  2.3312  1.3179  0.0417
  179SLPC  H13C20393   5.349   6.340  11.063 -0.3274 -1.1773  0.5894
  179SLPC   C1420394   5.522   6.488  10.963 -0.5825 -0.0511  0.1500
  179SLPC  H14A20395   5.567   6.402  10.916  0.6823  0.4885  0.3223
  179SLPC  H14B20396   5.577   6.577  10.933  0.8198 -0.8637  0.2258
  179SLPC  H14C20397   5.525   6.497  11.070  3.2038  0.2897  0.1634
  179SLPC   C1520398   5.312   6.599  10.976 -0.4360  0.1714 -0.3768
  179SLPC  H15A20399   5.208   6.589  10.949 -0.6406 -0.7317  0.6829
  179SLPC  H15B20400   5.319   6.578  11.081  0.1065  0.2979 -0.3826
  179SLPC  H15C20401   5.355   6.697  10.961  0.5282 -0.2632 -0.5414
  179SLPC   C1220402   5.388   6.497  10.746  0.3642 -0.3156 -0.6425
  179SLPC  H12A20403   5.391   6.599  10.712  2.8772 -0.3133 -0.5953
  179SLPC  H12B20404   5.292   6.458  10.714 -0.0146 -1.6521  1.8742
  179SLPC   C1120405   5.496   6.412  10.672 -0.0422  1.1009  0.0847
  179SLPC  H11A20406   5.598   6.450  10.695  0.3741 -1.4998  3.3359
  179SLPC  H11B20407   5.484   6.420  10.562  0.7301 -1.1402 -0.2135
  179SLPC     P20408   5.383   6.175  10.661  0.0342  0.0066  0.1176
  179SLPC   O1320409   5.422   6.040  10.699 -0.0576  0.5800 -0.2645
  179SLPC   O1420410   5.244   6.210  10.708  0.0119 -0.2535 -0.3383
  179SLPC   O1220411   5.498   6.272  10.716  0.1052 -0.4167  0.0345
  179SLPC   O1120412   5.389   6.191  10.505  0.1557 -0.2715  0.0976
  179SLPC    C120413   5.276   6.179  10.419  0.6459  0.1625  0.0668
  179SLPC    HA20414   5.205   6.097  10.444  0.3184 -0.1333 -1.6999
  179SLPC    HB20415   5.227   6.278  10.422 -0.0509 -0.1333 -0.9633
  179SLPC    C220416   5.303   6.171  10.260 -1.0294  0.1187 -0.1482
  179SLPC    HS20417   5.204   6.157  10.213 -0.4580  2.5582 -2.2663
  179SLPC   O2120418   5.389   6.060  10.228  0.0937 -0.2561  0.2860
  179SLPC   C2120419   5.337   5.945  10.245  0.1489  0.1738  0.1076
  179SLPC   O2220420   5.225   5.912  10.286 -0.4538  0.1260 -0.7006
  179SLPC   C2220421   5.428   5.842  10.177 -0.3578  0.2513 -0.5047
  179SLPC   H2R20422   5.516   5.896  10.135  0.6180  0.6485  1.9106
  179SLPC   H2S20423   5.454   5.772  10.259 -0.7871 -1.4724 -1.7690
  179SLPC    C320424   5.372   6.300  10.214  0.0487  0.3531  0.0795
  179SLPC    HX20425   5.443   6.327  10.295  2.3113  2.5422 -2.4048
  179SLPC    HY20426   5.292   6.377  10.213 -1.6735 -1.3539 -1.3614
  179SLPC   O3120427   5.437   6.291  10.087  0.3746 -0.6503  0.3711
  179SLPC   C3120428   5.557   6.338  10.076 -0.3335 -0.3993 -0.1785
  179SLPC   O3220429   5.620   6.402  10.157 -0.2128 -0.1571 -0.6694
  179SLPC   C3220430   5.600   6.318   9.928  1.1628  0.3764  0.5229
  179SLPC   H2X20431   5.638   6.215   9.911 -0.4168 -0.2664  0.7060
  179SLPC   H2Y20432   5.675   6.392   9.894 -0.2392  0.9086 -1.6794
  179SLPC   C2320433   5.353   5.769  10.065 -0.0099 -0.1426 -0.1543
  179SLPC   H3R20434   5.267   5.716  10.111  1.1902 -2.4632 -0.4059
  179SLPC   H3S20435   5.410   5.685  10.020  0.7073  0.5126 -0.4878
  179SLPC   C2420436   5.304   5.864   9.957  0.1264 -0.3093 -0.4023
  179SLPC   H4R20437   5.262   5.959   9.997  0.9508  1.2497 -2.9865
  179SLPC   H4S20438   5.217   5.830   9.897 -2.0298  1.0625  1.7818
  179SLPC   C2520439   5.412   5.907   9.852  0.0513  0.2393 -0.0732
  179SLPC   H5R20440   5.509   5.905   9.907 -0.0778 -2.0686  0.1986
  179SLPC   H5S20441   5.398   6.012   9.821 -2.0583  0.2427  0.7228
  179SLPC   C2620442   5.416   5.819   9.732  0.2901 -0.3713 -0.4598
  179SLPC   H6R20443   5.316   5.813   9.684 -0.9130  1.5644  1.5974
  179SLPC   H6S20444   5.453   5.716   9.754  1.1074 -0.4453 -2.0597
  179SLPC   C2720445   5.511   5.886   9.622  0.2788  0.1454 -0.1028
  179SLPC   H7R20446   5.596   5.921   9.683  1.2636 -0.7536 -0.9091
  179SLPC   H7S20447   5.456   5.976   9.587  0.0688  1.2437  2.8097
  179SLPC   C2820448   5.552   5.792   9.510 -0.7413  0.2213 -0.0474
  179SLPC   H8R20449   5.597   5.706   9.564 -0.6444  0.2607 -0.0648
  179SLPC   H8S20450   5.646   5.828   9.462 -0.9948 -1.5716 -2.0167
  179SLPC   C2920451   5.447   5.749   9.407  0.2266 -0.3098 -0.3410
  179SLPC   H9R20452   5.352   5.717   9.451  0.9402  0.0259  1.5337
  179SLPC  C21020453   5.460   5.746   9.276 -0.0585  0.7776  0.7475
  179SLPC  H10R20454   5.370   5.736   9.214 -0.2293 -0.1477  1.1326
  179SLPC  C21120455   5.588   5.791   9.197  0.0387  0.1387 -0.2251
  179SLPC  H11R20456   5.621   5.691   9.162 -0.6525 -0.8031  1.7167
  179SLPC  H11S20457   5.671   5.824   9.263 -0.2520  0.6194 -0.0936
  179SLPC  C21220458   5.565   5.894   9.090 -0.0264 -0.1375  0.8000
  179SLPC  H12R20459   5.615   5.989   9.117  0.0013  0.2931 -0.6863
  179SLPC  C21320460   5.507   5.881   8.967 -0.6959 -0.7913 -0.5407
  179SLPC  H13R20461   5.528   5.964   8.898  1.5226  0.2511  1.2774
  179SLPC  C21420462   5.446   5.756   8.900 -0.5155 -0.4988  0.5473
  179SLPC  H14R20463   5.352   5.764   8.842  0.2069 -0.4010 -0.6341
  179SLPC  H14S20464   5.431   5.673   8.973 -0.6810 -0.9915 -0.0380
  179SLPC  C21520465   5.540   5.694   8.792  0.5014 -0.1991 -0.1526
  179SLPC  H15R20466   5.647   5.689   8.821  0.2056 -1.2666  0.7896
  179SLPC  H15S20467   5.541   5.769   8.710 -2.2344 -1.8921 -1.8815
  179SLPC  C21620468   5.504   5.557   8.738 -0.0365  0.4235  0.2912
  179SLPC  H16R20469   5.396   5.541   8.713 -0.0139 -2.0570  1.4968
  179SLPC  H16S20470   5.524   5.482   8.817 -1.2566 -1.3953 -1.0452
  179SLPC  C21720471   5.590   5.536   8.612  1.0246  0.2413 -0.1090
  179SLPC  H17R20472   5.695   5.565   8.632  1.1704 -0.2946 -0.0835
  179SLPC  H17S20473   5.549   5.607   8.537 -0.6906 -1.4519 -0.8580
  179SLPC  C21820474   5.591   5.389   8.556  0.7632 -0.3892 -0.2981
  179SLPC  H18R20475   5.644   5.387   8.458  1.4153 -1.3098  0.0660
  179SLPC  H18S20476   5.490   5.342   8.554  1.3868 -2.2068  3.2028
  179SLPC  H18T20477   5.641   5.321   8.628 -0.1540 -1.5439 -0.7114
  179SLPC   C3320478   5.484   6.320   9.823 -0.1901  0.3536 -0.2852
  179SLPC   H3X20479   5.422   6.412   9.831 -2.6718 -0.8408 -3.3649
  179SLPC   H3Y20480   5.418   6.238   9.858 -0.0297  0.1955 -0.3564
  179SLPC   C3420481   5.542   6.302   9.685  0.5050 -0.0756 -0.3235
  179SLPC   H4X20482   5.591   6.203   9.675  0.4208 -0.6797  3.7175
  179SLPC   H4Y20483   5.627   6.372   9.667 -0.3985  1.0986 -0.1874
  179SLPC   C3520484   5.439   6.329   9.577  0.6346  0.5998  0.4205
  179SLPC   H5X20485   5.382   6.423   9.585 -0.3952  0.2357 -1.8095
  179SLPC   H5Y20486   5.365   6.246   9.576  1.6940 -0.4139  1.9967
  179SLPC   C3620487   5.508   6.313   9.437  0.4817 -0.2648 -0.0318
  179SLPC   H6X20488   5.580   6.229   9.445  3.6395  1.9044 -2.7321
  179SLPC   H6Y20489   5.574   6.402   9.429  0.5506 -0.2005  1.0804
  179SLPC   C3720490   5.411   6.307   9.320  0.5758  0.9666 -0.0712
  179SLPC   H7X20491   5.365   6.408   9.318  1.5805  1.5030  1.5999
  179SLPC   H7Y20492   5.344   6.220   9.336  0.7625  0.9522  0.6854
  179SLPC   C3820493   5.485   6.279   9.191 -0.7786  0.1383  0.3601
  179SLPC   H8X20494   5.561   6.200   9.211 -2.3981 -1.8858 -1.1937
  179SLPC   H8Y20495   5.534   6.375   9.163 -0.2215  0.1038  1.1584
  179SLPC   C3920496   5.399   6.224   9.067  0.1198 -1.1118 -0.1244
  179SLPC   H9X20497   5.341   6.133   9.095 -2.3676  0.3957 -0.1154
  179SLPC   H9Y20498   5.475   6.211   8.987  0.5450 -0.4788  0.1720
  179SLPC  C31020499   5.294   6.330   9.016 -0.4939 -0.3720  0.3276
  179SLPC  H10X20500   5.351   6.414   8.972  0.2258  0.3177  2.4616
  179SLPC  H10Y20501   5.229   6.358   9.102  0.0562 -0.0941  0.6594
  179SLPC  C31120502   5.214   6.260   8.902 -0.1883  0.3937 -0.9146
  179SLPC  H11X20503   5.172   6.163   8.935 -0.2606  0.7108 -0.0473
  179SLPC  H11Y20504   5.296   6.242   8.830 -0.6059  0.2787 -1.3620
  179SLPC  C31220505   5.112   6.349   8.830 -0.4626  0.1886  0.2404
  179SLPC  H12X20506   5.147   6.451   8.855  1.7422  0.2316 -2.4966
  179SLPC  H12Y20507   5.012   6.334   8.877 -0.4719 -3.3406 -0.6035
  179SLPC  C31320508   5.096   6.309   8.679 -0.6823 -0.5132 -0.2203
  179SLPC  H13X20509   5.193   6.335   8.630 -0.5251 -2.2376 -0.8740
  179SLPC  H13Y20510   5.022   6.383   8.642 -1.5658 -0.2717  1.9019
  179SLPC  C31420511   5.057   6.160   8.666 -0.1022 -0.1854  0.1969
  179SLPC  H14X20512   4.964   6.141   8.723 -1.4958  1.5485 -1.3451
  179SLPC  H14Y20513   5.128   6.098   8.724 -0.2535  0.4070  1.0202
  179SLPC  C31520514   5.044   6.119   8.523 -0.0912 -0.1768 -0.1075
  179SLPC  H15X20515   5.041   6.008   8.516  2.0489 -0.2981  0.4380
  179SLPC  H15Y20516   5.137   6.148   8.469  1.1571 -1.4159  1.3105
  179SLPC  C31620517   4.927   6.189   8.446 -0.3009 -0.0061  0.6425
  179SLPC  H16X20518   4.926   6.296   8.476 -1.0674  0.1654  0.0312
  179SLPC  H16Y20519   4.832   6.149   8.487 -0.1279 -1.4513 -0.3112
  179SLPC  C31720520   4.938   6.170   8.290 -0.3566 -0.0310  0.3745
  179SLPC  H17X20521   4.981   6.071   8.266  2.5299  0.4555  2.9821
  179SLPC  H17Y20522   5.010   6.237   8.239 -0.6039 -2.8006 -4.1706
  179SLPC  C31820523   4.809   6.186   8.208 -0.3126  0.2310 -0.1519
  179SLPC  H18X20524   4.733   6.114   8.245 -0.0200  0.1973  0.3995
  179SLPC  H18Y20525   4.838   6.172   8.102  0.0767  1.1748 -0.1792
  179SLPC  H18Z20526   4.773   6.290   8.227 -1.1662 -0.3387  1.6143
  180SLPC     N20527   1.137   5.754  11.103  0.0918 -0.4710 -0.2185
  180SLPC   C1320528   1.160   5.768  10.951 -0.3314  0.3617  0.4955
  180SLPC  H13A20529   1.132   5.864  10.911 -1.2488 -0.1944 -0.2524
  180SLPC  H13B20530   1.266   5.762  10.929 -0.0262 -0.9415  2.1051
  180SLPC  H13C20531   1.098   5.692  10.904  0.9267  0.9675 -2.3781
  180SLPC   C1420532   1.207   5.638  11.143  0.5141  0.4499 -0.3057
  180SLPC  H14A20533   1.213   5.653  11.250  0.0971 -0.4503 -0.1511
  180SLPC  H14B20534   1.148   5.554  11.111 -0.9864  1.5292 -0.4534
  180SLPC  H14C20535   1.308   5.625  11.105  0.4329 -2.8047  0.2719
  180SLPC   C1520536   0.992   5.728  11.129  0.3599 -0.7845  0.6578
  180SLPC  H15A20537   0.927   5.811  11.107  1.6488  0.5225  1.5849
  180SLPC  H15B20538   0.968   5.641  11.070  2.6432 -0.2179 -1.2567
  180SLPC  H15C20539   0.983   5.698  11.233 -1.7183  0.1687  0.7881
  180SLPC   C1220540   1.188   5.877  11.178 -0.4851 -0.4614  0.1968
  180SLPC  H12A20541   1.292   5.885  11.152 -0.5979 -0.2550 -0.2033
  180SLPC  H12B20542   1.175   5.857  11.283 -0.2605 -0.5161  0.2153
  180SLPC   C1120543   1.122   6.004  11.137  0.1367 -0.0394  0.0026
  180SLPC  H11A20544   1.150   6.077  11.216  0.9125  1.1133 -1.2914
  180SLPC  H11B20545   1.011   6.009  11.139  0.1574  0.4610  0.0740
  180SLPC     P20546   1.279   6.163  10.993  0.1158  0.1948  0.1041
  180SLPC   O1320547   1.225   6.282  11.058 -0.1380  0.4685 -0.2315
  180SLPC   O1420548   1.415   6.126  11.045  0.0119 -0.6343 -0.1243
  180SLPC   O1220549   1.184   6.042  11.009 -0.1753  0.2984 -0.4372
  180SLPC   O1120550   1.284   6.178  10.841 -0.1856  0.7513 -0.0606
  180SLPC    C120551   1.286   6.073  10.743 -0.9519 -0.2084  0.1035
  180SLPC    HA20552   1.385   6.081  10.695 -1.8842  0.1453 -1.8606
  180SLPC    HB20553   1.290   5.970  10.785  0.2878  1.6978  5.4352
  180SLPC    C220554   1.174   6.099  10.644  0.2641 -0.3057 -0.0111
  180SLPC    HS20555   1.158   5.999  10.598  0.3306 -0.4207  0.2145
  180SLPC   O2120556   1.208   6.198  10.540  0.7042  0.0723  0.0477
  180SLPC   C2120557   1.173   6.160  10.417  0.3068  0.6992  0.6908
  180SLPC   O2220558   1.099   6.069  10.390 -0.3218  0.0567  0.0662
  180SLPC   C2220559   1.254   6.248  10.323  1.3469  0.8316  0.6272
  180SLPC   H2R20560   1.323   6.308  10.386  1.6970 -0.8021  1.8528
  180SLPC   H2S20561   1.310   6.181  10.254  0.7738  1.3040 -0.3293
  180SLPC    C320562   1.037   6.137  10.724 -0.4229 -0.2502  0.0692
  180SLPC    HX20563   1.049   6.242  10.760  2.0868  0.2064 -1.8471
  180SLPC    HY20564   1.031   6.058  10.802  1.8341 -1.2298 -0.6663
  180SLPC   O3120565   0.918   6.122  10.640 -0.0212 -0.2908 -0.6424
  180SLPC   C3120566   0.874   6.232  10.571 -0.4845  0.2919  0.3324
  180SLPC   O3220567   0.936   6.336  10.555 -0.2306 -0.1211 -0.1282
  180SLPC   C3220568   0.753   6.197  10.494  0.4156 -0.9368 -0.1350
  180SLPC   H2X20569   0.686   6.277  10.532  2.2803 -1.0793  4.1359
  180SLPC   H2Y20570   0.715   6.098  10.528 -1.4880 -0.9439 -2.0712
  180SLPC   C2320571   1.160   6.322  10.227  0.6792 -0.8718 -0.0354
  180SLPC   H3R20572   1.130   6.423  10.264  1.0767 -0.5159 -0.6701
  180SLPC   H3S20573   1.061   6.273  10.215 -0.7656  1.6181  0.8662
  180SLPC   C2420574   1.219   6.360  10.088 -0.3757 -0.3910 -0.8304
  180SLPC   H4R20575   1.132   6.364  10.019 -2.1320  0.7816  1.2938
  180SLPC   H4S20576   1.270   6.267  10.056 -0.8222 -0.7691 -0.4800
  180SLPC   C2520577   1.306   6.483  10.082 -0.4754  0.3753 -0.6456
  180SLPC   H5R20578   1.398   6.448  10.134  0.8131  1.1933 -2.2695
  180SLPC   H5S20579   1.243   6.564  10.125 -1.7295 -0.3270 -1.1387
  180SLPC   C2620580   1.362   6.519   9.938 -0.1704 -0.2036  0.2393
  180SLPC   H6R20581   1.295   6.596   9.895  1.3943  0.7918 -0.5038
  180SLPC   H6S20582   1.370   6.427   9.876  0.5841 -0.7857  1.1595
  180SLPC   C2720583   1.505   6.579   9.932  0.2017  0.8147 -0.5084
  180SLPC   H7R20584   1.574   6.494   9.949  0.1728  0.8018 -0.4555
  180SLPC   H7S20585   1.523   6.653  10.013 -0.2826 -0.6468  1.0073
  180SLPC   C2820586   1.522   6.648   9.796  0.3400 -0.6318 -0.8417
  180SLPC   H8R20587   1.614   6.710   9.806 -1.0823  1.1797  3.9393
  180SLPC   H8S20588   1.436   6.719   9.788  0.8305 -0.1520 -2.0272
  180SLPC   C2920589   1.523   6.550   9.686  0.7743 -0.3162 -0.7021
  180SLPC   H9R20590   1.547   6.446   9.712  1.9391  0.8190  3.4367
  180SLPC  C21020591   1.464   6.580   9.563 -0.0139  0.0079 -0.6671
  180SLPC  H10R20592   1.459   6.501   9.487 -0.5270 -0.3227 -0.2936
  180SLPC  C21120593   1.405   6.711   9.515 -0.6205 -0.2954 -0.5028
  180SLPC  H11R20594   1.466   6.749   9.430 -1.2842 -0.9493 -1.2827
  180SLPC  H11S20595   1.411   6.787   9.596 -0.7240  1.7379 -2.3068
  180SLPC  C21220596   1.260   6.722   9.480 -0.6937  0.4925  0.6133
  180SLPC  H12R20597   1.188   6.715   9.563 -1.8237 -1.5618 -0.4420
  180SLPC  C21320598   1.213   6.756   9.352 -0.5871 -0.1884 -0.1105
  180SLPC  H13R20599   1.103   6.763   9.353 -0.5481  0.4627  1.0494
  180SLPC  C21420600   1.281   6.794   9.224  0.0843  0.4738 -0.6252
  180SLPC  H14R20601   1.390   6.807   9.240 -0.2807  0.5069  2.5859
  180SLPC  H14S20602   1.252   6.901   9.211 -0.8655  0.0246 -2.4162
  180SLPC  C21520603   1.235   6.724   9.099 -0.6411  0.4952  0.2233
  180SLPC  H15R20604   1.255   6.793   9.015  1.4803 -1.9044 -1.3735
  180SLPC  H15S20605   1.128   6.698   9.117  0.1995 -3.3266  0.5440
  180SLPC  C21620606   1.323   6.598   9.096  0.0096  0.3570  0.9035
  180SLPC  H16R20607   1.304   6.549   9.193 -1.0797  0.6933  0.8716
  180SLPC  H16S20608   1.431   6.623   9.107  0.7539 -2.2976  0.3713
  180SLPC  C21720609   1.299   6.501   8.981  0.0605 -0.2153  0.1743
  180SLPC  H17R20610   1.373   6.419   8.982  0.1444 -0.1373  0.7622
  180SLPC  H17S20611   1.308   6.546   8.880 -0.3312 -0.2449  0.1234
  180SLPC  C21820612   1.162   6.432   8.986  0.0715  0.6252 -0.6420
  180SLPC  H18R20613   1.076   6.503   8.985  1.0849  2.0045  1.8073
  180SLPC  H18S20614   1.152   6.377   9.082 -2.1887  2.0301  0.0051
  180SLPC  H18T20615   1.139   6.360   8.904 -0.1373 -3.4325  2.6304
  180SLPC   C3320616   0.774   6.209  10.345 -0.1511  0.2065  0.4609
  180SLPC   H3X20617   0.847   6.135  10.305 -0.6523  0.2960 -0.6660
  180SLPC   H3Y20618   0.822   6.308  10.329  1.4330 -0.6728 -0.5147
  180SLPC   C3420619   0.636   6.193  10.276  0.3559 -0.4528 -0.1846
  180SLPC   H4X20620   0.574   6.281  10.304  1.5775  0.3505  0.0683
  180SLPC   H4Y20621   0.596   6.095  10.308 -2.0673  0.3880 -0.4388
  180SLPC   C3520622   0.641   6.164  10.123  0.3944 -0.8762  0.5351
  180SLPC   H5X20623   0.537   6.154  10.086  0.1154 -0.0595  1.0663
  180SLPC   H5Y20624   0.690   6.067  10.100 -0.4196 -0.7527 -2.1187
  180SLPC   C3620625   0.714   6.278  10.046  0.4443 -0.5774  0.5067
  180SLPC   H6X20626   0.821   6.292  10.075  0.7305 -2.0224  0.1979
  180SLPC   H6Y20627   0.668   6.373  10.082  2.4348  0.2445  1.0139
  180SLPC   C3720628   0.710   6.272   9.896 -0.5070 -0.2814 -0.3822
  180SLPC   H7X20629   0.608   6.268   9.851 -1.3923  2.1284  1.1651
  180SLPC   H7Y20630   0.764   6.188   9.848  1.5703  0.4240  0.6033
  180SLPC   C3820631   0.771   6.399   9.828 -0.0644  0.0934 -0.8575
  180SLPC   H8X20632   0.871   6.423   9.871  0.1850  2.6018 -2.6456
  180SLPC   H8Y20633   0.707   6.487   9.846  1.4220  2.4015 -5.3824
  180SLPC   C3920634   0.794   6.393   9.675  0.8829 -0.5033 -0.2203
  180SLPC   H9X20635   0.688   6.384   9.645  0.1434 -2.6552  2.6231
  180SLPC   H9Y20636   0.859   6.304   9.661 -0.7358 -1.7669  0.0310
  180SLPC  C31020637   0.871   6.517   9.631  0.0780  0.2804  0.8563
  180SLPC  H10X20638   0.963   6.521   9.694  0.5717 -1.8391  0.3540
  180SLPC  H10Y20639   0.818   6.612   9.651 -2.1469 -0.1761 -2.1869
  180SLPC  C31120640   0.917   6.505   9.484 -0.3677  0.0951  0.8497
  180SLPC  H11X20641   0.968   6.409   9.458  1.2938  1.1485  0.0201
  180SLPC  H11Y20642   0.991   6.583   9.455 -0.3864  1.0450  3.2052
  180SLPC  C31220643   0.794   6.518   9.390  0.8812  0.2187 -0.8080
  180SLPC  H12X20644   0.748   6.615   9.415 -3.0904 -1.6729 -0.0481
  180SLPC  H12Y20645   0.715   6.444   9.416  0.6198 -0.4619 -3.3086
  180SLPC  C31320646   0.827   6.498   9.242 -0.0147 -0.4276 -0.1957
  180SLPC  H13X20647   0.850   6.394   9.210  0.9540 -1.0012  2.1399
  180SLPC  H13Y20648   0.917   6.560   9.219 -0.3915  0.6922  1.2143
  180SLPC  C31420649   0.715   6.570   9.163 -1.0601  0.6314  0.4875
  180SLPC  H14X20650   0.678   6.658   9.221  0.1642  0.5024  1.4963
  180SLPC  H14Y20651   0.627   6.503   9.153  0.1525 -0.8449 -0.6878
  180SLPC  C31520652   0.752   6.611   9.020 -0.0436 -0.1680  0.3917
  180SLPC  H15X20653   0.759   6.513   8.967 -1.6783 -0.5307  0.7854
  180SLPC  H15Y20654   0.853   6.655   9.007 -0.8891  1.2659 -2.1221
  180SLPC  C31620655   0.643   6.694   8.957  0.7187  0.2715  0.0396
  180SLPC  H16X20656   0.631   6.783   9.022  2.8897 -0.2408  1.2471
  180SLPC  H16Y20657   0.548   6.637   8.964 -0.1543  1.6735 -0.0301
  180SLPC  C31720658   0.660   6.740   8.812 -0.0821  0.1447  0.5206
  180SLPC  H17X20659   0.730   6.826   8.817 -0.9182  0.7885  1.8712
  180SLPC  H17Y20660   0.563   6.768   8.767 -0.2301 -2.9258 -1.3491
  180SLPC  C31820661   0.713   6.629   8.705 -0.1121 -0.1178 -0.3019
  180SLPC  H18X20662   0.690   6.676   8.607  0.7714 -1.4884 -1.2066
  180SLPC  H18Y20663   0.660   6.532   8.712 -0.7659  0.3470  1.8993
  180SLPC  H18Z20664   0.823   6.617   8.716 -0.0174 -1.8591 -2.3541
  181SLPC     N20665   3.790   2.587  11.318 -0.0238  0.1091  0.1372
  181SLPC   C1320666   3.756   2.644  11.447 -0.3166  0.2555 -0.2574
  181SLPC  H13A20667   3.815   2.734  11.449  2.1507 -1.2557 -0.4564
  181SLPC  H13B20668   3.659   2.691  11.454 -0.0860  0.5436  1.9204
  181SLPC  H13C20669   3.770   2.575  11.529 -1.9003  0.2206  0.0239
  181SLPC   C1420670   3.745   2.446  11.310  0.2497 -0.2099 -0.1130
  181SLPC  H14A20671   3.644   2.438  11.348  0.3176  1.4762  0.5243
  181SLPC  H14B20672   3.740   2.409  11.209 -1.6160 -0.2640 -0.0388
  181SLPC  H14C20673   3.798   2.375  11.372  2.2658 -0.4422 -1.9910
  181SLPC   C1520674   3.942   2.599  11.293  0.2885  0.7070  0.4990
  181SLPC  H15A20675   3.989   2.525  11.356  1.1459  0.3768 -0.4981
  181SLPC  H15B20676   3.963   2.556  11.196 -1.6973 -0.4113  0.4936
  181SLPC  H15C20677   3.988   2.696  11.304 -0.4498  1.2966 -1.2425
  181SLPC   C1220678   3.729   2.671  11.204  0.0926  0.3055 -0.6775
  181SLPC  H12A20679   3.757   2.624  11.111 -0.7934  0.3898 -0.9915
  181SLPC  H12B20680   3.766   2.771  11.217  3.6205 -0.8452 -0.7967
  181SLPC   C1120681   3.566   2.673  11.200  0.4579 -0.4306  0.6653
  181SLPC  H11A20682   3.526   2.734  11.117  0.9299 -1.0988 -0.0696
  181SLPC  H11B20683   3.509   2.710  11.288 -1.6027 -0.5009 -0.5621
  181SLPC     P20684   3.375   2.505  11.137  0.3201  0.3912  0.0336
  181SLPC   O1320685   3.382   2.377  11.063  0.5873 -0.6810 -0.6997
  181SLPC   O1420686   3.300   2.513  11.262  0.2402  0.4224 -1.0104
  181SLPC   O1220687   3.522   2.545  11.162 -0.5287  0.0153 -0.8930
  181SLPC   O1120688   3.321   2.619  11.040 -0.0085  0.6083 -0.5901
  181SLPC    C120689   3.205   2.688  11.076 -0.1040 -0.7444 -0.0396
  181SLPC    HA20690   3.127   2.635  11.134 -0.7504 -1.1715 -1.2570
  181SLPC    HB20691   3.225   2.787  11.122 -0.2243 -1.0771  0.7416
  181SLPC    C220692   3.133   2.741  10.941 -0.0577 -0.1586  0.5725
  181SLPC    HS20693   3.086   2.651  10.896  2.4468 -2.8423  2.9108
  181SLPC   O2120694   3.231   2.806  10.849 -0.3931  1.3637 -0.5297
  181SLPC   C2120695   3.291   2.730  10.765 -1.5130 -0.2566  0.1843
  181SLPC   O2220696   3.276   2.607  10.757  0.0130 -0.6893 -0.4830
  181SLPC   C2220697   3.374   2.818  10.676 -0.2549 -0.2015 -1.5410
  181SLPC   H2R20698   3.326   2.916  10.655 -1.9144 -0.7336 -0.3994
  181SLPC   H2S20699   3.470   2.848  10.724 -1.0030  1.0601 -0.7675
  181SLPC    C320700   3.015   2.827  10.972  0.1699  0.8343  0.0741
  181SLPC    HX20701   3.054   2.903  11.043  1.5595 -0.2430  0.5022
  181SLPC    HY20702   2.946   2.757  11.024 -0.0546  0.5384 -0.6229
  181SLPC   O3120703   2.959   2.884  10.855  0.3241  0.0374  0.3716
  181SLPC   C3120704   2.861   2.970  10.873  0.3932 -1.5508  0.1879
  181SLPC   O3220705   2.832   3.023  10.981 -0.3791  0.5373  0.4978
  181SLPC   C3220706   2.773   2.983  10.750  0.7816 -0.4576  0.3047
  181SLPC   H2X20707   2.743   2.882  10.716  1.3364 -0.9830  1.3194
  181SLPC   H2Y20708   2.833   3.037  10.673  0.0876  2.9515  1.9710
  181SLPC   C2320709   3.387   2.756  10.537  0.1879 -0.4499  0.5575
  181SLPC   H3R20710   3.287   2.736  10.492  1.0577 -0.6253 -1.4179
  181SLPC   H3S20711   3.444   2.661  10.542  0.1047 -0.7515 -2.2746
  181SLPC   C2420712   3.461   2.850  10.442  0.5711 -0.3378 -0.6282
  181SLPC   H4R20713   3.554   2.876  10.498  0.6156 -2.3275  0.3016
  181SLPC   H4S20714   3.394   2.936  10.422 -2.8281 -1.7093  3.4860
  181SLPC   C2520715   3.509   2.780  10.316  0.6318 -0.5385 -0.0868
  181SLPC   H5R20716   3.416   2.754  10.261  0.5184 -3.2372  1.2081
  181SLPC   H5S20717   3.557   2.680  10.329 -0.7423 -1.5351 -2.1339
  181SLPC   C2620718   3.598   2.856  10.222 -0.6370 -0.2099  0.3675
  181SLPC   H6R20719   3.699   2.876  10.263  1.4117 -1.7693 -3.4028
  181SLPC   H6S20720   3.543   2.948  10.191 -1.2383 -0.8270 -0.4607
  181SLPC   C2720721   3.632   2.773  10.094 -0.0997 -0.0426  0.1973
  181SLPC   H7R20722   3.554   2.800  10.019  0.6416  3.2965  0.4680
  181SLPC   H7S20723   3.631   2.666  10.125 -2.6648 -0.1128  0.0589
  181SLPC   C2820724   3.773   2.806  10.037 -0.2868  0.4951 -0.2784
  181SLPC   H8R20725   3.837   2.815  10.127 -1.8572  0.7469  0.8611
  181SLPC   H8S20726   3.768   2.914  10.011 -1.3918  1.1697  2.4145
  181SLPC   C2920727   3.825   2.710   9.931  0.3653  0.6734 -0.0304
  181SLPC   H9R20728   3.822   2.736   9.825  2.6371  0.2139 -0.2642
  181SLPC  C21020729   3.904   2.602   9.961  0.3920  0.0862  0.2235
  181SLPC  H10R20730   3.932   2.542   9.873 -1.6529 -0.1152 -0.3552
  181SLPC  C21120731   3.951   2.524  10.084 -0.3812  0.0646 -0.5504
  181SLPC  H11R20732   3.865   2.468  10.128 -0.6192 -1.0622 -2.3469
  181SLPC  H11S20733   3.974   2.598  10.163 -0.1648 -1.2237  0.6395
  181SLPC  C21220734   4.074   2.447  10.061 -0.1498 -0.0715  0.2127
  181SLPC  H12R20735   4.170   2.499  10.077 -1.0694  1.2116  1.8905
  181SLPC  C21320736   4.068   2.321  10.027  0.0227 -0.4278  0.5301
  181SLPC  H13R20737   4.157   2.258  10.012  0.8108  0.5536  0.9901
  181SLPC  C21420738   3.942   2.239  10.011  0.0278  0.7641  0.0642
  181SLPC  H14R20739   3.848   2.282  10.053  2.5403  4.0536  2.9765
  181SLPC  H14S20740   3.954   2.145  10.069 -0.5311  1.2530  1.0118
  181SLPC  C21520741   3.917   2.179   9.869 -0.1175 -0.6203  0.7507
  181SLPC  H15R20742   3.834   2.105   9.871 -1.5269  0.8124 -1.0869
  181SLPC  H15S20743   4.009   2.127   9.836 -1.1515 -0.8528 -2.0042
  181SLPC  C21620744   3.885   2.270   9.747  0.3601 -0.1237 -0.0042
  181SLPC  H16R20745   3.821   2.357   9.773 -1.7891 -1.6066 -0.1676
  181SLPC  H16S20746   3.815   2.206   9.690 -0.1679  1.7086 -1.5182
  181SLPC  C21720747   4.004   2.306   9.658  0.1825 -0.0707  0.1127
  181SLPC  H17R20748   4.056   2.210   9.633 -0.9957 -1.4798  2.6912
  181SLPC  H17S20749   4.069   2.372   9.719 -2.0970  3.1126 -0.7105
  181SLPC  C21820750   3.956   2.375   9.532  0.3847  0.1185 -0.6832
  181SLPC  H18R20751   3.884   2.306   9.483  0.7361  1.8125 -3.8459
  181SLPC  H18S20752   4.035   2.389   9.455  0.6100  0.1913 -0.4397
  181SLPC  H18T20753   3.902   2.470   9.553 -2.7732 -1.4625 -1.0962
  181SLPC   C3320754   2.650   3.074  10.767 -0.0410 -0.5220  0.2985
  181SLPC   H3X20755   2.612   3.051  10.869 -1.9110 -1.5817 -0.5861
  181SLPC   H3Y20756   2.574   3.041  10.693  1.6939  0.7385 -2.1715
  181SLPC   C3420757   2.682   3.227  10.765  0.1981  0.3339  0.0000
  181SLPC   H4X20758   2.770   3.244  10.831  2.8374 -0.5168 -3.0293
  181SLPC   H4Y20759   2.608   3.286  10.823  0.6171  1.2613 -0.3857
  181SLPC   C3520760   2.705   3.275  10.624 -0.1281 -0.4837  0.3522
  181SLPC   H5X20761   2.753   3.195  10.564  0.3636 -0.4946  0.7498
  181SLPC   H5Y20762   2.790   3.348  10.624  0.2106 -0.8734  0.7097
  181SLPC   C3620763   2.572   3.322  10.556 -0.1116 -0.3939 -0.7373
  181SLPC   H6X20764   2.550   3.421  10.601 -3.0611 -0.3821 -1.9761
  181SLPC   H6Y20765   2.493   3.250  10.588 -0.7643 -0.1165 -1.6906
  181SLPC   C3720766   2.570   3.348  10.409  0.1572  0.4469  0.5586
  181SLPC   H7X20767   2.669   3.389  10.379  0.4176  0.3797  1.3299
  181SLPC   H7Y20768   2.486   3.414  10.378 -2.3684 -2.9028 -0.3917
  181SLPC   C3820769   2.539   3.226  10.328 -0.1540 -0.2495  0.3684
  181SLPC   H8X20770   2.448   3.179  10.370 -1.5997  1.0383 -1.1569
  181SLPC   H8Y20771   2.617   3.147  10.335 -0.1572 -0.6241 -2.6491
  181SLPC   C3920772   2.534   3.249  10.175 -0.4664 -0.0042  0.3747
  181SLPC   H9X20773   2.448   3.317  10.156 -1.4676 -1.7557 -1.7422
  181SLPC   H9Y20774   2.523   3.159  10.111  0.5287  1.2838 -1.7026
  181SLPC  C31020775   2.673   3.317  10.118  0.5434  0.2448  0.1850
  181SLPC  H10X20776   2.756   3.274  10.179 -1.6044 -1.9116  1.8184
  181SLPC  H10Y20777   2.667   3.425  10.143  1.6405  0.1150  1.1343
  181SLPC  C31120778   2.682   3.294   9.966  0.0063 -0.0376  0.3106
  181SLPC  H11X20779   2.603   3.354   9.914 -0.8002 -1.6864 -0.4505
  181SLPC  H11Y20780   2.658   3.194   9.926 -1.0281  0.2838  0.0897
  181SLPC  C31220781   2.815   3.341   9.911  0.4941  0.2016 -0.3077
  181SLPC  H12X20782   2.906   3.304   9.963  0.1623 -0.0805  0.0785
  181SLPC  H12Y20783   2.818   3.451   9.927  0.3422  0.0210  1.0552
  181SLPC  C31320784   2.828   3.328   9.758 -0.4543  0.4032  0.6091
  181SLPC  H13X20785   2.879   3.410   9.703 -0.2701 -1.1296 -1.6900
  181SLPC  H13Y20786   2.725   3.340   9.719  0.0150  0.7850 -0.5640
  181SLPC  C31420787   2.911   3.217   9.697  0.0615 -0.3697 -0.5696
  181SLPC  H14X20788   3.019   3.218   9.724  0.2168 -1.0969 -1.1392
  181SLPC  H14Y20789   2.915   3.219   9.586 -0.8721  1.1080 -0.5967
  181SLPC  C31520790   2.866   3.081   9.746  0.4827  0.1457 -0.2959
  181SLPC  H15X20791   2.756   3.069   9.732  0.3652  0.1617  0.5969
  181SLPC  H15Y20792   2.868   3.081   9.857 -2.8548 -0.9729 -0.1115
  181SLPC  C31620793   2.939   2.973   9.668 -0.0140  0.8151 -0.3005
  181SLPC  H16X20794   3.048   2.996   9.673  0.9420 -3.1948  0.8918
  181SLPC  H16Y20795   2.908   2.966   9.561 -0.1736  0.3296 -0.2248
  181SLPC  C31720796   2.935   2.831   9.731  0.0479 -0.2887 -0.6036
  181SLPC  H17X20797   2.987   2.848   9.827  2.2879 -1.2637 -1.5782
  181SLPC  H17Y20798   2.989   2.761   9.664 -1.6392 -0.8599 -1.4292
  181SLPC  C31820799   2.793   2.781   9.751  0.1464  0.6619 -0.0436
  181SLPC  H18X20800   2.800   2.700   9.826 -0.9258  1.6303  1.1667
  181SLPC  H18Y20801   2.742   2.750   9.657 -0.4397 -1.0745  0.8105
  181SLPC  H18Z20802   2.738   2.868   9.793  1.3807  0.4326  2.1660
  182SLPC     N20803   1.759   5.925  10.862 -0.2519 -0.1733  0.0692
  182SLPC   C1320804   1.709   6.062  10.917  0.5176  0.2013 -0.0299
  182SLPC  H13A20805   1.603   6.081  10.922  0.6783  1.3830 -0.6423
  182SLPC  H13B20806   1.748   6.061  11.018  0.9452 -1.6514 -0.1905
  182SLPC  H13C20807   1.755   6.145  10.864 -0.1604  1.5224  1.3533
  182SLPC   C1420808   1.750   5.808  10.954 -0.3562 -0.6148  0.3283
  182SLPC  H14A20809   1.822   5.817  11.034  0.1026  1.7526 -0.2897
  182SLPC  H14B20810   1.651   5.800  10.997 -0.7838  0.9040 -0.3240
  182SLPC  H14C20811   1.777   5.725  10.890  3.4503 -0.9932  2.1255
  182SLPC   C1520812   1.905   5.929  10.824  0.1918 -0.0346 -0.0321
  182SLPC  H15A20813   1.928   5.988  10.737 -0.7486 -0.3421 -0.5065
  182SLPC  H15B20814   1.973   5.946  10.906 -0.7909  3.2138  0.2407
  182SLPC  H15C20815   1.925   5.831  10.783 -0.8149 -0.9290  1.5124
  182SLPC   C1220816   1.671   5.887  10.733  0.0533 -0.2740  0.0193
  182SLPC  H12A20817   1.695   5.964  10.660  1.3694 -0.5890  0.1026
  182SLPC  H12B20818   1.566   5.903  10.754  0.7872  1.3261  3.0705
  182SLPC   C1120819   1.693   5.750  10.660  0.5421 -0.2904 -0.1427
  182SLPC  H11A20820   1.801   5.730  10.639  1.0076  0.5784  1.2636
  182SLPC  H11B20821   1.645   5.754  10.560  0.2722 -2.6956 -0.1628
  182SLPC     P20822   1.464   5.646  10.756 -0.1017 -0.0328 -0.0537
  182SLPC   O1320823   1.437   5.524  10.840 -0.0481 -0.8212 -0.6576
  182SLPC   O1420824   1.427   5.776  10.819 -0.1822  0.4270 -0.0997
  182SLPC   O1220825   1.622   5.643  10.722 -0.9376  0.3600 -0.4352
  182SLPC   O1120826   1.397   5.637  10.613 -0.2997  0.9259 -0.1576
  182SLPC    C120827   1.463   5.556  10.514  0.4744  0.1204  0.8356
  182SLPC    HA20828   1.493   5.631  10.438  0.0912  1.5134  2.0165
  182SLPC    HB20829   1.558   5.509  10.547 -0.3951 -1.2587  1.4534
  182SLPC    C220830   1.367   5.450  10.458 -0.0260  0.1851  0.2360
  182SLPC    HS20831   1.423   5.386  10.388 -0.0012  0.8480 -0.3591
  182SLPC   O2120832   1.247   5.511  10.400 -0.1380  0.1148  0.0877
  182SLPC   C2120833   1.261   5.576  10.296  0.2169 -0.1499  1.1070
  182SLPC   O2220834   1.362   5.566  10.222 -0.0437 -0.2058 -0.1909
  182SLPC   C2220835   1.132   5.651  10.260 -0.8233 -0.0162  0.1545
  182SLPC   H2R20836   1.055   5.572  10.250  1.0689 -1.7464 -1.6742
  182SLPC   H2S20837   1.116   5.704  10.357  0.1333  0.3084  0.1457
  182SLPC    C320838   1.321   5.368  10.579  0.6251  0.0818 -1.0903
  182SLPC    HX20839   1.247   5.430  10.632  1.1926  0.8198 -1.1472
  182SLPC    HY20840   1.400   5.353  10.655 -2.2795 -0.4787  2.0603
  182SLPC   O3120841   1.264   5.245  10.536  0.1415  0.2798  0.7617
  182SLPC   C3120842   1.354   5.149  10.523  0.0756 -0.2558  0.4368
  182SLPC   O3220843   1.475   5.167  10.531 -0.4308 -0.3681 -0.5630
  182SLPC   C3220844   1.293   5.013  10.484  0.0198 -0.2148 -0.0617
  182SLPC   H2X20845   1.251   5.030  10.383 -0.0759  3.6530  0.4686
  182SLPC   H2Y20846   1.210   4.979  10.551 -0.2450  0.4552 -0.0481
  182SLPC   C2320847   1.127   5.735  10.128 -0.2692 -0.5060  0.3462
  182SLPC   H3R20848   1.130   5.664  10.043  0.0602  0.6994 -0.6795
  182SLPC   H3S20849   1.210   5.809  10.133 -0.6491  0.0150 -0.8126
  182SLPC   C2420850   0.998   5.826  10.121  0.3144  0.0068  0.3810
  182SLPC   H4R20851   0.967   5.840  10.226 -2.1237  0.2208 -0.3166
  182SLPC   H4S20852   0.911   5.774  10.076  0.8502  0.6952 -1.5567
  182SLPC   C2520853   1.022   5.959  10.056 -0.5129  0.0806 -0.1109
  182SLPC   H5R20854   1.105   6.008  10.112  0.0245 -1.7563  0.7749
  182SLPC   H5S20855   0.923   6.009  10.060 -0.6884 -0.1488 -1.4122
  182SLPC   C2620856   1.059   5.968   9.905 -0.5352 -0.0301 -0.0327
  182SLPC   H6R20857   0.971   5.933   9.847 -0.7801 -1.7734  1.2634
  182SLPC   H6S20858   1.152   5.911   9.882 -0.4908 -0.8563  1.9713
  182SLPC   C2720859   1.102   6.108   9.865  0.1812  0.5877 -1.0605
  182SLPC   H7R20860   1.179   6.139   9.939 -0.3904  0.1763 -0.2672
  182SLPC   H7S20861   1.017   6.178   9.881 -0.8943 -0.4482 -2.0543
  182SLPC   C2820862   1.159   6.105   9.728 -0.0314  0.3757  0.0113
  182SLPC   H8R20863   1.094   6.052   9.655 -0.2990 -2.2223  2.0016
  182SLPC   H8S20864   1.257   6.052   9.728 -0.0523  0.2955 -1.3096
  182SLPC   C2920865   1.198   6.244   9.687 -0.2649 -0.0057  0.4425
  182SLPC   H9R20866   1.225   6.314   9.768 -3.6234  0.3926  1.3515
  182SLPC  C21020867   1.221   6.287   9.563 -0.0578  0.1291 -0.1933
  182SLPC  H10R20868   1.243   6.393   9.542 -0.1929  0.7829  2.6162
  182SLPC  C21120869   1.216   6.197   9.444 -0.1026  0.6325 -0.0224
  182SLPC  H11R20870   1.113   6.157   9.435  0.2375 -0.7116  1.6020
  182SLPC  H11S20871   1.272   6.104   9.464 -0.6503  0.0849 -0.9630
  182SLPC  C21220872   1.256   6.247   9.305  0.1437  0.5443  0.4297
  182SLPC  H12R20873   1.258   6.356   9.294 -0.3425  0.6719  1.4747
  182SLPC  C21320874   1.290   6.160   9.206 -0.6390  0.3944 -0.6076
  182SLPC  H13R20875   1.332   6.192   9.110  0.5018 -0.2660 -0.3490
  182SLPC  C21420876   1.300   6.008   9.211  0.1559  0.2384 -0.4005
  182SLPC  H14R20877   1.279   5.968   9.109  3.5445  1.8922 -1.8965
  182SLPC  H14S20878   1.228   5.969   9.286  1.6066  0.7177  1.2912
  182SLPC  C21520879   1.436   5.959   9.257  0.2573 -0.4634  0.4320
  182SLPC  H15R20880   1.450   5.968   9.366  0.9644 -0.3270  0.3349
  182SLPC  H15S20881   1.526   5.996   9.204 -0.3642 -1.3054 -1.3225
  182SLPC  C21620882   1.447   5.815   9.223 -1.4337  0.2132  0.1630
  182SLPC  H16R20883   1.464   5.812   9.113  0.0602  0.9743  0.3414
  182SLPC  H16S20884   1.357   5.754   9.246 -1.2531 -0.7168 -1.4845
  182SLPC  C21720885   1.571   5.742   9.292 -0.1907 -0.3156 -0.1206
  182SLPC  H17R20886   1.561   5.647   9.348  1.3113 -0.4980 -0.1220
  182SLPC  H17S20887   1.607   5.812   9.370 -0.9612  0.1114 -0.1338
  182SLPC  C21820888   1.691   5.710   9.192 -0.0709  0.2975 -0.0691
  182SLPC  H18R20889   1.653   5.629   9.126  0.7856  0.8261 -1.2408
  182SLPC  H18S20890   1.771   5.661   9.251 -2.1517 -0.6211  2.1731
  182SLPC  H18T20891   1.712   5.802   9.134 -2.8674 -0.4875 -2.6622
  182SLPC   C3320892   1.400   4.906  10.489 -0.1701  0.2134 -0.0135
  182SLPC   H3X20893   1.425   4.891  10.597  1.7567  2.8092 -0.0034
  182SLPC   H3Y20894   1.495   4.936  10.441  0.0109 -1.5967 -0.8778
  182SLPC   C3420895   1.345   4.775  10.434  0.3308 -0.3134  0.2750
  182SLPC   H4X20896   1.253   4.749  10.491  0.4528 -1.8312 -0.1839
  182SLPC   H4Y20897   1.420   4.695  10.452  1.8941  0.4413 -2.4264
  182SLPC   C3520898   1.311   4.783  10.283  0.0719  0.3480  0.0599
  182SLPC   H5X20899   1.397   4.825  10.227 -0.9489 -2.3365 -3.8788
  182SLPC   H5Y20900   1.230   4.857  10.266 -2.0403 -1.7996  0.2181
  182SLPC   C3620901   1.258   4.654  10.223  0.1662 -0.3130  0.2080
  182SLPC   H6X20902   1.163   4.614  10.264 -1.5884  0.2187 -2.9815
  182SLPC   H6Y20903   1.333   4.575  10.242 -0.0506 -0.5170  0.2285
  182SLPC   C3720904   1.229   4.668  10.072  0.1585  0.5487 -0.1822
  182SLPC   H7X20905   1.129   4.715  10.082 -0.4683 -0.9597  0.9928
  182SLPC   H7Y20906   1.213   4.566  10.031  2.4223  0.1720 -0.2887
  182SLPC   C3820907   1.331   4.729   9.974  0.6310 -0.9524 -0.4171
  182SLPC   H8X20908   1.422   4.667   9.959  0.9663 -0.3704 -0.8310
  182SLPC   H8Y20909   1.372   4.825  10.010 -1.1814  0.3106 -1.5472
  182SLPC   C3920910   1.277   4.749   9.831 -0.3057 -0.7393 -0.6299
  182SLPC   H9X20911   1.365   4.780   9.770 -1.9778  1.5809 -1.9961
  182SLPC   H9Y20912   1.197   4.824   9.818  0.4512  0.3166  0.5154
  182SLPC  C31020913   1.225   4.618   9.772  0.5490  0.1988 -1.0215
  182SLPC  H10X20914   1.122   4.598   9.810  1.2697 -2.1623 -0.1391
  182SLPC  H10Y20915   1.280   4.530   9.811  0.9911  0.1434 -1.7439
  182SLPC  C31120916   1.245   4.619   9.621  0.3179 -0.3473 -0.5392
  182SLPC  H11X20917   1.221   4.519   9.579 -1.3362 -0.3669  0.3651
  182SLPC  H11Y20918   1.353   4.637   9.602  0.6766 -1.4347  0.3339
  182SLPC  C31220919   1.174   4.727   9.535  0.6773 -0.1039 -0.1221
  182SLPC  H12X20920   1.216   4.829   9.551 -0.9891  0.5103  0.5387
  182SLPC  H12Y20921   1.064   4.730   9.552  0.9253 -3.2680  3.1397
  182SLPC  C31320922   1.204   4.708   9.382 -0.0562  0.2097 -0.0354
  182SLPC  H13X20923   1.160   4.615   9.340  0.2057  0.2833 -0.4848
  182SLPC  H13Y20924   1.314   4.699   9.367 -0.3688  1.3669 -4.7063
  182SLPC  C31420925   1.164   4.827   9.286 -0.2894  0.1846  0.5011
  182SLPC  H14X20926   1.219   4.919   9.315  1.0608 -0.7667  1.0675
  182SLPC  H14Y20927   1.054   4.845   9.291 -0.4774 -1.0043  0.8409
  182SLPC  C31520928   1.193   4.786   9.141  0.4470 -0.0632 -0.0832
  182SLPC  H15X20929   1.131   4.700   9.108 -0.8990  0.2563  1.4498
  182SLPC  H15Y20930   1.301   4.763   9.126  0.6480 -1.5994  2.9222
  182SLPC  C31620931   1.168   4.901   9.032  0.2142  0.1413 -0.9510
  182SLPC  H16X20932   1.129   4.997   9.071  1.2162  2.0131 -4.1751
  182SLPC  H16Y20933   1.082   4.870   8.969 -1.3644  1.8519  0.2430
  182SLPC  C31720934   1.299   4.934   8.954 -0.2649 -0.3892  0.2997
  182SLPC  H17X20935   1.338   4.841   8.907  0.7735  0.7659 -1.2368
  182SLPC  H17Y20936   1.367   4.972   9.033  1.2376 -1.4429 -0.4501
  182SLPC  C31820937   1.282   5.040   8.843  0.0853  0.1450  0.3333
  182SLPC  H18X20938   1.211   4.998   8.768 -0.4056  0.8916  0.3622
  182SLPC  H18Y20939   1.379   5.065   8.795 -0.3143  0.8587 -0.1270
  182SLPC  H18Z20940   1.246   5.130   8.897  1.1500  0.7043  0.1315
  183SLPC     N20941   1.728   4.259  11.357  0.8457  0.4362 -0.2700
  183SLPC   C1320942   1.794   4.365  11.286 -0.4566 -0.3956 -0.1410
  183SLPC  H13A20943   1.884   4.394  11.338 -2.1362  0.9314  2.2207
  183SLPC  H13B20944   1.825   4.335  11.187  3.7119 -1.3659  1.2732
  183SLPC  H13C20945   1.722   4.446  11.282 -0.0563  0.0076  0.7399
  183SLPC   C1420946   1.668   4.315  11.474  0.8297 -0.0818 -0.1461
  183SLPC  H14A20947   1.742   4.378  11.521  1.2931 -1.2625  0.7871
  183SLPC  H14B20948   1.589   4.387  11.461  0.8289  0.3925  2.1155
  183SLPC  H14C20949   1.635   4.239  11.544  0.3965 -1.2621 -1.5893
  183SLPC   C1520950   1.827   4.152  11.396  0.2252 -0.0667 -1.3496
  183SLPC  H15A20951   1.873   4.106  11.310  0.0265 -1.1865 -0.8807
  183SLPC  H15B20952   1.916   4.188  11.446  0.1245 -1.4979 -0.0517
  183SLPC  H15C20953   1.794   4.069  11.457  1.3319 -0.5613 -1.3854
  183SLPC   C1220954   1.628   4.192  11.266 -0.6410  0.0201 -0.1315
  183SLPC  H12A20955   1.541   4.254  11.254 -2.0812 -1.6581  1.0221
  183SLPC  H12B20956   1.585   4.103  11.311 -2.0251 -0.3456 -2.0252
  183SLPC   C1120957   1.686   4.144  11.123  0.6024 -0.2063 -0.4424
  183SLPC  H11A20958   1.627   4.058  11.084  0.7499 -0.6543  0.3076
  183SLPC  H11B20959   1.791   4.109  11.133  1.2656  1.4825 -1.0965
  183SLPC     P20960   1.573   4.338  10.987  0.0640 -0.5896 -0.0526
  183SLPC   O1320961   1.447   4.295  11.044  0.7499 -0.0026 -0.5800
  183SLPC   O1420962   1.602   4.484  11.009 -0.3680 -0.2070 -0.1103
  183SLPC   O1220963   1.692   4.254  11.037 -0.4506 -0.2634  0.1136
  183SLPC   O1120964   1.580   4.312  10.832  0.2436  0.7199 -0.3027
  183SLPC    C120965   1.692   4.329  10.756 -0.5269  0.3635 -0.7478
  183SLPC    HA20966   1.732   4.429  10.782 -0.4567 -0.2016  1.4595
  183SLPC    HB20967   1.762   4.252  10.796 -2.4559 -0.9371  0.2985
  183SLPC    C220968   1.666   4.325  10.602 -0.0576 -0.5895  0.0256
  183SLPC    HS20969   1.580   4.256  10.586  0.5086 -1.7648  1.8333
  183SLPC   O2120970   1.785   4.282  10.530 -0.3195  0.5295  0.1065
  183SLPC   C2120971   1.784   4.150  10.502  1.3556  0.2482 -0.2006
  183SLPC   O2220972   1.712   4.067  10.552  0.0468  0.1220  0.2047
  183SLPC   C2220973   1.893   4.115  10.404 -0.6158  0.0101 -0.5716
  183SLPC   H2R20974   1.989   4.169  10.418 -0.7722  0.0527  0.4255
  183SLPC   H2S20975   1.917   4.011  10.435 -2.0888 -0.2631 -0.3126
  183SLPC    C320976   1.622   4.468  10.556  0.1114  0.0452  0.4868
  183SLPC    HX20977   1.688   4.546  10.598 -1.2559  1.0276  0.8610
  183SLPC    HY20978   1.526   4.481  10.611 -0.6842  2.5358 -1.2968
  183SLPC   O3120979   1.609   4.486  10.416  0.0647  0.2814  0.1887
  183SLPC   C3120980   1.695   4.575  10.351 -0.0985  0.9870  0.2164
  183SLPC   O3220981   1.760   4.655  10.407 -0.2234 -0.4877  0.1218
  183SLPC   C3220982   1.687   4.551  10.198 -0.1074 -0.6762 -0.0382
  183SLPC   H2X20983   1.580   4.577  10.183 -0.9331 -3.7708 -0.2293
  183SLPC   H2Y20984   1.698   4.441  10.185 -0.2571 -0.5847 -0.9945
  183SLPC   C2320985   1.846   4.111  10.255  0.5255 -0.0048  0.0402
  183SLPC   H3R20986   1.811   4.211  10.220 -2.2931 -1.7336 -2.4666
  183SLPC   H3S20987   1.764   4.037  10.250  0.5734 -0.0150 -0.6413
  183SLPC   C2420988   1.961   4.071  10.161 -0.1958 -0.0575  0.1405
  183SLPC   H4R20989   1.974   3.961  10.175  1.0830 -0.2320 -1.9884
  183SLPC   H4S20990   2.053   4.124  10.195 -0.4411 -0.9511  2.3954
  183SLPC   C2520991   1.924   4.114  10.016 -1.2109  0.6520 -0.5541
  183SLPC   H5R20992   1.925   4.225  10.021 -0.0612  0.6578 -0.5249
  183SLPC   H5S20993   1.822   4.079   9.990 -1.3928  0.3460  0.5165
  183SLPC   C2620994   2.026   4.066   9.905 -0.5531 -0.1015  0.2006
  183SLPC   H6R20995   2.013   3.956   9.899 -0.0690 -0.1135 -0.8691
  183SLPC   H6S20996   2.132   4.096   9.924 -0.4739  1.2915 -2.0916
  183SLPC   C2720997   1.974   4.098   9.767 -0.4182  0.2784 -0.7751
  183SLPC   H7R20998   1.965   4.207   9.752 -1.7269  0.1690 -0.8830
  183SLPC   H7S20999   1.873   4.054   9.752 -0.7830  0.9738 -0.4056
  183SLPC   C2821000   2.062   4.035   9.660 -0.0970  0.7720 -0.1741
  183SLPC   H8R21001   2.008   4.050   9.564  0.3526  0.9407 -0.4057
  183SLPC   H8S21002   2.093   3.933   9.690  0.6472  1.3275  1.0287
  183SLPC   C2921003   2.191   4.107   9.648 -0.1491 -0.2147  0.8511
  183SLPC   H9R21004   2.260   4.090   9.731  0.4896 -0.3289  0.3061
  183SLPC  C21021005   2.237   4.185   9.545  0.5989  0.0231  0.1362
  183SLPC  H10R21006   2.330   4.241   9.561  0.6366 -0.0432  0.1496
  183SLPC  C21121007   2.163   4.202   9.409 -0.3178 -0.0331  0.2038
  183SLPC  H11R21008   2.097   4.117   9.385  2.4235 -1.3457 -3.7038
  183SLPC  H11S21009   2.232   4.191   9.323  0.1845 -1.8918  0.8091
  183SLPC  C21221010   2.094   4.336   9.397  0.7888 -0.1803 -0.0033
  183SLPC  H12R21011   2.062   4.387   9.488 -1.4953 -0.7871 -0.4184
  183SLPC  C21321012   2.044   4.383   9.281  0.4969  0.2281 -0.1436
  183SLPC  H13R21013   2.004   4.485   9.283 -1.0859 -0.3745  0.1895
  183SLPC  C21421014   2.056   4.315   9.145  0.4157  0.1876 -1.1364
  183SLPC  H14R21015   2.104   4.214   9.143  0.1158  0.0394 -0.8990
  183SLPC  H14S21016   2.111   4.377   9.070 -1.1369  0.5999 -1.9809
  183SLPC  C21521017   1.912   4.296   9.083  0.4713 -0.7790  0.6004
  183SLPC  H15R21018   1.870   4.399   9.084  0.5555 -0.7264  2.5968
  183SLPC  H15S21019   1.849   4.232   9.149 -0.8487 -1.2020 -0.9781
  183SLPC  C21621020   1.905   4.248   8.938  0.6424  0.2296  0.1879
  183SLPC  H16R21021   1.971   4.310   8.873  3.9140 -1.4743  1.6282
  183SLPC  H16S21022   1.801   4.263   8.903  0.6438  1.2093  0.5968
  183SLPC  C21721023   1.942   4.102   8.936  0.1307 -0.0609 -0.0777
  183SLPC  H17R21024   1.872   4.044   9.001  1.6976 -1.5810  0.3160
  183SLPC  H17S21025   2.049   4.090   8.963  0.1604  0.6557  0.1318
  183SLPC  C21821026   1.911   4.019   8.805  0.2919 -0.3430 -0.7817
  183SLPC  H18R21027   1.926   3.911   8.826  0.3706 -0.5586 -1.8683
  183SLPC  H18S21028   1.988   4.041   8.728  1.6426 -1.3299  0.2306
  183SLPC  H18T21029   1.809   4.043   8.767  0.8877  2.2553 -0.9362
  183SLPC   C3321030   1.773   4.644  10.109  0.8199  0.5512  0.1146
  183SLPC   H3X21031   1.880   4.620  10.127  0.9160  1.2450  0.5165
  183SLPC   H3Y21032   1.757   4.750  10.141 -4.0868  0.6271 -1.7368
  183SLPC   C3421033   1.731   4.636   9.965  0.6480 -0.3075 -0.7072
  183SLPC   H4X21034   1.806   4.692   9.906  0.6063  0.7063  0.1744
  183SLPC   H4Y21035   1.638   4.696   9.962 -0.0569 -1.3984 -1.7958
  183SLPC   C3521036   1.713   4.494   9.908  0.0254 -0.2757  0.0747
  183SLPC   H5X21037   1.606   4.465   9.914  0.0676 -0.3662  0.3837
  183SLPC   H5Y21038   1.771   4.426   9.974  1.6464  0.3410 -0.6478
  183SLPC   C3621039   1.767   4.475   9.764 -0.6171  1.0727 -0.4065
  183SLPC   H6X21040   1.734   4.374   9.732  0.2312 -0.5179  3.2074
  183SLPC   H6Y21041   1.878   4.470   9.768 -0.6314  1.3262  2.3779
  183SLPC   C3721042   1.727   4.580   9.665  0.5399  0.3823  0.0962
  183SLPC   H7X21043   1.779   4.675   9.689 -1.6550  0.9926  2.9531
  183SLPC   H7Y21044   1.619   4.595   9.687  0.6120  1.1751 -0.0614
  183SLPC   C3821045   1.722   4.528   9.522 -0.7247 -0.3171  1.0268
  183SLPC   H8X21046   1.675   4.427   9.522 -1.4733  0.0161  0.6201
  183SLPC   H8Y21047   1.824   4.499   9.490 -1.4505 -3.5754  1.3330
  183SLPC   C3921048   1.658   4.612   9.413  0.2482  0.2887  0.0727
  183SLPC   H9X21049   1.657   4.721   9.432  0.1676  0.6465 -1.7638
  183SLPC   H9Y21050   1.552   4.584   9.400  0.2842  0.7350 -1.3883
  183SLPC  C31021051   1.725   4.586   9.274 -0.3756  0.1118 -0.2469
  183SLPC  H10X21052   1.707   4.478   9.255  0.8674 -0.1160 -0.2190
  183SLPC  H10Y21053   1.830   4.614   9.297 -0.4499 -0.2532  0.5427
  183SLPC  C31121054   1.668   4.664   9.154  0.0715  0.4673 -0.1888
  183SLPC  H11X21055   1.640   4.769   9.179 -2.2557  0.2473 -1.5388
  183SLPC  H11Y21056   1.571   4.619   9.123 -0.2419 -0.0807  1.4790
  183SLPC  C31221057   1.770   4.678   9.040 -0.0269  0.2528  0.0630
  183SLPC  H12X21058   1.803   4.577   9.007  1.7635  1.5580 -2.4008
  183SLPC  H12Y21059   1.863   4.731   9.070 -0.6149  1.6221 -0.4465
  183SLPC  C31321060   1.716   4.751   8.918  0.4250 -0.0343  0.3491
  183SLPC  H13X21061   1.795   4.757   8.840 -0.9708  4.0362 -0.9903
  183SLPC  H13Y21062   1.690   4.852   8.957 -1.2702  0.6776 -2.3838
  183SLPC  C31421063   1.592   4.696   8.856 -0.0448 -0.3627  0.3649
  183SLPC  H14X21064   1.502   4.692   8.921  0.4197  1.8473  1.2288
  183SLPC  H14Y21065   1.616   4.594   8.820  1.7936  0.6575 -1.5315
  183SLPC  C31521066   1.556   4.781   8.727  0.3270 -0.2796 -0.0670
  183SLPC  H15X21067   1.641   4.800   8.658 -0.0929  2.0057 -0.0295
  183SLPC  H15Y21068   1.521   4.886   8.743 -1.1359 -0.3006 -2.6140
  183SLPC  C31621069   1.446   4.712   8.644 -0.4013  0.0726  0.5152
  183SLPC  H16X21070   1.358   4.719   8.712  0.4226 -1.2713  1.7817
  183SLPC  H16Y21071   1.473   4.605   8.631 -0.0720  0.3475 -1.2963
  183SLPC  C31721072   1.425   4.771   8.499 -0.1905  0.0905 -0.0437
  183SLPC  H17X21073   1.350   4.704   8.453 -0.3556 -0.8153  1.4851
  183SLPC  H17Y21074   1.521   4.754   8.446  0.5238  1.0650  0.8751
  183SLPC  C31821075   1.396   4.922   8.488  0.6049 -0.2371 -0.1366
  183SLPC  H18X21076   1.450   4.979   8.567 -1.6950  0.6182  0.8901
  183SLPC  H18Y21077   1.289   4.948   8.500 -0.0750 -2.6187 -0.5658
  183SLPC  H18Z21078   1.411   4.952   8.382  0.1871 -0.6323 -0.3125
  184SLPC     N21079   4.393   1.649  10.965  0.3530 -1.1169 -0.2227
  184SLPC   C1321080   4.363   1.777  10.885 -0.2005  0.5389 -0.5540
  184SLPC  H13A21081   4.263   1.808  10.911  0.3284  0.8287  1.2631
  184SLPC  H13B21082   4.439   1.847  10.917 -0.1760 -0.2032  1.1059
  184SLPC  H13C21083   4.378   1.766  10.778 -0.0050  0.2816 -0.5012
  184SLPC   C1421084   4.394   1.685  11.115 -0.2743 -0.4246 -0.4205
  184SLPC  H14A21085   4.297   1.723  11.145  0.2097  1.1277 -0.7294
  184SLPC  H14B21086   4.411   1.597  11.175 -1.3526 -0.3771 -0.0276
  184SLPC  H14C21087   4.470   1.761  11.124  0.3092 -0.9230 -1.0618
  184SLPC   C1521088   4.525   1.599  10.918 -0.9151 -0.6427  0.8825
  184SLPC  H15A21089   4.588   1.686  10.928 -2.6635  0.7882 -0.1131
  184SLPC  H15B21090   4.571   1.515  10.968 -0.4327 -1.0144 -0.1394
  184SLPC  H15C21091   4.523   1.564  10.816 -1.3331  0.1778  0.6043
  184SLPC   C1221092   4.289   1.548  10.931 -0.1586 -0.1730  0.4745
  184SLPC  H12A21093   4.274   1.550  10.824 -0.4051 -2.1968  0.4155
  184SLPC  H12B21094   4.195   1.582  10.972 -0.6149  0.8454 -1.3072
  184SLPC   C1121095   4.319   1.397  10.964  0.5130  0.2847  0.1799
  184SLPC  H11A21096   4.224   1.341  10.959 -0.0549  1.0918  1.5012
  184SLPC  H11B21097   4.362   1.384  11.065  1.0915  1.3891  0.0917
  184SLPC     P21098   4.362   1.322  10.726  0.0656  0.2915 -0.0944
  184SLPC   O1321099   4.247   1.229  10.728 -0.4242 -0.2561 -0.9204
  184SLPC   O1421100   4.335   1.454  10.662 -0.0065  0.1941  0.2392
  184SLPC   O1221101   4.414   1.343  10.870 -0.4055 -0.5670 -0.3431
  184SLPC   O1121102   4.480   1.256  10.656 -0.2054 -0.2699  0.0590
  184SLPC    C121103   4.616   1.314  10.650  0.5858 -0.5307 -0.3125
  184SLPC    HA21104   4.644   1.371  10.741  1.1970 -0.8529 -0.2935
  184SLPC    HB21105   4.691   1.232  10.643  0.8467 -0.2361 -1.1310
  184SLPC    C221106   4.634   1.407  10.534  0.6546  0.7057  0.6176
  184SLPC    HS21107   4.592   1.509  10.552  1.9736  1.7292 -1.6152
  184SLPC   O2121108   4.590   1.347  10.406  0.4232 -0.4485  0.3399
  184SLPC   C2121109   4.518   1.428  10.326  0.1738  0.3823  0.5070
  184SLPC   O2221110   4.483   1.543  10.353 -0.0307  0.5616  0.7395
  184SLPC   C2221111   4.502   1.361  10.186 -0.4449 -0.7156 -0.4358
  184SLPC   H2R21112   4.590   1.298  10.161 -0.6949 -0.5621 -1.7405
  184SLPC   H2S21113   4.421   1.286  10.192 -1.9486  0.8716 -0.1350
  184SLPC    C321114   4.785   1.434  10.515 -0.6172  0.2755 -0.3461
  184SLPC    HX21115   4.823   1.344  10.462  0.0371 -0.4130  1.2162
  184SLPC    HY21116   4.845   1.440  10.609  0.0613 -1.8879 -0.5978
  184SLPC   O3121117   4.806   1.552  10.437  0.2509  0.4117  0.3883
  184SLPC   C3121118   4.781   1.666  10.493  0.2279 -0.4950 -0.6133
  184SLPC   O3221119   4.760   1.678  10.612 -0.2958  0.2368  0.0843
  184SLPC   C3221120   4.808   1.781  10.390  0.1495 -0.5083 -0.1852
  184SLPC   H2X21121   4.916   1.790  10.369  0.7929 -1.1998  2.4338
  184SLPC   H2Y21122   4.771   1.868  10.447  0.0898  1.1331 -2.5784
  184SLPC   C2321123   4.470   1.462  10.071  0.0394 -1.1264  0.9528
  184SLPC   H3R21124   4.550   1.539  10.068 -0.3118 -0.7329  1.4545
  184SLPC   H3S21125   4.366   1.500  10.083  0.3071  0.5915 -1.4658
  184SLPC   C2421126   4.468   1.398   9.929  0.4174 -0.6163  0.0697
  184SLPC   H4R21127   4.408   1.305   9.937 -2.8102  1.1381 -1.6394
  184SLPC   H4S21128   4.573   1.368   9.908  1.5577  1.8012  1.7895
  184SLPC   C2521129   4.424   1.491   9.818  0.4407 -0.5275 -0.5910
  184SLPC   H5R21130   4.485   1.584   9.824 -2.0644  1.2127 -0.7603
  184SLPC   H5S21131   4.315   1.506   9.835  0.7530  0.2066  0.8825
  184SLPC   C2621132   4.455   1.438   9.669 -0.0106 -0.4545 -0.5329
  184SLPC   H6R21133   4.399   1.347   9.639 -1.9728  0.6142 -0.3035
  184SLPC   H6S21134   4.562   1.408   9.670  0.1143 -0.0158  0.0354
  184SLPC   C2721135   4.425   1.547   9.562 -0.1096 -0.0168  0.7860
  184SLPC   H7R21136   4.492   1.636   9.562 -0.4406  0.2316  0.6806
  184SLPC   H7S21137   4.320   1.583   9.572 -0.7727 -1.1395 -1.5462
  184SLPC   C2821138   4.420   1.488   9.415 -0.5459  0.2595 -0.5783
  184SLPC   H8R21139   4.388   1.581   9.363  0.5926  0.9424 -0.1002
  184SLPC   H8S21140   4.344   1.407   9.409 -0.1209 -0.4852  2.5110
  184SLPC   C2921141   4.564   1.457   9.378 -0.1868  0.1625 -0.3210
  184SLPC   H9R21142   4.644   1.522   9.415  0.8941 -1.6605  0.7100
  184SLPC  C21021143   4.589   1.344   9.306  0.1163  0.5805  0.3070
  184SLPC  H10R21144   4.694   1.325   9.278 -0.2796 -0.0248 -0.8420
  184SLPC  C21121145   4.494   1.242   9.253  1.0514 -0.4576 -0.0338
  184SLPC  H11R21146   4.394   1.291   9.254 -0.3087 -3.0227 -1.1263
  184SLPC  H11S21147   4.478   1.166   9.332  0.8161 -0.6219 -0.2401
  184SLPC  C21221148   4.509   1.174   9.122 -0.5474 -0.0231  0.3635
  184SLPC  H12R21149   4.612   1.181   9.083  0.1275 -1.7523  1.7015
  184SLPC  C21321150   4.413   1.105   9.049  0.2797  0.4315  0.1202
  184SLPC  H13R21151   4.435   1.067   8.948  0.7273 -1.6685  0.9581
  184SLPC  C21421152   4.266   1.089   9.089  0.4150  0.2621 -0.6466
  184SLPC  H14R21153   4.239   1.130   9.188 -0.9449 -0.0574 -0.8654
  184SLPC  H14S21154   4.232   0.983   9.095 -0.9764  0.7707  0.7394
  184SLPC  C21521155   4.164   1.141   8.982  0.0781 -0.6121 -0.5272
  184SLPC  H15R21156   4.198   1.242   8.950 -0.6847 -0.9630 -2.6479
  184SLPC  H15S21157   4.070   1.130   9.040  0.3410 -1.1933 -0.2072
  184SLPC  C21621158   4.167   1.056   8.859 -0.3408  0.6746  0.7761
  184SLPC  H16R21159   4.236   0.968   8.858 -1.1993 -0.0215  1.2066
  184SLPC  H16S21160   4.211   1.120   8.779  0.1746 -0.1831  0.3588
  184SLPC  C21721161   4.027   1.008   8.812 -0.6471 -0.8785  0.0277
  184SLPC  H17R21162   3.983   1.097   8.761  0.6117  2.4424  4.1696
  184SLPC  H17S21163   3.964   0.990   8.901 -0.1321 -1.3185  0.3106
  184SLPC  C21821164   4.047   0.890   8.724 -0.6847 -0.0519 -0.7026
  184SLPC  H18R21165   3.950   0.866   8.675 -0.6687 -0.4875 -0.5293
  184SLPC  H18S21166   4.086   0.801   8.778 -0.3107  0.8812  0.5940
  184SLPC  H18T21167   4.122   0.913   8.645  1.1280 -1.3291  0.5553
  184SLPC   C3321168   4.749   1.764  10.253 -0.0819  0.3510  0.6127
  184SLPC   H3X21169   4.741   1.860  10.197 -2.5006 -0.4443 -0.5641
  184SLPC   H3Y21170   4.644   1.729  10.261 -0.0538 -1.5174 -4.1631
  184SLPC   C3421171   4.828   1.665  10.166  0.2956  0.4738  0.1088
  184SLPC   H4X21172   4.782   1.565  10.182 -1.2461  0.7680 -2.1198
  184SLPC   H4Y21173   4.932   1.669  10.204  0.9764  2.4443 -1.7663
  184SLPC   C3521174   4.814   1.699  10.015 -0.7529  0.0989  0.2300
  184SLPC   H5X21175   4.869   1.795  10.005 -1.1882  0.2175 -1.1729
  184SLPC   H5Y21176   4.707   1.704   9.986 -1.7080  1.9767  3.5796
  184SLPC   C3621177   4.878   1.583   9.933 -0.4049 -0.0084 -0.1455
  184SLPC   H6X21178   4.835   1.484   9.962 -1.5234 -0.8320 -4.0012
  184SLPC   H6Y21179   4.988   1.579   9.947 -0.5863  1.4010  1.9912
  184SLPC   C3721180   4.851   1.590   9.779  0.1697  0.5951 -0.4007
  184SLPC   H7X21181   4.741   1.586   9.766 -0.0426 -0.6191  1.4151
  184SLPC   H7Y21182   4.889   1.497   9.732 -3.3904 -0.4513 -1.4963
  184SLPC   C3821183   4.908   1.715   9.720  0.1115 -0.0506 -0.1609
  184SLPC   H8X21184   5.012   1.730   9.755 -0.2851 -0.9412  1.5121
  184SLPC   H8Y21185   4.847   1.803   9.750  1.5129  0.9144 -0.0426
  184SLPC   C3921186   4.893   1.711   9.567  0.4732 -0.0246  0.4908
  184SLPC   H9X21187   4.917   1.812   9.528  2.3854  0.1464  1.9413
  184SLPC   H9Y21188   4.785   1.692   9.548  0.0705  2.2813  0.1064
  184SLPC  C31021189   4.992   1.613   9.494  1.0293  0.4796  0.4676
  184SLPC  H10X21190   4.971   1.504   9.496  1.7718  0.3012 -0.8349
  184SLPC  H10Y21191   5.097   1.622   9.530  0.6532  2.6150  1.1685
  184SLPC  C31121192   5.004   1.632   9.340  0.2026  0.1510 -0.5904
  184SLPC  H11X21193   5.091   1.573   9.304  0.7377 -0.4502  1.5121
  184SLPC  H11Y21194   5.012   1.742   9.322  0.9118  0.5067  1.5408
  184SLPC  C31221195   4.873   1.595   9.269 -0.0135  0.1226 -0.4613
  184SLPC  H12X21196   4.791   1.653   9.317  0.2299 -1.9376  2.7552
  184SLPC  H12Y21197   4.852   1.490   9.298 -0.7516  0.9899  2.4351
  184SLPC  C31321198   4.874   1.628   9.119  0.1858 -0.3664  0.1874
  184SLPC  H13X21199   4.948   1.556   9.077  1.0184  0.9507 -0.6716
  184SLPC  H13Y21200   4.912   1.732   9.105 -0.7406 -0.0274  0.1422
  184SLPC  C31421201   4.741   1.619   9.042  0.0394 -0.7502 -0.2997
  184SLPC  H14X21202   4.713   1.512   9.055  1.6131 -0.9498  2.1052
  184SLPC  H14Y21203   4.761   1.616   8.933  0.8682 -1.4232 -0.1372
  184SLPC  C31521204   4.631   1.714   9.089  0.8350  0.0522  0.2363
  184SLPC  H15X21205   4.674   1.817   9.082  0.5085  0.2003  0.4152
  184SLPC  H15Y21206   4.598   1.705   9.195 -0.9860 -0.3105 -0.3399
  184SLPC  C31621207   4.512   1.693   9.001  0.0466  0.1692  0.3602
  184SLPC  H16X21208   4.542   1.698   8.894 -2.5132  0.8842 -0.4212
  184SLPC  H16Y21209   4.444   1.780   9.013 -2.3450 -1.2321 -1.9127
  184SLPC  C31721210   4.435   1.560   9.015 -0.1977  0.1389 -1.0605
  184SLPC  H17X21211   4.402   1.557   9.121 -2.8565  2.2248 -1.7256
  184SLPC  H17Y21212   4.505   1.477   8.988 -0.2523 -0.2788  0.0380
  184SLPC  C31821213   4.311   1.555   8.930 -0.8312  0.2320 -0.3598
  184SLPC  H18X21214   4.340   1.544   8.823  1.9501  3.2371 -0.0610
  184SLPC  H18Y21215   4.246   1.644   8.937  0.4332  1.4335 -2.8136
  184SLPC  H18Z21216   4.243   1.471   8.957  2.0017 -1.8763  0.6757
  185SLPC     N21217   4.711   3.929   6.616  0.7424  0.6088 -0.7368
  185SLPC   C1321218   4.779   3.798   6.663  0.4627 -0.4865 -0.3246
  185SLPC  H13A21219   4.808   3.798   6.767 -2.7968 -1.5870  0.7168
  185SLPC  H13B21220   4.721   3.708   6.644 -0.5972  0.1125 -0.0128
  185SLPC  H13C21221   4.874   3.796   6.612  1.5195  1.9932  1.3715
  185SLPC   C1421222   4.674   3.909   6.472  0.1328 -0.4957  0.0297
  185SLPC  H14A21223   4.591   3.840   6.464 -1.1962  0.9001  1.0529
  185SLPC  H14B21224   4.639   4.000   6.425  0.0835  0.3374  1.5989
  185SLPC  H14C21225   4.755   3.875   6.410 -1.6558 -1.8749 -1.6965
  185SLPC   C1521226   4.813   4.038   6.635  0.5198  0.1386  0.4565
  185SLPC  H15A21227   4.906   4.015   6.587 -1.3449  0.7753 -3.8815
  185SLPC  H15B21228   4.783   4.137   6.604  2.5017  0.2984 -1.1587
  185SLPC  H15C21229   4.845   4.043   6.738  2.4334 -0.0816 -0.0893
  185SLPC   C1221230   4.580   3.952   6.697  0.0087 -0.2485 -0.4128
  185SLPC  H12A21231   4.612   3.991   6.793 -0.3596 -2.4328  0.6645
  185SLPC  H12B21232   4.498   3.881   6.703 -0.9232  0.7569 -0.9421
  185SLPC   C1121233   4.490   4.065   6.634  0.4253  0.6314  0.2592
  185SLPC  H11A21234   4.423   4.100   6.715 -0.3083  0.5854 -0.3284
  185SLPC  H11B21235   4.431   4.015   6.554  0.7658 -0.5693  0.7263
  185SLPC     P21236   4.496   4.293   6.525  0.0841 -0.4201 -0.0271
  185SLPC   O1321237   4.603   4.376   6.468  0.1287 -0.0748 -0.3677
  185SLPC   O1421238   4.397   4.253   6.424  0.1052 -0.1251 -0.4023
  185SLPC   O1221239   4.568   4.171   6.587 -0.1534  0.3882  0.7096
  185SLPC   O1121240   4.428   4.365   6.647  0.1781 -0.1642  0.1396
  185SLPC    C121241   4.299   4.329   6.696 -0.3421 -0.1082 -0.2957
  185SLPC    HA21242   4.221   4.386   6.640 -0.6162  1.0064  1.1597
  185SLPC    HB21243   4.268   4.223   6.691 -1.1229  0.1096 -0.1995
  185SLPC    C221244   4.280   4.382   6.841  0.4275  0.2456 -0.4574
  185SLPC    HS21245   4.343   4.323   6.911 -1.9104 -2.7638 -0.7002
  185SLPC   O2121246   4.139   4.368   6.871 -0.0965  0.2613 -0.2303
  185SLPC   C2121247   4.099   4.272   6.943  0.5662 -0.0743 -0.3997
  185SLPC   O2221248   4.172   4.184   6.984  0.1367  0.1427  0.2294
  185SLPC   C2221249   3.962   4.302   6.997  0.1667  0.7522 -0.1835
  185SLPC   H2R21250   3.907   4.369   6.927 -1.0971  1.4208  1.3848
  185SLPC   H2S21251   3.920   4.202   7.019  2.5325 -0.0996  0.6648
  185SLPC    C321252   4.317   4.530   6.841 -0.2166  0.1813  0.3360
  185SLPC    HX21253   4.234   4.588   6.796 -0.9917 -0.8863  0.3270
  185SLPC    HY21254   4.415   4.545   6.791 -0.9651  1.7962 -0.7091
  185SLPC   O3121255   4.335   4.562   6.984 -0.2432  0.6373 -0.3449
  185SLPC   C3121256   4.366   4.686   6.998 -0.3055 -0.0087 -0.2826
  185SLPC   O3221257   4.362   4.769   6.905 -0.8428  0.8203 -0.0265
  185SLPC   C3221258   4.363   4.722   7.149  0.1089  0.2797  0.6538
  185SLPC   H2X21259   4.290   4.804   7.165 -1.6630 -1.0370 -0.2366
  185SLPC   H2Y21260   4.468   4.748   7.173  0.5600  1.6344 -2.3359
  185SLPC   C2321261   3.971   4.394   7.125 -0.7026  0.4517  0.4997
  185SLPC   H3R21262   3.870   4.436   7.141  0.0766  2.2922  0.8004
  185SLPC   H3S21263   4.032   4.483   7.097  1.0539 -1.6880 -3.2807
  185SLPC   C2421264   4.012   4.324   7.248  0.0456  0.4107 -0.3273
  185SLPC   H4R21265   4.116   4.288   7.239  0.0757  0.3724  0.1880
  185SLPC   H4S21266   3.949   4.233   7.259  1.5941 -0.8400 -1.3391
  185SLPC   C2521267   3.993   4.409   7.377 -0.0020  0.0433  0.6466
  185SLPC   H5R21268   3.888   4.443   7.389  0.0348  0.8250 -0.9947
  185SLPC   H5S21269   4.061   4.496   7.363  0.3691 -0.2576  0.5550
  185SLPC   C2621270   4.027   4.331   7.505  0.1525 -0.0013  0.3307
  185SLPC   H6R21271   3.951   4.251   7.517  1.9527 -1.8897 -0.1491
  185SLPC   H6S21272   4.029   4.407   7.585  1.2359  0.3029  0.0344
  185SLPC   C2721273   4.163   4.266   7.493 -0.6311 -0.1813 -0.8132
  185SLPC   H7R21274   4.232   4.347   7.461 -1.8138  0.8284 -0.8985
  185SLPC   H7S21275   4.163   4.175   7.429  1.5402  0.2044 -1.4233
  185SLPC   C2821276   4.217   4.229   7.631  0.2184 -0.5534  0.1566
  185SLPC   H8R21277   4.196   4.304   7.710  0.0680  0.0352 -0.4222
  185SLPC   H8S21278   4.328   4.238   7.625  0.2189 -1.1668 -0.9351
  185SLPC   C2921279   4.176   4.087   7.671 -0.2069  1.1045  0.4351
  185SLPC   H9R21280   4.178   4.013   7.590 -0.9071  2.0678 -0.4744
  185SLPC  C21021281   4.113   4.054   7.781  0.3392 -0.2457  0.5076
  185SLPC  H10R21282   4.105   3.948   7.812  0.2471 -0.2291  0.5417
  185SLPC  C21121283   4.072   4.151   7.895 -0.4091  0.3834  0.5660
  185SLPC  H11R21284   4.006   4.225   7.845 -0.1893  0.7986  0.8839
  185SLPC  H11S21285   4.160   4.213   7.924 -1.1683  1.9387 -0.3325
  185SLPC  C21221286   4.003   4.095   8.011 -0.2099 -0.2086  0.4931
  185SLPC  H12R21287   3.895   4.087   7.995  0.2457 -1.7174 -2.5543
  185SLPC  C21321288   4.061   4.060   8.132  0.3180  0.1462  0.2636
  185SLPC  H13R21289   3.997   4.036   8.219 -1.5882 -4.0709 -1.9829
  185SLPC  C21421290   4.202   4.073   8.184 -0.3526  0.3793  0.5944
  185SLPC  H14R21291   4.257   4.136   8.112 -1.5201 -0.5362 -1.1758
  185SLPC  H14S21292   4.256   3.977   8.195  0.4330  0.7755  0.2451
  185SLPC  C21521293   4.218   4.149   8.318 -0.6440  0.8682  0.0612
  185SLPC  H15R21294   4.151   4.109   8.397 -0.5449  0.4762 -0.0499
  185SLPC  H15S21295   4.178   4.251   8.300 -3.4183 -0.1404  0.0911
  185SLPC  C21621296   4.354   4.169   8.381  0.2410  0.3081 -0.5458
  185SLPC  H16R21297   4.361   4.250   8.457  0.4534 -0.8895  0.7544
  185SLPC  H16S21298   4.416   4.198   8.293 -0.2401  0.2903 -0.8909
  185SLPC  C21721299   4.411   4.048   8.453 -0.0206  0.2270  0.2860
  185SLPC  H17R21300   4.521   4.036   8.463 -0.3289 -4.5868  0.4509
  185SLPC  H17S21301   4.375   3.958   8.398  5.2489 -0.4695 -2.8034
  185SLPC  C21821302   4.342   4.035   8.588  0.6381  0.8403 -0.0309
  185SLPC  H18R21303   4.233   4.022   8.573  0.9403 -0.6820 -1.2399
  185SLPC  H18S21304   4.356   4.127   8.649  1.4014 -0.0580  1.2185
  185SLPC  H18T21305   4.382   3.944   8.638  1.8264  0.2610 -1.9517
  185SLPC   C3321306   4.322   4.603   7.238  0.0350  0.0535 -1.0047
  185SLPC   H3X21307   4.374   4.506   7.225 -0.9518 -0.4505 -1.2600
  185SLPC   H3Y21308   4.217   4.584   7.209  0.4310 -1.4314 -1.5559
  185SLPC   C3421309   4.326   4.634   7.386  0.3357  0.0519 -0.1335
  185SLPC   H4X21310   4.434   4.655   7.404  0.4485 -1.1337  0.6115
  185SLPC   H4Y21311   4.308   4.541   7.444  1.3515 -0.8280 -1.1721
  185SLPC   C3521312   4.246   4.757   7.412 -0.1413 -0.2150  0.2504
  185SLPC   H5X21313   4.144   4.734   7.375 -0.0460  1.6573 -1.3494
  185SLPC   H5Y21314   4.284   4.849   7.362 -0.2827  0.1146  0.7406
  185SLPC   C3621315   4.243   4.791   7.561 -0.5010 -0.2544 -0.5606
  185SLPC   H6X21316   4.177   4.880   7.571 -3.8058 -2.5423 -0.5782
  185SLPC   H6Y21317   4.341   4.826   7.601  0.2178  1.3515 -3.4357
  185SLPC   C3721318   4.185   4.682   7.649  0.2500  0.1558  0.9674
  185SLPC   H7X21319   4.259   4.601   7.665  1.3286  0.7487 -0.7610
  185SLPC   H7Y21320   4.092   4.639   7.606  1.0255 -0.5292 -0.0667
  185SLPC   C3821321   4.149   4.720   7.793  0.0475 -0.6531 -0.0436
  185SLPC   H8X21322   4.070   4.797   7.783  0.9566  0.2320 -0.6975
  185SLPC   H8Y21323   4.236   4.767   7.844  1.1802 -1.5347 -1.1184
  185SLPC   C3921324   4.117   4.602   7.888  0.1050 -0.7299  0.1147
  185SLPC   H9X21325   4.211   4.550   7.916 -0.3900 -1.5503  0.2956
  185SLPC   H9Y21326   4.039   4.533   7.847  0.8964 -1.2539 -0.5352
  185SLPC  C31021327   4.049   4.656   8.010 -0.4324  0.4822 -0.5735
  185SLPC  H10X21328   3.948   4.701   8.007 -0.7713 -0.0885  1.4072
  185SLPC  H10Y21329   4.117   4.736   8.047  1.1631 -1.0512 -0.0402
  185SLPC  C31121330   4.051   4.550   8.121 -0.0654  0.5431  0.8556
  185SLPC  H11X21331   4.154   4.515   8.143  0.1269  0.1396 -0.5996
  185SLPC  H11Y21332   4.001   4.456   8.090  1.7396 -0.2683  0.2883
  185SLPC  C31221333   3.972   4.607   8.245 -0.3745  0.6243 -0.3710
  185SLPC  H12X21334   3.868   4.631   8.215 -0.2144  1.7077 -0.1327
  185SLPC  H12Y21335   4.004   4.712   8.268  0.0935  0.7371 -1.4870
  185SLPC  C31321336   3.987   4.519   8.368 -0.4463  0.3884 -0.0524
  185SLPC  H13X21337   3.957   4.570   8.462 -1.0929 -0.9975  0.5291
  185SLPC  H13Y21338   4.096   4.501   8.373 -0.6016 -0.9110 -0.7999
  185SLPC  C31421339   3.913   4.383   8.372  0.2435 -0.7004 -0.1318
  185SLPC  H14X21340   3.959   4.328   8.287  2.0504 -1.3502  1.2044
  185SLPC  H14Y21341   3.805   4.393   8.350  0.4432  1.6839 -0.2191
  185SLPC  C31521342   3.934   4.291   8.497 -0.3462 -0.6779 -0.0801
  185SLPC  H15X21343   3.929   4.361   8.584  0.8947 -0.6441 -0.0142
  185SLPC  H15Y21344   4.042   4.265   8.488  0.4301  2.3321 -0.7147
  185SLPC  C31621345   3.852   4.172   8.504  0.1105 -0.1515 -0.1000
  185SLPC  H16X21346   3.885   4.104   8.422  0.1597 -1.6648  1.1124
  185SLPC  H16Y21347   3.746   4.202   8.492 -0.3882 -0.8693  2.0268
  185SLPC  C31721348   3.877   4.092   8.638  0.1725 -0.3226 -0.4558
  185SLPC  H17X21349   3.853   4.147   8.731  0.6072 -1.1122  0.1407
  185SLPC  H17Y21350   3.983   4.062   8.654  0.4927 -0.0504 -1.9108
  185SLPC  C31821351   3.790   3.966   8.641  0.4388  0.9863  0.5233
  185SLPC  H18X21352   3.813   3.919   8.543 -0.7731  2.9782 -0.7930
  185SLPC  H18Y21353   3.681   3.986   8.645  0.4112  0.7203  1.2875
  185SLPC  H18Z21354   3.829   3.899   8.720  1.3457 -0.8770 -1.4099
  186SLPC     N21355   4.973   6.576   6.254  0.1079  0.4018  0.1716
  186SLPC   C1321356   5.037   6.649   6.150  0.3310  0.4018 -0.2104
  186SLPC  H13A21357   5.142   6.633   6.131  0.3394  1.5783 -1.2173
  186SLPC  H13B21358   4.989   6.622   6.058  0.9844  0.7237 -0.6500
  186SLPC  H13C21359   5.014   6.754   6.158 -0.0843  0.5167 -2.4311
  186SLPC   C1421360   5.019   6.436   6.250 -0.3701  0.3228  0.3299
  186SLPC  H14A21361   4.993   6.385   6.159  2.4365  1.0546 -0.9886
  186SLPC  H14B21362   5.125   6.434   6.272 -0.5732  0.1586  1.3377
  186SLPC  H14C21363   4.986   6.375   6.332  0.7883  1.2474  1.5436
  186SLPC   C1521364   4.822   6.578   6.235 -0.5642  0.1276  0.3602
  186SLPC  H15A21365   4.777   6.531   6.321  1.1117 -1.0541  0.6429
  186SLPC  H15B21366   4.776   6.676   6.228 -0.3651  0.3214  1.4586
  186SLPC  H15C21367   4.790   6.531   6.143 -2.4675 -0.3385  1.2048
  186SLPC   C1221368   5.013   6.633   6.379 -0.3423 -1.0158  0.3137
  186SLPC  H12A21369   4.953   6.591   6.458  1.9047 -3.0800  1.0497
  186SLPC  H12B21370   4.987   6.738   6.374 -0.0145 -1.0090 -2.5775
  186SLPC   C1121371   5.162   6.616   6.422  0.2556 -0.5768  0.4884
  186SLPC  H11A21372   5.172   6.508   6.449 -3.6003 -1.3620 -0.5758
  186SLPC  H11B21373   5.176   6.666   6.520  2.1895 -2.1682  1.1015
  186SLPC     P21374   5.348   6.780   6.343 -0.2491 -0.1002  0.0393
  186SLPC   O1321375   5.377   6.831   6.206 -0.0137  0.4421  0.2395
  186SLPC   O1421376   5.283   6.869   6.442 -0.7607  0.1536 -0.0131
  186SLPC   O1221377   5.266   6.654   6.333  0.0668 -0.5020  0.4426
  186SLPC   O1121378   5.477   6.721   6.395  0.0275 -0.2701 -0.2621
  186SLPC    C121379   5.475   6.632   6.504 -0.2155 -0.3990  0.2223
  186SLPC    HA21380   5.413   6.542   6.482 -0.6646  0.2288 -1.1565
  186SLPC    HB21381   5.580   6.598   6.506 -0.2960 -0.6646  2.1320
  186SLPC    C221382   5.446   6.687   6.653 -0.1359  0.3999  0.0212
  186SLPC    HS21383   5.367   6.764   6.644  0.2608  1.6181  4.4924
  186SLPC   O2121384   5.564   6.734   6.715 -0.0442  0.0390  0.3516
  186SLPC   C2121385   5.547   6.837   6.803  0.0209 -0.2212 -0.9917
  186SLPC   O2221386   5.444   6.889   6.838  0.3162 -0.0609 -0.0207
  186SLPC   C2221387   5.683   6.871   6.861  0.4067  0.6670 -0.6180
  186SLPC   H2R21388   5.710   6.786   6.928  0.5444 -0.6975 -2.3513
  186SLPC   H2S21389   5.761   6.873   6.783  1.1293 -1.0853  0.0268
  186SLPC    C321390   5.390   6.566   6.735  0.0300 -0.2717  0.1422
  186SLPC    HX21391   5.457   6.478   6.722  0.1950  0.0176 -1.0303
  186SLPC    HY21392   5.293   6.529   6.696 -1.8930  1.1532  3.1711
  186SLPC   O3121393   5.365   6.594   6.878 -0.6576  0.6207  0.3413
  186SLPC   C3121394   5.256   6.659   6.912  0.2899  0.2225 -0.4236
  186SLPC   O3221395   5.176   6.714   6.837 -0.4285  0.0493  0.1035
  186SLPC   C3221396   5.222   6.638   7.065 -0.3342 -0.4924  0.4509
  186SLPC   H2X21397   5.228   6.528   7.080 -1.4033 -0.5035  0.8830
  186SLPC   H2Y21398   5.115   6.667   7.078 -0.2705  1.4751 -2.5560
  186SLPC   C2321399   5.680   7.000   6.947 -0.5488 -0.3532  0.3131
  186SLPC   H3R21400   5.632   7.081   6.887  1.0136  0.9224  0.7092
  186SLPC   H3S21401   5.784   7.038   6.961 -1.3878  1.7842  1.2543
  186SLPC   C2421402   5.622   6.978   7.088  0.0927 -0.5299  0.3806
  186SLPC   H4R21403   5.660   6.896   7.154 -2.0675  0.2810  2.8219
  186SLPC   H4S21404   5.515   6.968   7.061  0.6015  0.3293 -2.1605
  186SLPC   C2521405   5.631   7.107   7.175  0.8102 -0.4449 -0.1746
  186SLPC   H5R21406   5.581   7.187   7.115  1.2111 -0.9102 -1.1537
  186SLPC   H5S21407   5.736   7.131   7.203  0.4584  1.4863 -0.3443
  186SLPC   C2621408   5.555   7.092   7.311  0.4235  0.1555  0.7543
  186SLPC   H6R21409   5.459   7.041   7.290  0.8589 -1.0819  1.6179
  186SLPC   H6S21410   5.535   7.197   7.340 -0.3001 -0.0527  1.0246
  186SLPC   C2721411   5.626   7.007   7.418  0.3005  0.0169 -0.2165
  186SLPC   H7R21412   5.650   6.907   7.375 -1.0433 -0.5984  0.4111
  186SLPC   H7S21413   5.559   6.976   7.501  0.6469 -1.4213 -0.4427
  186SLPC   C2821414   5.751   7.059   7.479  0.6409  0.5015 -0.3289
  186SLPC   H8R21415   5.830   7.071   7.401 -0.3802 -1.1621 -1.7036
  186SLPC   H8S21416   5.779   6.971   7.540 -0.2479  0.8323  0.5750
  186SLPC   C2921417   5.745   7.186   7.551  0.3807  0.3100  0.3016
  186SLPC   H9R21418   5.691   7.253   7.483 -2.6610 -2.5866 -0.4070
  186SLPC  C21021419   5.769   7.214   7.679  0.2074  0.0369  0.4653
  186SLPC  H10R21420   5.744   7.316   7.712 -0.2341  0.5440 -1.2939
  186SLPC  C21121421   5.813   7.121   7.790  0.8470 -0.3502  1.2580
  186SLPC  H11R21422   5.908   7.160   7.834  0.7261 -0.6030  1.7475
  186SLPC  H11S21423   5.829   7.019   7.749  1.7454  0.9255 -1.8359
  186SLPC  C21221424   5.696   7.120   7.887 -0.3942 -0.3583  0.0195
  186SLPC  H12R21425   5.606   7.082   7.836  1.1927 -1.7853 -1.8899
  186SLPC  C21321426   5.693   7.173   8.010 -0.6351 -0.4774 -0.4702
  186SLPC  H13R21427   5.592   7.170   8.053  0.0845 -2.3067  1.2297
  186SLPC  C21421428   5.805   7.242   8.085  1.2610 -0.7187 -0.0580
  186SLPC  H14R21429   5.807   7.347   8.049 -1.4601 -0.9686 -1.2302
  186SLPC  H14S21430   5.899   7.188   8.064 -0.7938 -3.4733 -3.1857
  186SLPC  C21521431   5.779   7.256   8.237  0.1051  0.2443  0.3113
  186SLPC  H15R21432   5.743   7.161   8.281  1.2757 -1.0262 -1.3722
  186SLPC  H15S21433   5.702   7.336   8.241 -0.3059 -0.1768  2.8781
  186SLPC  C21621434   5.899   7.303   8.307  0.2917  0.4979  0.1102
  186SLPC  H16R21435   5.939   7.383   8.241 -0.6135 -1.4749 -3.0565
  186SLPC  H16S21436   5.972   7.220   8.324 -0.4142  0.1060  1.3024
  186SLPC  C21721437   5.863   7.366   8.453 -0.2456 -0.0408  0.3436
  186SLPC  H17R21438   5.854   7.289   8.532 -0.2850 -0.7668 -0.3598
  186SLPC  H17S21439   5.762   7.413   8.450 -0.3120 -0.0907  1.3740
  186SLPC  C21821440   5.961   7.479   8.490 -0.2803  0.1316  0.2941
  186SLPC  H18R21441   5.984   7.545   8.404  2.6571 -0.5835  0.4411
  186SLPC  H18S21442   6.056   7.429   8.516 -0.1267 -0.2994 -1.0335
  186SLPC  H18T21443   5.922   7.538   8.576 -0.2799 -0.7264  0.8887
  186SLPC   C3321444   5.311   6.728   7.152  0.4807  0.0401  0.1288
  186SLPC   H3X21445   5.316   6.834   7.117  2.0717 -0.2829 -0.7068
  186SLPC   H3Y21446   5.414   6.691   7.132 -0.0132 -1.7483  0.7881
  186SLPC   C3421447   5.282   6.726   7.306  0.1584 -0.3802  0.5454
  186SLPC   H4X21448   5.373   6.759   7.361 -0.1702 -3.2009  3.0292
  186SLPC   H4Y21449   5.262   6.622   7.340 -0.1767 -1.2333 -2.0371
  186SLPC   C3521450   5.156   6.812   7.334 -0.0753 -0.2825 -0.1757
  186SLPC   H5X21451   5.063   6.752   7.329 -1.6583  2.0773 -1.3420
  186SLPC   H5Y21452   5.139   6.883   7.251 -1.5746 -0.9011 -0.4214
  186SLPC   C3621453   5.170   6.892   7.467  0.0721  0.0219  0.4662
  186SLPC   H6X21454   5.085   6.963   7.477 -0.0444  0.0870 -0.7909
  186SLPC   H6Y21455   5.267   6.944   7.447  1.2539 -2.4033 -0.4953
  186SLPC   C3721456   5.190   6.813   7.596  0.1316 -0.1551 -0.5268
  186SLPC   H7X21457   5.262   6.731   7.573 -0.1890 -0.7381  0.4686
  186SLPC   H7Y21458   5.091   6.764   7.613  0.0540  0.4802  1.0521
  186SLPC   C3821459   5.224   6.909   7.715  1.0640 -0.1718 -0.7702
  186SLPC   H8X21460   5.142   6.984   7.716 -0.9577 -2.2546 -0.0226
  186SLPC   H8Y21461   5.320   6.952   7.680  1.0059  1.0703  0.5007
  186SLPC   C3921462   5.235   6.845   7.852  0.2643  0.4141  0.4969
  186SLPC   H9X21463   5.311   6.765   7.838 -0.1348  0.2781 -0.9928
  186SLPC   H9Y21464   5.139   6.801   7.886  0.0163  1.6633  1.5040
  186SLPC  C31021465   5.291   6.939   7.959  0.4569 -0.7251 -0.5312
  186SLPC  H10X21466   5.212   7.011   7.986  1.3009 -0.7724  2.3570
  186SLPC  H10Y21467   5.384   6.986   7.920  0.6539 -1.2225 -0.6691
  186SLPC  C31121468   5.325   6.863   8.085 -0.4572 -0.0582  0.3917
  186SLPC  H11X21469   5.414   6.800   8.062 -0.4294  0.3324 -0.6025
  186SLPC  H11Y21470   5.240   6.796   8.108  0.4661 -1.3350  0.2207
  186SLPC  C31221471   5.338   6.963   8.205  0.6942  0.1523  0.8120
  186SLPC  H12X21472   5.238   7.011   8.197  0.3579 -0.8238 -3.3670
  186SLPC  H12Y21473   5.405   7.049   8.183 -0.6477  0.3826 -3.3486
  186SLPC  C31321474   5.372   6.907   8.342 -0.4617  0.2613 -0.8047
  186SLPC  H13X21475   5.481   6.887   8.347 -0.6513 -0.4778  1.5125
  186SLPC  H13Y21476   5.328   6.806   8.353 -1.1544  0.4819 -1.4734
  186SLPC  C31421477   5.328   6.990   8.460  0.2304 -0.1969 -0.7491
  186SLPC  H14X21478   5.218   7.005   8.465  0.4222  1.6302 -1.2313
  186SLPC  H14Y21479   5.371   7.092   8.451 -0.9899  0.3319 -0.8494
  186SLPC  C31521480   5.395   6.942   8.592 -0.0467 -0.6031 -0.3628
  186SLPC  H15X21481   5.346   7.012   8.663 -0.6690 -0.4328 -0.9476
  186SLPC  H15Y21482   5.501   6.974   8.599 -0.5376  0.9207  0.6744
  186SLPC  C31621483   5.391   6.799   8.631 -0.1080  0.6164  0.1128
  186SLPC  H16X21484   5.425   6.728   8.552  2.7682  0.0323  1.7240
  186SLPC  H16Y21485   5.285   6.777   8.656 -0.1194  0.0480 -0.3939
  186SLPC  C31721486   5.480   6.765   8.750  0.5100  0.5187  0.3924
  186SLPC  H17X21487   5.458   6.840   8.829 -0.0645  0.7571  0.0156
  186SLPC  H17Y21488   5.589   6.766   8.727  0.4561  1.0568  0.1515
  186SLPC  C31821489   5.436   6.629   8.812  0.5811 -0.3231  0.3807
  186SLPC  H18X21490   5.421   6.546   8.740 -1.5113  0.3441 -0.0199
  186SLPC  H18Y21491   5.339   6.643   8.865  1.9284 -0.6994  3.1026
  186SLPC  H18Z21492   5.509   6.599   8.890 -1.3027 -1.5424  1.7923
  187SLPC     N21493   0.501   3.914   6.190  0.3734  0.7260  0.4550
  187SLPC   C1321494   0.563   3.946   6.326  0.7332 -0.1513 -0.0974
  187SLPC  H13A21495   0.671   3.949   6.325  0.8285 -1.5228  1.6770
  187SLPC  H13B21496   0.526   4.039   6.364  1.9724  0.3289 -0.0403
  187SLPC  H13C21497   0.534   3.871   6.398  0.5321 -0.3644 -0.3917
  187SLPC   C1421498   0.561   3.785   6.150  0.3995  0.0891  0.7831
  187SLPC  H14A21499   0.526   3.758   6.051 -0.9864  0.2993  1.1989
  187SLPC  H14B21500   0.668   3.794   6.134  0.6447 -1.5239  1.2600
  187SLPC  H14C21501   0.550   3.697   6.212  0.2814 -0.6603 -0.2631
  187SLPC   C1521502   0.543   4.033   6.105 -0.1949  0.0199  0.0950
  187SLPC  H15A21503   0.648   4.053   6.118 -0.2025  0.0810  0.0580
  187SLPC  H15B21504   0.525   4.005   6.002  0.9160  1.3832 -0.4928
  187SLPC  H15C21505   0.495   4.127   6.125 -0.1985  0.0209  0.0817
  187SLPC   C1221506   0.346   3.909   6.196 -0.2655 -0.2404 -0.3985
  187SLPC  H12A21507   0.301   3.891   6.100  0.2980 -3.5837 -0.1444
  187SLPC  H12B21508   0.318   4.008   6.231  0.9541  0.5372 -1.5029
  187SLPC   C1121509   0.278   3.805   6.285  0.3953  0.0925 -0.0060
  187SLPC  H11A21510   0.320   3.709   6.250  0.2221  0.4330 -1.1682
  187SLPC  H11B21511   0.169   3.805   6.266  0.5977 -1.0545 -1.3105
  187SLPC     P21512   0.219   3.903   6.523 -0.0115  0.0039 -0.1594
  187SLPC   O1321513   0.287   3.940   6.649  0.1203  0.0925 -0.0872
  187SLPC   O1421514   0.160   4.017   6.457 -0.3447 -0.6924  0.9348
  187SLPC   O1221515   0.314   3.820   6.427 -0.0114 -0.3864  0.0144
  187SLPC   O1121516   0.103   3.799   6.543  0.1626 -0.1327  0.0485
  187SLPC    C121517  -0.031   3.838   6.556 -0.2703 -0.4069 -0.3314
  187SLPC    HA21518  -0.067   3.896   6.468  1.0044  2.5365  0.9468
  187SLPC    HB21519  -0.087   3.744   6.576  0.3990 -0.9597 -0.9753
  187SLPC    C221520  -0.055   3.931   6.683 -0.0825 -1.5044  0.4543
  187SLPC    HS21521   0.000   4.027   6.672 -0.2467 -1.0610  2.8642
  187SLPC   O2121522  -0.007   3.864   6.792 -0.1245 -0.4934  0.3839
  187SLPC   C2121523   0.006   3.928   6.911 -0.4863  0.1473  0.2133
  187SLPC   O2221524  -0.016   4.046   6.932  0.2983 -0.0411  0.4224
  187SLPC   C2221525   0.034   3.827   7.023 -0.4574  0.5175  0.0524
  187SLPC   H2R21526   0.014   3.726   6.982 -0.6583  0.7184 -0.3567
  187SLPC   H2S21527   0.142   3.838   7.049 -0.2787 -2.0844  0.6553
  187SLPC    C321528  -0.202   3.986   6.680  0.0452  0.0161 -0.4023
  187SLPC    HX21529  -0.215   4.024   6.577  0.9101  1.2405 -0.0714
  187SLPC    HY21530  -0.207   4.076   6.745  0.2232  0.8647 -1.5417
  187SLPC   O3121531  -0.304   3.885   6.699  0.0840 -0.0551 -0.0898
  187SLPC   C3121532  -0.359   3.889   6.827  0.0335  0.2036  0.6575
  187SLPC   O3221533  -0.334   3.974   6.909  0.1526 -0.1174  0.5321
  187SLPC   C3221534  -0.454   3.776   6.832  0.4529  0.2916 -0.0285
  187SLPC   H2X21535  -0.401   3.678   6.827 -1.8131 -0.9670 -1.0881
  187SLPC   H2Y21536  -0.534   3.779   6.755 -0.7410  0.8396  1.2058
  187SLPC   C2321537  -0.045   3.860   7.157 -0.6659 -0.2623 -0.7315
  187SLPC   H3R21538  -0.152   3.832   7.157 -0.6097 -0.4846 -0.2416
  187SLPC   H3S21539  -0.031   3.970   7.159  0.6472 -0.4111 -0.4593
  187SLPC   C2421540   0.028   3.810   7.277 -0.2479  0.3758  0.2607
  187SLPC   H4R21541   0.132   3.847   7.262 -0.4518  0.6107 -0.6152
  187SLPC   H4S21542   0.025   3.699   7.278  2.2314  0.2382 -0.7753
  187SLPC   C2521543  -0.036   3.859   7.404  1.0406 -0.6935 -0.7812
  187SLPC   H5R21544  -0.144   3.837   7.418  1.1297 -0.5974  0.1085
  187SLPC   H5S21545  -0.027   3.970   7.403  0.9473 -0.6899 -1.4083
  187SLPC   C2621546   0.047   3.813   7.529 -0.1648  0.2456 -0.0043
  187SLPC   H6R21547   0.147   3.856   7.510  0.6412 -0.9122  1.3993
  187SLPC   H6S21548   0.063   3.703   7.539  1.2629  0.6250  3.3267
  187SLPC   C2721549  -0.023   3.837   7.666 -0.4580 -0.1286 -0.1462
  187SLPC   H7R21550  -0.035   3.947   7.679 -0.2085 -0.3532  2.6678
  187SLPC   H7S21551   0.055   3.806   7.739 -0.7495  1.1675  0.7529
  187SLPC   C2821552  -0.143   3.744   7.692 -0.0824 -0.3125 -0.3197
  187SLPC   H8R21553  -0.155   3.727   7.801  2.0844 -0.5904 -0.0875
  187SLPC   H8S21554  -0.130   3.643   7.648  4.4067 -1.1818  2.4233
  187SLPC   C2921555  -0.265   3.815   7.644  0.1479 -0.4337 -0.0491
  187SLPC   H9R21556  -0.303   3.797   7.542 -2.8711 -1.8733  1.2152
  187SLPC  C21021557  -0.345   3.901   7.718 -0.3039  0.3466  0.0466
  187SLPC  H10R21558  -0.443   3.931   7.678 -0.9819 -1.8237 -0.0506
  187SLPC  C21121559  -0.312   3.932   7.857 -0.4864  0.2055 -0.9114
  187SLPC  H11R21560  -0.215   3.892   7.893 -2.4745 -5.1078 -0.6571
  187SLPC  H11S21561  -0.388   3.873   7.914 -0.3507  0.9577  0.0855
  187SLPC  C21221562  -0.330   4.073   7.880  0.0512  0.4407 -0.9469
  187SLPC  H12R21563  -0.361   4.139   7.798  1.9555  1.0676 -1.2012
  187SLPC  C21321564  -0.317   4.126   8.001  0.7559  0.0262 -0.5224
  187SLPC  H13R21565  -0.345   4.231   8.015  2.9493  0.7715 -1.3520
  187SLPC  C21421566  -0.271   4.057   8.123 -0.2141  0.7284 -0.5458
  187SLPC  H14R21567  -0.162   4.035   8.118  0.4579  2.1707  3.7268
  187SLPC  H14S21568  -0.327   3.965   8.149 -1.0633  1.6102  0.9224
  187SLPC  C21521569  -0.280   4.141   8.254 -0.6505  0.1601 -0.1227
  187SLPC  H15R21570  -0.386   4.170   8.275 -1.1376 -0.4636 -1.5973
  187SLPC  H15S21571  -0.213   4.227   8.236 -0.5486 -0.0550 -0.7835
  187SLPC  C21621572  -0.220   4.065   8.367 -0.0603  0.2729 -0.9028
  187SLPC  H16R21573  -0.110   4.051   8.358 -0.2125 -1.7139 -0.2760
  187SLPC  H16S21574  -0.264   3.964   8.383 -2.7788  1.7289  1.8980
  187SLPC  C21721575  -0.232   4.149   8.499 -0.4395 -0.4124 -0.8220
  187SLPC  H17R21576  -0.340   4.162   8.518 -0.4354 -2.2883  0.7334
  187SLPC  H17S21577  -0.176   4.244   8.482 -1.9580  0.8645  0.9667
  187SLPC  C21821578  -0.178   4.094   8.634 -0.4921  0.1788 -0.4021
  187SLPC  H18R21579  -0.236   4.004   8.665  0.7471 -0.7802 -0.7689
  187SLPC  H18S21580  -0.176   4.169   8.716  1.1930  0.5557 -0.7474
  187SLPC  H18T21581  -0.072   4.060   8.627 -0.4008 -0.5423  2.8637
  187SLPC   C3321582  -0.540   3.773   6.961 -1.2306 -0.3365 -0.4458
  187SLPC   H3X21583  -0.636   3.720   6.948 -1.2138 -1.1423  2.0900
  187SLPC   H3Y21584  -0.567   3.877   6.990  0.2795  0.9074 -3.1222
  187SLPC   C3421585  -0.461   3.705   7.072 -0.2012 -0.7256 -0.6501
  187SLPC   H4X21586  -0.397   3.785   7.116 -2.5884  0.4449  0.9446
  187SLPC   H4Y21587  -0.397   3.627   7.027  0.9321  0.6281 -1.4524
  187SLPC   C3521588  -0.541   3.645   7.185  0.9847  0.4596 -0.6920
  187SLPC   H5X21589  -0.576   3.543   7.160  0.9378  0.0483  0.9290
  187SLPC   H5Y21590  -0.632   3.704   7.208  0.2855 -0.8398 -0.0037
  187SLPC   C3621591  -0.471   3.645   7.322 -0.4086 -0.6943  0.3133
  187SLPC   H6X21592  -0.543   3.614   7.402 -2.8249 -0.5906 -1.6870
  187SLPC   H6Y21593  -0.442   3.751   7.339  0.7293 -1.1375  1.3235
  187SLPC   C3721594  -0.341   3.565   7.326 -0.4184  0.4493 -0.2862
  187SLPC   H7X21595  -0.267   3.599   7.251  0.0647  0.9315  0.3936
  187SLPC   H7Y21596  -0.285   3.582   7.421 -0.9244  0.2245  0.0570
  187SLPC   C3821597  -0.365   3.407   7.316 -0.2352  0.5370  0.1092
  187SLPC   H8X21598  -0.378   3.383   7.208  0.1021  2.3021 -0.3629
  187SLPC   H8Y21599  -0.455   3.368   7.368 -0.1033  0.1341  0.0393
  187SLPC   C3921600  -0.248   3.311   7.360 -0.0395 -0.0435  0.1399
  187SLPC   H9X21601  -0.158   3.336   7.301 -1.7256  0.9269 -2.1902
  187SLPC   H9Y21602  -0.287   3.210   7.337 -2.9008  0.9978 -0.0671
  187SLPC  C31021603  -0.236   3.309   7.513 -0.1679  0.4299 -0.0793
  187SLPC  H10X21604  -0.338   3.337   7.549 -0.8074 -2.3327  0.5022
  187SLPC  H10Y21605  -0.169   3.395   7.531 -1.5052  1.5408 -0.2684
  187SLPC  C31121606  -0.183   3.174   7.580 -0.1643  0.1543  0.0282
  187SLPC  H11X21607  -0.083   3.139   7.546  0.0912 -0.0577  0.9642
  187SLPC  H11Y21608  -0.248   3.090   7.548 -0.5447  0.6672 -0.5757
  187SLPC  C31221609  -0.198   3.172   7.733  0.9297 -0.5723  0.2736
  187SLPC  H12X21610  -0.304   3.197   7.755  1.1711  1.4626 -0.5622
  187SLPC  H12Y21611  -0.129   3.250   7.772  1.2059 -0.6090 -0.1305
  187SLPC  C31321612  -0.159   3.037   7.796 -0.1513  0.7697 -0.0543
  187SLPC  H13X21613  -0.213   2.964   7.733 -0.8332  0.7798  0.5062
  187SLPC  H13Y21614  -0.198   3.012   7.897  1.2995 -0.2667  0.2850
  187SLPC  C31421615  -0.008   3.004   7.787  1.1151 -0.0189  0.4268
  187SLPC  H14X21616   0.033   3.021   7.685  0.0809 -0.2711 -0.0415
  187SLPC  H14Y21617   0.024   2.899   7.805  0.4295 -0.6953 -1.9259
  187SLPC  C31521618   0.076   3.055   7.898  0.6008  1.1833  0.2222
  187SLPC  H15X21619   0.031   3.021   7.994 -0.5704  1.7946 -0.1010
  187SLPC  H15Y21620   0.079   3.166   7.898 -1.1959  1.3223 -2.5226
  187SLPC  C31621621   0.219   3.007   7.906 -0.3409 -0.2016 -0.1083
  187SLPC  H16X21622   0.272   3.020   7.809 -1.5645 -2.5429 -1.1705
  187SLPC  H16Y21623   0.211   2.898   7.927 -0.0110 -0.2757 -0.3522
  187SLPC  C31721624   0.306   3.071   8.021 -0.2438  0.3908 -0.1584
  187SLPC  H17X21625   0.401   3.014   8.024 -1.1193 -1.4144 -2.8363
  187SLPC  H17Y21626   0.260   3.042   8.118  1.8341 -2.3477  0.1437
  187SLPC  C31821627   0.327   3.224   8.012  0.2044 -0.3761 -0.0149
  187SLPC  H18X21628   0.360   3.254   7.911  1.5037 -0.1786  0.4472
  187SLPC  H18Y21629   0.398   3.271   8.083  1.6828  0.3254 -1.9003
  187SLPC  H18Z21630   0.233   3.280   8.030 -0.5332 -0.2775 -3.4784
  188SLPC     N21631   0.965   5.667   6.431 -0.4567 -0.0776  0.1016
  188SLPC   C1321632   0.939   5.801   6.381  0.1235 -0.6665  0.0902
  188SLPC  H13A21633   1.014   5.879   6.387  0.5455 -0.9615 -1.0900
  188SLPC  H13B21634   0.925   5.796   6.274 -0.5780 -2.3874  0.2410
  188SLPC  H13C21635   0.850   5.839   6.430  0.5721 -2.0307  2.0953
  188SLPC   C1421636   1.095   5.618   6.363 -0.2184  0.5814 -0.1427
  188SLPC  H14A21637   1.108   5.517   6.401 -2.6415  0.2152 -0.1352
  188SLPC  H14B21638   1.075   5.618   6.257 -0.5907 -1.0827 -0.1075
  188SLPC  H14C21639   1.179   5.681   6.389  0.9136 -0.8452 -0.2047
  188SLPC   C1521640   0.859   5.572   6.388  0.7254 -0.0237  0.5816
  188SLPC  H15A21641   0.772   5.570   6.452  0.0141 -2.8693 -0.3419
  188SLPC  H15B21642   0.845   5.571   6.281  4.9783 -0.8696 -0.1533
  188SLPC  H15C21643   0.898   5.473   6.403 -0.4893 -0.7304 -0.7189
  188SLPC   C1221644   0.979   5.669   6.582 -0.0228 -0.5910 -0.0725
  188SLPC  H12A21645   1.073   5.720   6.598 -0.3672 -0.4146  1.5636
  188SLPC  H12B21646   0.985   5.571   6.625  0.1046 -1.1424 -1.3034
  188SLPC   C1121647   0.864   5.726   6.670 -0.5328 -0.0184  0.8454
  188SLPC  H11A21648   0.840   5.822   6.619 -1.4949 -0.9957 -0.6269
  188SLPC  H11B21649   0.898   5.739   6.774 -0.0829  0.7882  0.6057
  188SLPC     P21650   0.612   5.691   6.621 -0.6406  0.2772 -0.1761
  188SLPC   O1321651   0.625   5.810   6.537  0.0630  0.9910 -0.4116
  188SLPC   O1421652   0.538   5.579   6.550 -0.9536 -0.0922 -1.2582
  188SLPC   O1221653   0.760   5.638   6.662  0.5821  0.2570 -0.2659
  188SLPC   O1121654   0.542   5.721   6.756  0.4720  0.1150  0.5291
  188SLPC    C121655   0.582   5.657   6.878 -0.2466  0.0870 -0.8035
  188SLPC    HA21656   0.496   5.626   6.941 -1.0814  0.9339 -1.4994
  188SLPC    HB21657   0.635   5.560   6.871 -2.1780 -0.9471 -1.7083
  188SLPC    C221658   0.662   5.749   6.971  0.7738  0.5668  0.0394
  188SLPC    HS21659   0.762   5.767   6.925  2.0224 -0.8714  1.9977
  188SLPC   O2121660   0.679   5.668   7.094 -0.0078 -0.2700  0.1642
  188SLPC   C2121661   0.755   5.717   7.196  0.1389 -0.2797 -0.3414
  188SLPC   O2221662   0.836   5.804   7.184  0.3654  0.3643 -0.1914
  188SLPC   C2221663   0.693   5.664   7.326 -0.3581 -1.0484  0.5474
  188SLPC   H2R21664   0.584   5.643   7.321 -0.5955  0.3232 -0.5114
  188SLPC   H2S21665   0.746   5.567   7.341  1.4529  0.0793  1.9131
  188SLPC    C321666   0.584   5.878   6.998  0.0093  0.2631  0.0559
  188SLPC    HX21667   0.563   5.940   6.908  0.9041 -0.5737 -0.7667
  188SLPC    HY21668   0.641   5.938   7.072 -0.3386  0.1925  0.3821
  188SLPC   O3121669   0.468   5.842   7.080 -0.0767 -0.2241  0.2167
  188SLPC   C3121670   0.350   5.862   7.012 -0.5012  0.0686  0.0663
  188SLPC   O3221671   0.331   5.936   6.919 -0.2234  1.0510 -0.2256
  188SLPC   C3221672   0.238   5.775   7.071 -0.7323 -0.5163 -0.4619
  188SLPC   H2X21673   0.211   5.695   6.998  1.1275 -1.2498 -0.4099
  188SLPC   H2Y21674   0.149   5.836   7.096 -1.9703 -2.2859 -0.3355
  188SLPC   C2321675   0.714   5.752   7.458 -0.5126 -0.2969 -0.1697
  188SLPC   H3R21676   0.629   5.824   7.452 -0.5350 -0.3544 -0.5594
  188SLPC   H3S21677   0.808   5.810   7.449 -0.8259  0.4440  1.0535
  188SLPC   C2421678   0.707   5.665   7.581 -0.3846  0.2216 -0.6545
  188SLPC   H4R21679   0.769   5.574   7.568 -0.6792 -0.1690  0.5592
  188SLPC   H4S21680   0.606   5.623   7.602 -0.4134  0.8762  0.6779
  188SLPC   C2521681   0.750   5.753   7.693  0.5659 -0.0392 -0.2595
  188SLPC   H5R21682   0.709   5.855   7.676 -1.3037 -0.7030  0.0608
  188SLPC   H5S21683   0.860   5.769   7.702  0.5896 -0.3651  0.0692
  188SLPC   C2621684   0.694   5.702   7.830 -0.6558  0.4800 -0.4511
  188SLPC   H6R21685   0.764   5.627   7.874  0.4252  3.2054  2.9597
  188SLPC   H6S21686   0.594   5.655   7.826  0.6307 -2.5084 -0.7175
  188SLPC   C2721687   0.688   5.809   7.939  0.0377 -0.4279  0.4893
  188SLPC   H7R21688   0.615   5.892   7.921 -0.6576 -0.5012  2.6872
  188SLPC   H7S21689   0.788   5.856   7.932 -0.0296 -0.2199  0.8675
  188SLPC   C2821690   0.675   5.768   8.088  0.0126 -1.3433 -0.0486
  188SLPC   H8R21691   0.707   5.851   8.154  0.0129 -2.8649  1.9964
  188SLPC   H8S21692   0.749   5.687   8.106 -0.6859 -1.6266  1.8972
  188SLPC   C2921693   0.541   5.718   8.123  0.5257  0.4395 -0.1007
  188SLPC   H9R21694   0.480   5.703   8.033  1.9593  0.8051 -1.1564
  188SLPC  C21021695   0.490   5.685   8.240  0.5783  0.5866 -0.2767
  188SLPC  H10R21696   0.388   5.646   8.254  1.2866 -0.2747  3.7853
  188SLPC  C21121697   0.562   5.692   8.375  0.1112  0.8174 -0.7834
  188SLPC  H11R21698   0.500   5.757   8.441  0.5849  0.7653 -0.2780
  188SLPC  H11S21699   0.650   5.760   8.369  0.1051  0.8689 -0.3254
  188SLPC  C21221700   0.603   5.555   8.428  0.8126 -0.2287  0.2826
  188SLPC  H12R21701   0.649   5.491   8.352  0.2982 -1.9176  1.3521
  188SLPC  C21321702   0.596   5.501   8.553  0.9568 -0.5218 -0.4068
  188SLPC  H13R21703   0.639   5.403   8.581 -0.6909 -1.1027  0.1779
  188SLPC  C21421704   0.536   5.566   8.673  0.7170  0.4674  0.2873
  188SLPC  H14R21705   0.517   5.486   8.748  1.0732 -0.2091 -0.3359
  188SLPC  H14S21706   0.445   5.618   8.638 -0.6875 -2.0305 -0.0038
  188SLPC  C21521707   0.620   5.679   8.734  1.0725 -0.3680  0.0287
  188SLPC  H15R21708   0.623   5.765   8.664 -0.2960 -0.0739  0.3028
  188SLPC  H15S21709   0.730   5.663   8.740  1.3481  1.2598 -0.0980
  188SLPC  C21621710   0.564   5.728   8.874 -0.8477 -0.2082  0.0806
  188SLPC  H16R21711   0.555   5.639   8.940 -0.7015 -0.9943 -0.9420
  188SLPC  H16S21712   0.464   5.776   8.865  0.7729  3.5437  0.0243
  188SLPC  C21721713   0.673   5.818   8.935  0.3337 -0.1676  0.3561
  188SLPC  H17R21714   0.704   5.900   8.867 -0.2817 -0.0542  0.1999
  188SLPC  H17S21715   0.764   5.756   8.945 -0.0831 -0.8173  0.1558
  188SLPC  C21821716   0.633   5.869   9.073  0.3539 -0.2041  0.0652
  188SLPC  H18R21717   0.644   5.788   9.149  0.7391  0.8510  1.1711
  188SLPC  H18S21718   0.530   5.910   9.078  0.3263 -0.2965  0.3144
  188SLPC  H18T21719   0.699   5.953   9.104  0.9120  0.7297 -3.2628
  188SLPC   C3321720   0.282   5.701   7.202  0.0063 -0.1539 -0.5713
  188SLPC   H3X21721   0.382   5.655   7.186  0.0716  0.2092 -1.2293
  188SLPC   H3Y21722   0.210   5.617   7.217 -1.0150  0.6526 -0.8881
  188SLPC   C3421723   0.261   5.792   7.330 -1.0139  0.2302  0.3872
  188SLPC   H4X21724   0.156   5.826   7.336 -1.5152 -0.8790 -1.3456
  188SLPC   H4Y21725   0.330   5.879   7.330  0.3996 -0.8492 -0.3182
  188SLPC   C3521726   0.284   5.703   7.456  0.2065 -0.2727  0.4873
  188SLPC   H5X21727   0.385   5.658   7.449  0.3051 -0.1846  1.2719
  188SLPC   H5Y21728   0.226   5.609   7.446 -1.7817  0.8833  0.5000
  188SLPC   C3621729   0.260   5.765   7.585  0.2147  0.0513  0.3475
  188SLPC   H6X21730   0.152   5.787   7.600 -0.4711 -3.4718  1.4845
  188SLPC   H6Y21731   0.311   5.864   7.581  1.8578 -0.7761 -0.2268
  188SLPC   C3721732   0.317   5.692   7.707  0.5354  0.5189 -0.8066
  188SLPC   H7X21733   0.301   5.749   7.800 -1.7266 -0.3551 -0.5871
  188SLPC   H7Y21734   0.425   5.670   7.691  0.3712 -0.7267 -0.3602
  188SLPC   C3821735   0.253   5.557   7.729  0.8004  0.3026 -0.0683
  188SLPC   H8X21736   0.308   5.491   7.659 -0.1135 -0.2678 -0.2702
  188SLPC   H8Y21737   0.145   5.556   7.700  0.0662  1.4590  2.3350
  188SLPC   C3921738   0.274   5.516   7.880 -0.1532 -0.1989  0.6175
  188SLPC   H9X21739   0.377   5.535   7.918 -0.3065  0.0836  0.8963
  188SLPC   H9Y21740   0.254   5.407   7.886 -0.2472 -0.2690 -0.6461
  188SLPC  C31021741   0.160   5.567   7.972 -0.7206 -0.3088  0.1883
  188SLPC  H10X21742   0.062   5.544   7.924 -1.1806  2.2160 -0.2591
  188SLPC  H10Y21743   0.171   5.675   7.996 -1.3155 -0.0565 -0.6274
  188SLPC  C31121744   0.178   5.492   8.107  0.4111  0.1857  0.3019
  188SLPC  H11X21745   0.284   5.466   8.126  0.1199 -1.2802  0.0454
  188SLPC  H11Y21746   0.117   5.399   8.100  0.7014 -0.0071  0.3247
  188SLPC  C31221747   0.111   5.578   8.212  0.6927  0.6466 -0.4174
  188SLPC  H12X21748   0.009   5.606   8.178  0.3071 -0.1699  0.0330
  188SLPC  H12Y21749   0.181   5.664   8.219  1.5509  0.0467 -1.4369
  188SLPC  C31321750   0.082   5.508   8.345  0.1278  0.0431 -0.2766
  188SLPC  H13X21751   0.011   5.425   8.323  2.4423 -2.0532 -0.2318
  188SLPC  H13Y21752   0.031   5.582   8.410 -0.1442  0.0602 -0.5079
  188SLPC  C31421753   0.197   5.461   8.426 -0.3250  0.0473 -0.0405
  188SLPC  H14X21754   0.263   5.540   8.468 -1.1369  0.4525  0.5122
  188SLPC  H14Y21755   0.251   5.396   8.354 -1.7599 -0.4010 -0.7420
  188SLPC  C31521756   0.149   5.364   8.535  0.1008  0.5429 -0.5590
  188SLPC  H15X21757   0.088   5.285   8.488 -0.6971  0.3933  0.7014
  188SLPC  H15Y21758   0.085   5.423   8.604 -1.7946 -1.7178 -0.2736
  188SLPC  C31621759   0.258   5.295   8.622 -0.2957 -0.0783 -0.0495
  188SLPC  H16X21760   0.197   5.231   8.689  0.1075  0.5157  0.9124
  188SLPC  H16Y21761   0.315   5.365   8.687  4.7696 -1.0231 -2.9686
  188SLPC  C31721762   0.351   5.200   8.550  0.9664  0.1458 -0.4574
  188SLPC  H17X21763   0.445   5.256   8.530  0.2440  0.8579 -2.1031
  188SLPC  H17Y21764   0.312   5.160   8.454  1.7512  1.4216 -1.3537
  188SLPC  C31821765   0.387   5.076   8.639  0.8261  0.0567  0.2254
  188SLPC  H18X21766   0.485   5.030   8.614  0.1116 -1.7209  0.5516
  188SLPC  H18Y21767   0.307   4.998   8.636  2.2201 -1.4119 -1.2947
  188SLPC  H18Z21768   0.390   5.124   8.739 -0.3878  3.8573 -1.3743
  189SLPC     N21769   2.537   0.117   6.084 -0.3501 -0.8028  0.3479
  189SLPC   C1321770   2.482   0.229   5.999 -0.3224  0.9611 -0.6264
  189SLPC  H13A21771   2.558   0.302   5.972  2.0957 -0.9937  0.4762
  189SLPC  H13B21772   2.453   0.187   5.903 -2.3393  0.5789  0.1041
  189SLPC  H13C21773   2.391   0.280   6.027 -0.5294  1.7822 -2.5849
  189SLPC   C1421774   2.638   0.035   6.009 -0.3919  0.7437  0.3990
  189SLPC  H14A21775   2.714   0.095   5.961 -0.7280  1.1013  0.3131
  189SLPC  H14B21776   2.683  -0.035   6.079 -0.2720 -0.8565 -1.1951
  189SLPC  H14C21777   2.590  -0.030   5.937  0.7471 -0.6587  0.8428
  189SLPC   C1521778   2.424   0.027   6.114  1.2260  0.1390  0.1991
  189SLPC  H15A21779   2.388  -0.015   6.022  2.1542  0.5873 -0.3739
  189SLPC  H15B21780   2.465  -0.049   6.180 -1.0159 -0.8740  0.5232
  189SLPC  H15C21781   2.344   0.088   6.154 -1.6646 -2.5187 -1.0450
  189SLPC   C1221782   2.604   0.185   6.204  0.1103  0.0636 -0.5800
  189SLPC  H12A21783   2.538   0.258   6.250  0.9051 -0.1620  0.9724
  189SLPC  H12B21784   2.690   0.236   6.164  0.5171 -0.3865 -0.2735
  189SLPC   C1121785   2.660   0.089   6.315 -0.6554 -0.4735  0.0945
  189SLPC  H11A21786   2.715   0.147   6.392  1.6111 -3.2196  0.7229
  189SLPC  H11B21787   2.740   0.025   6.273 -1.0640 -0.8802 -0.0694
  189SLPC     P21788   2.461   0.070   6.478 -0.2762  0.2252  0.4410
  189SLPC   O1321789   2.380   0.186   6.430  0.0894 -0.0305  0.3403
  189SLPC   O1421790   2.376  -0.033   6.539  0.2923  0.2316  0.2910
  189SLPC   O1221791   2.556   0.005   6.368  0.4208  0.0168 -0.2053
  189SLPC   O1121792   2.572   0.115   6.583 -0.4853 -0.7349  0.3857
  189SLPC    C121793   2.643   0.032   6.666  0.1098 -0.4647 -0.0850
  189SLPC    HA21794   2.658  -0.073   6.632 -0.6602  0.0475 -2.1550
  189SLPC    HB21795   2.742   0.079   6.683 -0.4397  0.8335 -0.3322
  189SLPC    C221796   2.578   0.028   6.814 -0.8140 -0.8745 -0.4845
  189SLPC    HS21797   2.469   0.009   6.802 -1.3868  2.3297 -1.4707
  189SLPC   O2121798   2.612   0.149   6.882 -0.2541 -0.1354 -0.0689
  189SLPC   C2121799   2.530   0.252   6.880 -0.9393 -0.1882  0.2093
  189SLPC   O2221800   2.425   0.257   6.819  0.0654  0.0132  0.4969
  189SLPC   C2221801   2.603   0.371   6.940 -0.5069  0.1766  0.2525
  189SLPC   H2R21802   2.700   0.341   6.986 -0.0798  0.6531 -0.3114
  189SLPC   H2S21803   2.629   0.437   6.854  1.6911  1.1998  1.6126
  189SLPC    C321804   2.643  -0.093   6.886  0.5157  0.0370  0.8030
  189SLPC    HX21805   2.750  -0.084   6.860 -0.0443  1.8467 -1.2155
  189SLPC    HY21806   2.605  -0.182   6.832 -0.7381  0.1780  1.4106
  189SLPC   O3121807   2.618  -0.101   7.027  0.6374 -0.5444 -0.4934
  189SLPC   C3121808   2.712  -0.063   7.110 -0.6410 -0.3050  0.6296
  189SLPC   O3221809   2.829  -0.047   7.087  0.0119 -0.4075  0.3613
  189SLPC   C3221810   2.655  -0.043   7.244 -0.3412 -0.6432  0.9522
  189SLPC   H2X21811   2.567   0.025   7.249  0.8762  1.3137 -1.8194
  189SLPC   H2Y21812   2.734   0.000   7.310 -0.5189 -2.1323  2.1869
  189SLPC   C2321813   2.528   0.461   7.038  0.1337  0.2832 -0.2469
  189SLPC   H3R21814   2.446   0.519   6.989  0.6911  1.4310  0.1453
  189SLPC   H3S21815   2.592   0.544   7.074  0.6666 -0.4439  0.5091
  189SLPC   C2421816   2.489   0.383   7.166  0.4772 -0.3487 -0.1994
  189SLPC   H4R21817   2.460   0.276   7.159  0.0738 -0.1569 -1.7150
  189SLPC   H4S21818   2.404   0.435   7.215  1.1766 -1.0590  1.8765
  189SLPC   C2521819   2.606   0.391   7.266  0.2683 -0.3733  0.0887
  189SLPC   H5R21820   2.638   0.498   7.271  0.7653 -0.5418  0.4788
  189SLPC   H5S21821   2.691   0.327   7.235  1.4785  1.3553 -0.2915
  189SLPC   C2621822   2.553   0.345   7.403 -0.0544  0.0658 -0.2416
  189SLPC   H6R21823   2.509   0.244   7.391 -2.2196  0.8111  0.9015
  189SLPC   H6S21824   2.475   0.418   7.431  0.1586  0.2619 -0.1553
  189SLPC   C2721825   2.653   0.346   7.525 -0.1939 -0.4317  0.0797
  189SLPC   H7R21826   2.639   0.437   7.588 -3.2972  0.6110 -1.8924
  189SLPC   H7S21827   2.758   0.345   7.489  0.4090  0.4231  1.7034
  189SLPC   C2821828   2.634   0.223   7.615 -0.0761  1.0118 -0.3438
  189SLPC   H8R21829   2.648   0.141   7.541  1.6795  0.4627  0.5455
  189SLPC   H8S21830   2.529   0.210   7.648  0.6774 -0.7899  1.5773
  189SLPC   C2921831   2.721   0.214   7.739  0.0932 -0.7738  0.2129
  189SLPC   H9R21832   2.794   0.133   7.722  1.2920  0.3310 -0.0647
  189SLPC  C21021833   2.704   0.279   7.861 -0.0379  0.1208  0.0372
  189SLPC  H10R21834   2.772   0.252   7.943  1.5645  1.0606 -0.9491
  189SLPC  C21121835   2.587   0.377   7.878  0.3606  0.5285  0.4325
  189SLPC  H11R21836   2.566   0.424   7.779 -1.7299 -1.7868 -0.3051
  189SLPC  H11S21837   2.624   0.466   7.933  1.0605 -0.0771  0.9507
  189SLPC  C21221838   2.456   0.326   7.940 -0.3490 -0.1404  0.6306
  189SLPC  H12R21839   2.402   0.259   7.871 -0.1416 -1.0123  1.2926
  189SLPC  C21321840   2.431   0.336   8.070 -0.9494 -0.0786  0.4466
  189SLPC  H13R21841   2.326   0.313   8.095 -1.3051  1.5085  0.5008
  189SLPC  C21421842   2.508   0.418   8.179 -0.5637 -0.1658  1.1915
  189SLPC  H14R21843   2.566   0.497   8.126 -2.6003 -0.2886 -1.5016
  189SLPC  H14S21844   2.576   0.353   8.237 -1.1737 -1.1302  0.8552
  189SLPC  C21521845   2.413   0.494   8.260  0.1534  0.3672 -0.2759
  189SLPC  H15R21846   2.471   0.543   8.341  0.7078 -0.2306 -0.3047
  189SLPC  H15S21847   2.350   0.420   8.314 -0.7829  0.5279 -1.1064
  189SLPC  C21621848   2.316   0.593   8.198  0.5133 -0.6659 -0.6387
  189SLPC  H16R21849   2.245   0.539   8.131 -0.0753 -2.1166  1.0693
  189SLPC  H16S21850   2.369   0.667   8.136 -1.0082 -0.0559 -1.2729
  189SLPC  C21721851   2.225   0.675   8.297 -0.1809  0.0591 -0.2088
  189SLPC  H17R21852   2.169   0.596   8.351  2.0575 -1.7400 -0.3424
  189SLPC  H17S21853   2.163   0.739   8.231  0.1339 -0.5514 -1.1224
  189SLPC  C21821854   2.292   0.770   8.400  0.1954  0.0141 -0.3673
  189SLPC  H18R21855   2.358   0.839   8.344  0.9126 -0.7069 -0.4189
  189SLPC  H18S21856   2.345   0.713   8.479  0.5408  2.9218  1.6577
  189SLPC  H18T21857   2.222   0.844   8.445  0.3675  0.1709 -0.3587
  189SLPC   C3321858   2.628  -0.177   7.303  0.5509  0.3166  0.1031
  189SLPC   H3X21859   2.721  -0.233   7.325  1.7319  2.4168  0.6568
  189SLPC   H3Y21860   2.576  -0.233   7.222 -1.4940  1.3234  0.6609
  189SLPC   C3421861   2.553  -0.168   7.434 -0.1060  0.0166  0.2988
  189SLPC   H4X21862   2.464  -0.103   7.416 -0.2439 -0.2576 -0.0153
  189SLPC   H4Y21863   2.617  -0.120   7.511 -0.6214  2.0339 -0.4420
  189SLPC   C3521864   2.516  -0.310   7.498  0.4076  0.0297 -0.5079
  189SLPC   H5X21865   2.592  -0.340   7.574 -1.3783 -0.7729  1.0559
  189SLPC   H5Y21866   2.511  -0.385   7.416  0.3800  0.6913 -1.1237
  189SLPC   C3621867   2.388  -0.305   7.572 -0.1548 -0.0382  0.0377
  189SLPC   H6X21868   2.377  -0.401   7.628 -0.4706 -0.1783 -0.2615
  189SLPC   H6Y21869   2.294  -0.304   7.512  0.2893  1.1680 -0.6830
  189SLPC   C3721870   2.380  -0.189   7.678  0.3506 -0.1881 -0.1601
  189SLPC   H7X21871   2.273  -0.178   7.705  0.3684  1.6179 -0.7064
  189SLPC   H7Y21872   2.399  -0.093   7.626 -1.1320 -0.1233 -0.6324
  189SLPC   C3821873   2.467  -0.205   7.803 -0.1405  0.2660  0.0115
  189SLPC   H8X21874   2.574  -0.212   7.775  0.4030  0.9721  1.7996
  189SLPC   H8Y21875   2.446  -0.301   7.854  1.6379 -0.0462  0.2003
  189SLPC   C3921876   2.451  -0.086   7.899 -0.0196 -0.3081  0.2669
  189SLPC   H9X21877   2.341  -0.076   7.916 -0.3193  0.1080 -1.7475
  189SLPC   H9Y21878   2.499   0.002   7.853  1.8385 -1.1633  0.4964
  189SLPC  C31021879   2.523  -0.114   8.029  0.7218 -0.2338 -0.6706
  189SLPC  H10X21880   2.632  -0.134   8.017  0.8037 -1.0741  1.1675
  189SLPC  H10Y21881   2.489  -0.205   8.082  2.0851  0.1434  0.9612
  189SLPC  C31121882   2.506  -0.003   8.128  0.3104 -0.2657  0.4834
  189SLPC  H11X21883   2.397  -0.008   8.150  0.1393 -0.5571 -0.3610
  189SLPC  H11Y21884   2.542   0.096   8.094 -0.9334 -0.5010 -1.7250
  189SLPC  C31221885   2.583  -0.041   8.259  0.7934  0.4119  0.0727
  189SLPC  H12X21886   2.694  -0.032   8.250  0.5696  1.4354 -2.9031
  189SLPC  H12Y21887   2.554  -0.146   8.283 -1.3177  1.2671  1.5035
  189SLPC  C31321888   2.536   0.043   8.378 -0.0545  0.3407 -0.2168
  189SLPC  H13X21889   2.431   0.072   8.359 -0.5300 -0.3988  1.1408
  189SLPC  H13Y21890   2.589   0.141   8.384 -0.4418  0.4833  1.9545
  189SLPC  C31421891   2.559  -0.030   8.510 -0.0316  0.2478 -0.8127
  189SLPC  H14X21892   2.546  -0.140   8.495 -1.9855  0.2442  0.5436
  189SLPC  H14Y21893   2.472   0.005   8.569 -0.8794  2.0849 -3.0192
  189SLPC  C31521894   2.694  -0.002   8.572 -1.0728 -0.3373  0.5723
  189SLPC  H15X21895   2.721   0.105   8.556  0.8440 -0.8526  0.1792
  189SLPC  H15Y21896   2.767  -0.061   8.514  0.3897  2.2892 -0.4335
  189SLPC  C31621897   2.691  -0.025   8.714 -0.4121  0.6570 -0.2240
  189SLPC  H16X21898   2.641  -0.120   8.742 -1.7939  1.2783 -0.5117
  189SLPC  H16Y21899   2.628   0.055   8.759 -0.7908  1.5454 -2.1950
  189SLPC  C31721900   2.830  -0.026   8.779 -0.5676  0.0739  0.6097
  189SLPC  H17X21901   2.891   0.057   8.737 -1.9496  1.3089  0.9691
  189SLPC  H17Y21902   2.888  -0.116   8.749 -1.1940  0.5304 -2.2509
  189SLPC  C31821903   2.842   0.002   8.927  0.2217 -0.5255 -0.0946
  189SLPC  H18X21904   2.779  -0.070   8.984 -0.5754 -1.0314 -1.5634
  189SLPC  H18Y21905   2.814   0.105   8.955 -0.8940 -0.9488  0.3932
  189SLPC  H18Z21906   2.951  -0.005   8.949  0.0143  0.1211  1.2675
  190SLPC     N21907   1.874   6.527   6.239  0.0074  0.8512 -0.8835
  190SLPC   C1321908   1.825   6.665   6.248 -0.2771  0.3262 -0.3662
  190SLPC  H13A21909   1.818   6.705   6.148 -1.5428  0.3138 -0.2904
  190SLPC  H13B21910   1.726   6.678   6.288 -0.5713  2.3958 -1.6273
  190SLPC  H13C21911   1.892   6.731   6.301 -0.6946 -0.8724  1.7607
  190SLPC   C1421912   2.012   6.533   6.183  0.0873  0.2117  0.2966
  190SLPC  H14A21913   1.999   6.583   6.088 -2.1369  2.5120  1.6748
  190SLPC  H14B21914   2.086   6.570   6.253  1.4626 -3.6729  1.1496
  190SLPC  H14C21915   2.053   6.434   6.167 -1.0411 -0.1758 -0.3366
  190SLPC   C1521916   1.780   6.459   6.152  0.2659  0.3396 -0.2485
  190SLPC  H15A21917   1.805   6.493   6.052  0.3410  1.1675  0.0439
  190SLPC  H15B21918   1.789   6.351   6.150  0.5414  0.3115  1.2055
  190SLPC  H15C21919   1.677   6.479   6.175 -0.0431 -1.3831 -0.0196
  190SLPC   C1221920   1.875   6.459   6.376  0.0089 -0.0749 -0.3470
  190SLPC  H12A21921   1.776   6.473   6.417  1.0048  2.0574  1.5688
  190SLPC  H12B21922   1.933   6.516   6.448 -2.1659  1.2818  0.4187
  190SLPC   C1121923   1.932   6.319   6.381  0.3530  0.1577 -0.1415
  190SLPC  H11A21924   1.899   6.258   6.293  1.9284 -2.3819  0.9048
  190SLPC  H11B21925   1.893   6.252   6.460 -0.4597 -1.1912 -1.6126
  190SLPC     P21926   2.154   6.333   6.514  0.1733 -0.3475 -0.1956
  190SLPC   O1321927   2.112   6.220   6.601  0.2642 -0.4942  0.4368
  190SLPC   O1421928   2.297   6.350   6.486 -0.4679  0.1669  0.3641
  190SLPC   O1221929   2.081   6.321   6.369  0.6373  0.1752  0.7570
  190SLPC   O1121930   2.103   6.478   6.566  0.4114 -0.4368 -0.2430
  190SLPC    C121931   2.024   6.495   6.685  0.7228  0.9040 -0.2673
  190SLPC    HA21932   1.967   6.591   6.682 -1.7438 -0.5050 -1.8476
  190SLPC    HB21933   1.945   6.418   6.686  0.0992  1.4932 -1.5499
  190SLPC    C221934   2.112   6.508   6.813 -0.5898  0.6248  0.5878
  190SLPC    HS21935   2.168   6.413   6.821  0.2549  0.8806 -1.6342
  190SLPC   O2121936   2.024   6.536   6.926  0.0254  0.0914 -0.3559
  190SLPC   C2121937   1.999   6.441   7.019  0.3577  0.5587 -0.1421
  190SLPC   O2221938   2.036   6.323   7.007 -0.2658 -0.7316 -0.5679
  190SLPC   C2221939   1.922   6.510   7.134 -0.0783  0.1913  0.1177
  190SLPC   H2R21940   1.978   6.604   7.156  0.7455 -0.5632  1.3797
  190SLPC   H2S21941   1.824   6.547   7.097 -1.0267 -1.8546  0.4484
  190SLPC    C321942   2.210   6.632   6.797  0.2254 -0.1837 -0.3200
  190SLPC    HX21943   2.156   6.717   6.750 -2.7903 -1.1161  1.2389
  190SLPC    HY21944   2.288   6.603   6.723 -0.9546  0.4128 -1.8389
  190SLPC   O3121945   2.278   6.661   6.921 -0.3508 -0.2594  0.0109
  190SLPC   C3121946   2.225   6.768   6.989 -0.3352  0.5890  0.3139
  190SLPC   O3221947   2.112   6.819   6.968 -0.7496  0.4487 -0.0398
  190SLPC   C3221948   2.325   6.806   7.100 -0.2095  0.1651  0.4435
  190SLPC   H2X21949   2.414   6.853   7.053  0.6002 -1.1425  0.6162
  190SLPC   H2Y21950   2.357   6.713   7.151 -0.7127  0.4743  1.3399
  190SLPC   C2321951   1.889   6.417   7.249 -0.2964 -0.4490 -0.2167
  190SLPC   H3R21952   1.864   6.316   7.209 -0.7600 -0.5400  0.2951
  190SLPC   H3S21953   1.794   6.451   7.293  0.2749  1.5122 -0.4007
  190SLPC   C2421954   1.985   6.403   7.366  0.2454  0.6684 -0.5755
  190SLPC   H4R21955   2.089   6.387   7.332  0.6598 -0.8007  1.2273
  190SLPC   H4S21956   1.943   6.316   7.420 -0.7720  0.6169 -1.4260
  190SLPC   C2521957   1.995   6.529   7.455  0.3136  0.9795 -0.8656
  190SLPC   H5R21958   2.002   6.618   7.389  0.7787  1.3215 -0.3608
  190SLPC   H5S21959   2.088   6.536   7.515 -0.0695 -1.8176  0.2262
  190SLPC   C2621960   1.871   6.560   7.544 -0.1430 -0.2288  0.5572
  190SLPC   H6R21961   1.771   6.558   7.494 -0.8736  0.5979  1.9194
  190SLPC   H6S21962   1.876   6.664   7.583 -0.5485 -0.0361  0.1129
  190SLPC   C2721963   1.847   6.468   7.660  0.4992 -0.3965 -0.5758
  190SLPC   H7R21964   1.850   6.365   7.619 -1.0868 -1.2090  1.1712
  190SLPC   H7S21965   1.744   6.486   7.698  1.4395  1.0466  1.5164
  190SLPC   C2821966   1.940   6.507   7.780  0.2860  0.9238 -0.1460
  190SLPC   H8R21967   1.964   6.615   7.785  0.1903  0.9320  0.1177
  190SLPC   H8S21968   2.038   6.457   7.760 -0.8464 -0.2083 -3.5838
  190SLPC   C2921969   1.888   6.463   7.918 -0.2008  0.1401  0.0056
  190SLPC   H9R21970   1.829   6.370   7.914  2.2975 -1.4813 -1.6437
  190SLPC  C21021971   1.921   6.506   8.044  0.4275  0.1086  0.3428
  190SLPC  H10R21972   1.864   6.457   8.124 -0.1593 -1.1483 -0.7951
  190SLPC  C21121973   2.013   6.612   8.081 -0.8941  0.5589  0.2313
  190SLPC  H11R21974   1.995   6.649   8.184  1.0482  0.0853  0.7902
  190SLPC  H11S21975   2.013   6.695   8.007 -0.7962  0.6310  0.3113
  190SLPC  C21221976   2.155   6.559   8.101 -0.6956  0.7089  0.3671
  190SLPC  H12R21977   2.228   6.578   8.021 -0.0989  1.4697  1.0777
  190SLPC  C21321978   2.217   6.521   8.218  0.3027  0.1787 -0.6215
  190SLPC  H13R21979   2.324   6.496   8.208  0.7346  2.5007 -2.7399
  190SLPC  C21421980   2.156   6.513   8.362  0.1763  0.1294 -0.9667
  190SLPC  H14R21981   2.206   6.431   8.418 -1.4003 -0.5841 -0.5546
  190SLPC  H14S21982   2.049   6.483   8.359  0.5724 -1.2637 -1.6513
  190SLPC  C21521983   2.153   6.645   8.454  0.8021  0.3041 -0.0413
  190SLPC  H15R21984   2.099   6.727   8.401  0.7690  0.0959 -0.3314
  190SLPC  H15S21985   2.257   6.674   8.482 -0.7863  3.9206  3.2089
  190SLPC  C21621986   2.075   6.614   8.591  0.0046  0.1833  0.4231
  190SLPC  H16R21987   2.115   6.689   8.663  1.0496  0.8164 -0.7719
  190SLPC  H16S21988   2.108   6.514   8.626  0.0591  0.1244  0.2104
  190SLPC  C21721989   1.923   6.622   8.572 -0.7760 -0.3451  0.6363
  190SLPC  H17R21990   1.893   6.558   8.487  1.2930 -0.1455 -0.3025
  190SLPC  H17S21991   1.896   6.722   8.533  0.3452 -0.4004 -0.3244
  190SLPC  C21821992   1.847   6.594   8.701 -0.3705  0.5480  0.0380
  190SLPC  H18R21993   1.870   6.675   8.774  2.6871 -1.5084  1.5639
  190SLPC  H18S21994   1.879   6.502   8.755 -0.5337 -0.6029 -1.7328
  190SLPC  H18T21995   1.738   6.587   8.685 -0.4026  0.1529  0.4033
  190SLPC   C3321996   2.260   6.895   7.215  0.3332  0.3580 -0.2128
  190SLPC   H3X21997   2.232   6.993   7.171  1.2596  0.5307 -0.4390
  190SLPC   H3Y21998   2.335   6.914   7.294  0.6542  0.8834 -0.6386
  190SLPC   C3421999   2.134   6.837   7.287  0.2726 -0.5536  0.9141
  190SLPC   H4X22000   2.154   6.736   7.328 -0.2860 -1.2579 -0.4810
  190SLPC   H4Y22001   2.045   6.839   7.221 -0.0180 -0.0669  1.3161
  190SLPC   C3522002   2.090   6.914   7.413 -0.2019 -0.5616  0.0148
  190SLPC   H5X22003   2.172   6.906   7.488  0.8278  0.1768 -0.9941
  190SLPC   H5Y22004   2.007   6.859   7.462 -0.7241  0.6433  0.5311
  190SLPC   C3622005   2.062   7.065   7.383 -0.0667  0.4980 -0.1661
  190SLPC   H6X22006   1.992   7.066   7.296 -0.6826 -1.8122  0.2380
  190SLPC   H6Y22007   2.155   7.119   7.355 -1.1869  2.2410 -0.7217
  190SLPC   C3722008   1.988   7.138   7.503  0.1413 -0.0991  0.5398
  190SLPC   H7X22009   1.881   7.110   7.497  0.6925 -2.5000  0.9942
  190SLPC   H7Y22010   1.999   7.248   7.493  0.7821 -0.2237 -0.2582
  190SLPC   C3822011   2.053   7.097   7.633 -0.2845 -1.0385 -0.0360
  190SLPC   H8X22012   2.157   7.136   7.622 -1.3111  1.3682 -2.0290
  190SLPC   H8Y22013   2.045   6.988   7.652 -0.4325 -0.9346  0.5130
  190SLPC   C3922014   1.978   7.167   7.748 -0.9751 -0.0011  0.2284
  190SLPC   H9X22015   1.872   7.144   7.727 -1.8307 -0.7833  4.4887
  190SLPC   H9Y22016   1.987   7.277   7.734  2.3270  0.3725  3.4337
  190SLPC  C31022017   2.023   7.127   7.893  0.0568 -0.2591 -0.2448
  190SLPC  H10X22018   2.003   7.218   7.954 -0.8169 -0.9842  0.5763
  190SLPC  H10Y22019   2.131   7.112   7.911 -0.1643 -0.0624  1.3911
  190SLPC  C31122020   1.950   7.013   7.952 -0.8176 -0.4345 -0.1013
  190SLPC  H11X22021   1.948   6.924   7.886  0.7988 -1.2556  0.8870
  190SLPC  H11Y22022   1.845   7.045   7.967 -0.8854 -0.2392 -0.9566
  190SLPC  C31222023   1.982   6.971   8.100 -0.6319  0.7025 -0.0621
  190SLPC  H12X22024   2.082   6.923   8.103 -0.2863  1.2915 -1.4521
  190SLPC  H12Y22025   1.909   6.892   8.127  0.5826  0.0869  1.5989
  190SLPC  C31322026   1.981   7.079   8.210  0.0989  0.1042 -0.2521
  190SLPC  H13X22027   1.903   7.157   8.193  1.6896  1.3310 -2.4077
  190SLPC  H13Y22028   2.074   7.140   8.209  0.3613 -0.2585  0.8111
  190SLPC  C31422029   1.970   7.023   8.353 -0.0588 -0.4426  0.0566
  190SLPC  H14X22030   2.048   6.947   8.377  1.1588  1.1879  1.5201
  190SLPC  H14Y22031   1.875   6.966   8.361 -0.0862 -0.4338 -0.1930
  190SLPC  C31522032   1.950   7.122   8.467 -0.5789  0.4380  0.6151
  190SLPC  H15X22033   1.874   7.196   8.437 -1.2123  0.1845  1.5596
  190SLPC  H15Y22034   2.039   7.186   8.489  0.5139 -1.0649  0.7512
  190SLPC  C31622035   1.922   7.041   8.594 -0.2834 -0.0198 -0.1104
  190SLPC  H16X22036   1.986   6.951   8.599  1.4584  1.1767  0.2127
  190SLPC  H16Y22037   1.819   7.001   8.585 -0.3590  0.6175 -3.1205
  190SLPC  C31722038   1.948   7.117   8.723 -0.2728  0.4966 -0.2799
  190SLPC  H17X22039   1.858   7.176   8.752  0.2178  1.9514 -1.5881
  190SLPC  H17Y22040   2.027   7.194   8.710 -1.1008  1.8530  2.1148
  190SLPC  C31822041   2.002   7.034   8.840 -0.1829 -0.2380 -0.5232
  190SLPC  H18X22042   2.092   6.979   8.804  1.1478  1.9441 -0.7946
  190SLPC  H18Y22043   1.914   6.973   8.867  0.1769 -0.9985 -1.0467
  190SLPC  H18Z22044   2.026   7.091   8.933  4.0913 -0.0993 -1.4979
  191SLPC     N22045   0.951   2.410   5.694 -0.1976 -0.1333 -0.0589
  191SLPC   C1322046   0.913   2.556   5.685 -0.2459  0.2000  1.0902
  191SLPC  H13A22047   0.850   2.584   5.768 -3.4542  1.4559 -1.5451
  191SLPC  H13B22048   0.999   2.620   5.682  1.2320 -1.6649  1.4443
  191SLPC  H13C22049   0.843   2.576   5.605 -1.0892  2.4475  2.3121
  191SLPC   C1422050   1.024   2.384   5.572  0.4107  0.4135 -0.0359
  191SLPC  H14A22051   1.092   2.301   5.583 -1.1160 -0.9504 -0.5454
  191SLPC  H14B22052   0.957   2.368   5.489  0.5590  0.4971 -0.1702
  191SLPC  H14C22053   1.081   2.471   5.542 -0.9676  1.6161  0.6889
  191SLPC   C1522054   0.825   2.326   5.704  0.9338 -0.2778 -0.5275
  191SLPC  H15A22055   0.759   2.344   5.621 -0.4325 -0.1690  0.5391
  191SLPC  H15B22056   0.847   2.220   5.713 -0.6348 -0.5394  0.9150
  191SLPC  H15C22057   0.762   2.347   5.789  0.1034 -0.9045 -0.9759
  191SLPC   C1222058   1.032   2.391   5.820  0.2033  0.4181  0.7031
  191SLPC  H12A22059   1.130   2.436   5.809  0.7184 -0.7717  0.2386
  191SLPC  H12B22060   1.051   2.286   5.837 -2.0383 -0.1149  0.2334
  191SLPC   C1122061   0.978   2.433   5.959 -0.1137 -0.6821 -0.3569
  191SLPC  H11A22062   0.945   2.539   5.968 -0.4602 -0.7123 -1.2056
  191SLPC  H11B22063   1.068   2.432   6.024 -0.4701  1.3795  0.2709
  191SLPC     P22064   0.896   2.211   6.062  0.4819 -0.2051  0.6930
  191SLPC   O1322065   0.769   2.139   6.081  1.0319 -0.0185 -0.3140
  191SLPC   O1422066   1.001   2.143   5.984 -0.1847 -0.4418 -0.0733
  191SLPC   O1222067   0.870   2.351   6.007  0.9448 -0.2930  0.5761
  191SLPC   O1122068   0.958   2.233   6.202  0.0043  0.1778 -0.1152
  191SLPC    C122069   0.902   2.327   6.293 -0.1047  0.7690  0.7893
  191SLPC    HA22070   0.825   2.394   6.247 -1.2648 -0.2693  1.1660
  191SLPC    HB22071   0.840   2.265   6.361  0.2140 -0.4996 -0.0526
  191SLPC    C222072   1.005   2.403   6.377  0.0777  0.9506 -0.2111
  191SLPC    HS22073   1.061   2.469   6.307  2.4488 -1.5038 -0.8030
  191SLPC   O2122074   1.090   2.303   6.452  0.0450  0.3658 -0.2624
  191SLPC   C2122075   1.211   2.344   6.488  0.5253 -0.5393  0.0302
  191SLPC   O2222076   1.266   2.447   6.453 -0.3042  0.1946 -0.0979
  191SLPC   C2222077   1.282   2.226   6.547  0.3818 -0.7326 -0.3623
  191SLPC   H2R22078   1.211   2.141   6.554 -1.5483  0.6923 -1.6059
  191SLPC   H2S22079   1.362   2.194   6.476 -0.4281 -2.9007 -0.3593
  191SLPC    C322080   0.928   2.486   6.483 -0.6351 -0.1561  0.4743
  191SLPC    HX22081   0.846   2.541   6.433  1.5153  3.1460  0.2924
  191SLPC    HY22082   0.998   2.563   6.523  1.1051 -2.0407  1.2038
  191SLPC   O3122083   0.866   2.412   6.583  0.1036 -0.5481 -0.9524
  191SLPC   C3122084   0.942   2.383   6.683 -0.8464  0.4686  0.5504
  191SLPC   O3222085   1.042   2.444   6.718  0.0346  0.2856 -0.8009
  191SLPC   C3222086   0.872   2.262   6.744  0.0680  0.2210  0.3988
  191SLPC   H2X22087   0.787   2.240   6.676  0.7166  2.0781 -1.1286
  191SLPC   H2Y22088   0.840   2.297   6.844  0.7023  3.4483 -0.4083
  191SLPC   C2322089   1.347   2.257   6.683  0.6148 -0.5973  0.4638
  191SLPC   H3R22090   1.275   2.268   6.767  0.6909 -0.3899  0.5030
  191SLPC   H3S22091   1.408   2.349   6.673  0.7928 -0.8660 -1.0848
  191SLPC   C2422092   1.445   2.137   6.729  0.5061  0.0798 -0.4408
  191SLPC   H4R22093   1.539   2.137   6.669  0.9935  1.0915  0.2886
  191SLPC   H4S22094   1.390   2.041   6.724 -0.5741  0.7336 -1.6214
  191SLPC   C2522095   1.489   2.147   6.874 -0.2125  0.5752  0.1527
  191SLPC   H5R22096   1.398   2.147   6.938 -0.1367 -0.2741  0.2595
  191SLPC   H5S22097   1.531   2.250   6.883 -0.7066  0.9320 -1.4069
  191SLPC   C2622098   1.590   2.037   6.906  0.0238  0.3044 -0.4518
  191SLPC   H6R22099   1.677   2.032   6.836 -0.6869 -0.1708 -1.3140
  191SLPC   H6S22100   1.550   1.934   6.897  0.2970  0.0972  0.5421
  191SLPC   C2722101   1.652   2.048   7.049  0.2908  0.0916 -0.3211
  191SLPC   H7R22102   1.689   2.153   7.055 -0.2864  0.4602 -2.3687
  191SLPC   H7S22103   1.739   1.979   7.049 -0.2614 -0.6423 -1.4149
  191SLPC   C2822104   1.550   2.031   7.166 -0.2654 -0.8587  0.1109
  191SLPC   H8R22105   1.452   1.999   7.124 -1.0860  1.7106 -0.1134
  191SLPC   H8S22106   1.535   2.131   7.212  1.8127 -1.0347  1.3081
  191SLPC   C2922107   1.598   1.922   7.261 -0.1451 -0.1459 -0.0156
  191SLPC   H9R22108   1.631   1.830   7.210  0.0169 -0.1144  0.0322
  191SLPC  C21022109   1.615   1.940   7.398  0.2219  0.0386  0.2468
  191SLPC  H10R22110   1.668   1.861   7.453  0.4771  0.6135  0.8315
  191SLPC  C21122111   1.583   2.056   7.486 -0.9345 -0.5017  0.5367
  191SLPC  H11R22112   1.479   2.050   7.524 -1.0391  0.6915  0.4752
  191SLPC  H11S22113   1.582   2.147   7.421  2.7121 -1.2203 -0.7857
  191SLPC  C21222114   1.700   2.082   7.584  0.4652 -0.4742  0.0680
  191SLPC  H12R22115   1.781   2.145   7.544 -0.2947  0.2863 -0.3079
  191SLPC  C21322116   1.699   2.049   7.715 -0.4099  0.0878  0.0204
  191SLPC  H13R22117   1.783   2.077   7.779  0.1716 -2.0657  0.2922
  191SLPC  C21422118   1.586   1.972   7.780  0.2446  0.1077 -0.1397
  191SLPC  H14R22119   1.619   1.869   7.807 -0.7127 -0.3227 -0.5485
  191SLPC  H14S22120   1.498   1.961   7.712  0.6957 -0.9195 -0.5874
  191SLPC  C21522121   1.529   2.063   7.895  0.0321 -0.0386  0.9877
  191SLPC  H15R22122   1.498   2.163   7.858 -1.2243  0.1200  2.3501
  191SLPC  H15S22123   1.600   2.066   7.981  0.8978 -0.6288  0.3092
  191SLPC  C21622124   1.397   2.010   7.956  0.4214  0.2112 -0.3084
  191SLPC  H16R22125   1.407   1.907   7.997 -0.8895  0.0489 -0.3803
  191SLPC  H16S22126   1.316   1.992   7.883 -0.1326  1.1232  0.0728
  191SLPC  C21722127   1.358   2.098   8.079  0.2361 -0.2046 -0.1468
  191SLPC  H17R22128   1.347   2.206   8.055 -0.1817 -0.0869  0.5562
  191SLPC  H17S22129   1.430   2.086   8.163 -0.3512  0.9635  0.5528
  191SLPC  C21822130   1.222   2.063   8.144  0.4123  0.1101  0.4741
  191SLPC  H18R22131   1.219   1.964   8.195 -4.0249 -0.9439 -1.3551
  191SLPC  H18S22132   1.144   2.060   8.065  2.8099  0.1926 -2.0440
  191SLPC  H18T22133   1.185   2.139   8.216  4.1104  2.4975  0.1302
  191SLPC   C3322134   0.948   2.135   6.762  0.1485 -0.4771  0.1355
  191SLPC   H3X22135   1.038   2.119   6.700  3.0621  1.2351  3.5088
  191SLPC   H3Y22136   0.881   2.051   6.735  0.4653 -0.7005  0.0431
  191SLPC   C3422137   0.990   2.109   6.909 -0.2306 -0.2282  0.1162
  191SLPC   H4X22138   0.903   2.119   6.978  0.4583 -1.9913  1.3190
  191SLPC   H4Y22139   1.076   2.174   6.934 -1.0638  0.4869  1.2381
  191SLPC   C3522140   1.040   1.960   6.927  0.3169 -0.1391 -0.3472
  191SLPC   H5X22141   1.096   1.933   6.834 -1.0007 -1.7929 -0.7119
  191SLPC   H5Y22142   0.957   1.887   6.925  0.3932 -0.2348  0.0627
  191SLPC   C3622143   1.116   1.940   7.057 -0.2589  0.0956  0.1062
  191SLPC   H6X22144   1.211   1.998   7.053 -0.6550  0.8556  1.3171
  191SLPC   H6Y22145   1.149   1.835   7.071  1.3204  0.6229  0.6112
  191SLPC   C3722146   1.053   2.008   7.180 -0.4649 -0.4750 -0.2811
  191SLPC   H7X22147   0.947   1.979   7.196 -0.4633 -0.0996  0.4605
  191SLPC   H7Y22148   1.053   2.118   7.161 -0.0314 -0.3571  0.3886
  191SLPC   C3822149   1.132   1.995   7.310  0.2792 -0.3699 -0.2186
  191SLPC   H8X22150   1.102   2.070   7.386 -0.6591 -1.9935  1.0744
  191SLPC   H8Y22151   1.241   2.010   7.293  0.5300 -0.9166  0.8412
  191SLPC   C3922152   1.120   1.862   7.382  0.1083  0.1858  0.5761
  191SLPC   H9X22153   1.150   1.794   7.300  0.9593  0.0212  1.0095
  191SLPC   H9Y22154   1.016   1.834   7.410  0.4986 -2.3806 -0.2554
  191SLPC  C31022155   1.219   1.837   7.498 -0.3181 -0.0587 -0.0365
  191SLPC  H10X22156   1.314   1.872   7.452 -0.6341  1.2992  0.3037
  191SLPC  H10Y22157   1.228   1.728   7.515  0.6375 -0.0703 -0.5625
  191SLPC  C31122158   1.175   1.911   7.623 -0.3928 -0.0666  0.0608
  191SLPC  H11X22159   1.148   2.006   7.573 -2.6267 -1.3501 -1.3715
  191SLPC  H11Y22160   1.259   1.939   7.690  2.9215  1.7296 -4.3401
  191SLPC  C31222161   1.051   1.851   7.699  0.3936 -0.2909 -0.6939
  191SLPC  H12X22162   1.077   1.749   7.735  1.1277  0.5932  1.4974
  191SLPC  H12Y22163   0.964   1.844   7.630 -0.7408 -0.4085  0.6701
  191SLPC  C31322164   1.012   1.931   7.821 -0.4968  0.2883 -0.4288
  191SLPC  H13X22165   0.950   2.022   7.803  1.1329  1.9690  1.8575
  191SLPC  H13Y22166   1.103   1.972   7.870 -1.7079  0.7073  1.5965
  191SLPC  C31422167   0.934   1.850   7.926  0.1475 -0.4909 -0.5615
  191SLPC  H14X22168   0.854   1.790   7.878  1.8746 -0.6079 -3.5529
  191SLPC  H14Y22169   0.878   1.917   7.995  0.8980 -0.0366 -0.3902
  191SLPC  C31522170   1.021   1.752   8.002  0.8960  0.6590 -0.3960
  191SLPC  H15X22171   1.120   1.801   7.997 -0.5691  3.7269 -1.5006
  191SLPC  H15Y22172   1.025   1.651   7.956  1.0294  0.2029  0.5901
  191SLPC  C31622173   0.979   1.759   8.161  0.2217 -0.1480  0.4652
  191SLPC  H16X22174   0.881   1.708   8.172  0.2685 -0.2417  0.4555
  191SLPC  H16Y22175   0.957   1.865   8.185  0.7632 -0.3356  1.8683
  191SLPC  C31722176   1.089   1.694   8.247  0.3842 -0.0537 -0.9195
  191SLPC  H17X22177   1.185   1.748   8.229 -0.1373  0.5561 -1.9415
  191SLPC  H17Y22178   1.112   1.590   8.213 -0.2211  0.1621 -2.0620
  191SLPC  C31822179   1.047   1.690   8.395  0.2444  0.1180  0.3313
  191SLPC  H18X22180   1.137   1.689   8.461  1.6750  0.3644 -1.5274
  191SLPC  H18Y22181   0.984   1.599   8.408  0.9736 -0.9006 -2.5430
  191SLPC  H18Z22182   0.982   1.780   8.399  0.1238 -0.0099  1.7615
  192SLPC     N22183   2.635   2.579   6.282 -0.2816 -0.0886  0.4508
  192SLPC   C1322184   2.624   2.445   6.222 -0.0492  0.1839 -0.8152
  192SLPC  H13A22185   2.536   2.436   6.160  1.4132  0.1887 -3.0094
  192SLPC  H13B22186   2.704   2.420   6.153 -0.3663 -1.4304 -0.6317
  192SLPC  H13C22187   2.619   2.370   6.299  2.4247  1.8731  1.1574
  192SLPC   C1422188   2.635   2.679   6.171 -0.3618 -0.1458 -0.9038
  192SLPC  H14A22189   2.543   2.673   6.115 -0.0501 -0.4775 -1.3952
  192SLPC  H14B22190   2.664   2.779   6.200  0.7987 -0.8251  0.3935
  192SLPC  H14C22191   2.722   2.654   6.111  1.8796  1.2987  1.5250
  192SLPC   C1522192   2.766   2.597   6.355 -0.0133 -0.4149  0.4519
  192SLPC  H15A22193   2.766   2.680   6.423 -0.4888 -2.1983  2.7538
  192SLPC  H15B22194   2.772   2.518   6.429 -0.6153 -1.7531 -0.8730
  192SLPC  H15C22195   2.852   2.585   6.291  0.3083 -3.1908  1.2560
  192SLPC   C1222196   2.520   2.609   6.378 -0.4458 -0.0948 -0.8169
  192SLPC  H12A22197   2.430   2.589   6.322  0.2116 -1.2705 -1.4993
  192SLPC  H12B22198   2.541   2.710   6.411 -1.2917 -0.0447 -0.4204
  192SLPC   C1122199   2.505   2.517   6.503 -0.1925  0.4511 -0.4999
  192SLPC  H11A22200   2.532   2.412   6.477 -0.0018 -0.2251  2.1937
  192SLPC  H11B22201   2.401   2.517   6.542 -0.3076  0.9796 -0.7976
  192SLPC     P22202   2.689   2.465   6.681  0.1512 -0.0080  0.0026
  192SLPC   O1322203   2.741   2.362   6.585  0.0474 -0.8689 -0.5483
  192SLPC   O1422204   2.791   2.546   6.752 -0.2041 -0.0477 -0.5293
  192SLPC   O1222205   2.585   2.568   6.613 -0.2559  0.4777  0.1195
  192SLPC   O1122206   2.606   2.399   6.792 -0.1147  0.3696  0.2124
  192SLPC    C122207   2.487   2.326   6.772 -0.3091 -0.3434 -0.4301
  192SLPC    HA22208   2.403   2.381   6.724 -0.8264 -1.7129 -1.1800
  192SLPC    HB22209   2.506   2.237   6.708  1.4387 -0.7895  0.6419
  192SLPC    C222210   2.444   2.256   6.903 -0.2486 -0.9058  0.1095
  192SLPC    HS22211   2.358   2.189   6.879  0.4206 -1.0675 -1.9854
  192SLPC   O2122212   2.412   2.358   7.009 -0.0273  0.3952  0.2631
  192SLPC   C2122213   2.290   2.406   6.998 -0.0009 -0.8745  0.0054
  192SLPC   O2222214   2.208   2.379   6.907 -0.6594 -0.0542  0.1324
  192SLPC   C2222215   2.264   2.497   7.119 -0.2025 -0.0526  0.6420
  192SLPC   H2R22216   2.207   2.579   7.071  0.1406 -0.7350 -0.9944
  192SLPC   H2S22217   2.197   2.445   7.191 -0.9995  1.4427  1.0271
  192SLPC    C322218   2.550   2.154   6.954 -0.5042  0.1098  0.0543
  192SLPC    HX22219   2.649   2.204   6.947 -0.8616  1.0778  1.5512
  192SLPC    HY22220   2.554   2.066   6.886 -1.6107  2.0446 -2.7366
  192SLPC   O3122221   2.512   2.101   7.088 -0.4114 -0.1427  0.0192
  192SLPC   C3122222   2.568   2.165   7.191  0.4918  0.0600  0.3001
  192SLPC   O3222223   2.631   2.272   7.180  0.0216  0.6957  0.1319
  192SLPC   C3222224   2.568   2.078   7.310  0.9000 -0.1697 -0.2830
  192SLPC   H2X22225   2.626   1.984   7.300 -1.0437 -1.4075 -0.4327
  192SLPC   H2Y22226   2.465   2.042   7.332  1.2867 -0.4348  1.2293
  192SLPC   C2322227   2.385   2.569   7.183 -0.5648 -0.1278 -0.3633
  192SLPC   H3R22228   2.470   2.594   7.117  0.0434 -2.0649 -0.3726
  192SLPC   H3S22229   2.431   2.501   7.259  0.7015  1.1098  0.0179
  192SLPC   C2422230   2.330   2.688   7.249  0.0415 -0.0185 -0.9179
  192SLPC   H4R22231   2.236   2.674   7.306  2.0377 -0.5561  2.5413
  192SLPC   H4S22232   2.290   2.761   7.175 -0.1165  1.8000  0.8644
  192SLPC   C2522233   2.427   2.768   7.334 -0.3479  0.3774 -0.6820
  192SLPC   H5R22234   2.520   2.781   7.274  1.9512 -0.0926  2.5150
  192SLPC   H5S22235   2.452   2.710   7.426 -4.6741  0.4461  0.7402
  192SLPC   C2622236   2.358   2.896   7.379 -0.5297  0.5352 -0.4535
  192SLPC   H6R22237   2.306   2.958   7.302 -2.1943  0.7786  0.7936
  192SLPC   H6S22238   2.439   2.963   7.414  1.1082 -1.2336 -0.7395
  192SLPC   C2722239   2.251   2.886   7.489 -0.7100 -0.8063 -0.4876
  192SLPC   H7R22240   2.288   2.818   7.569 -1.9380 -0.5985  0.2688
  192SLPC   H7S22241   2.166   2.838   7.436 -2.0701  2.1528 -1.1689
  192SLPC   C2822242   2.218   3.022   7.539 -0.0481 -0.0557 -1.1745
  192SLPC   H8R22243   2.114   3.017   7.578 -0.6014  0.4012 -2.5467
  192SLPC   H8S22244   2.218   3.100   7.460 -2.5316  0.3492 -0.8555
  192SLPC   C2922245   2.315   3.081   7.639  0.0447 -0.2222  0.1315
  192SLPC   H9R22246   2.421   3.089   7.609  0.2209 -1.0407  0.4888
  192SLPC  C21022247   2.279   3.128   7.758 -1.3658 -0.1092  0.1164
  192SLPC  H10R22248   2.354   3.176   7.823 -0.7770 -0.7097 -0.1123
  192SLPC  C21122249   2.143   3.124   7.820  0.9299  0.0458 -0.0058
  192SLPC  H11R22250   2.059   3.146   7.751  2.0018  1.3915 -0.9267
  192SLPC  H11S22251   2.135   3.208   7.892 -1.2759 -0.7869  0.8105
  192SLPC  C21222252   2.122   2.996   7.890 -0.1149 -0.1459 -1.1577
  192SLPC  H12R22253   2.126   2.908   7.824  2.2052 -2.4863  1.8068
  192SLPC  C21322254   2.100   2.983   8.027  0.2756 -0.3948  0.1371
  192SLPC  H13R22255   2.081   2.880   8.060 -1.6246 -1.0047 -2.5442
  192SLPC  C21422256   2.089   3.087   8.129  0.0452 -0.0791 -0.5139
  192SLPC  H14R22257   2.030   3.041   8.211 -0.9601  0.9155 -0.6628
  192SLPC  H14S22258   2.030   3.175   8.096 -1.3894 -0.7305  0.2357
  192SLPC  C21522259   2.225   3.137   8.174 -0.0145  0.0146 -0.3540
  192SLPC  H15R22260   2.284   3.155   8.082 -1.7098  0.7237 -1.3497
  192SLPC  H15S22261   2.274   3.055   8.231  0.5661 -0.4571 -1.4979
  192SLPC  C21622262   2.209   3.261   8.265  0.1112 -0.1374  0.0735
  192SLPC  H16R22263   2.165   3.346   8.208  0.4899  0.1160  0.1576
  192SLPC  H16S22264   2.312   3.297   8.287  0.3638 -0.6449 -0.2414
  192SLPC  C21722265   2.134   3.238   8.400  0.4942  0.0974  0.4154
  192SLPC  H17R22266   2.031   3.200   8.381  1.0002 -1.2062  0.1667
  192SLPC  H17S22267   2.183   3.155   8.455 -0.2658 -0.0843  0.8426
  192SLPC  C21822268   2.139   3.359   8.494  0.0385 -0.1669 -0.1224
  192SLPC  H18R22269   2.091   3.451   8.454  2.6209  1.6729  0.7361
  192SLPC  H18S22270   2.247   3.384   8.501  0.0181  0.9149 -2.6113
  192SLPC  H18T22271   2.097   3.355   8.597  1.5413 -0.2651  0.5082
  192SLPC   C3322272   2.621   2.157   7.429  1.1467  0.2958  0.0649
  192SLPC   H3X22273   2.706   2.223   7.401  2.0113 -1.1982 -0.9611
  192SLPC   H3Y22274   2.660   2.078   7.496 -0.8122 -0.4722  0.3542
  192SLPC   C3422275   2.517   2.223   7.521  0.0850 -0.0369  0.6592
  192SLPC   H4X22276   2.467   2.145   7.582  1.3364  0.9848  3.1390
  192SLPC   H4Y22277   2.437   2.278   7.466  2.3640  3.8088  0.8336
  192SLPC   C3522278   2.586   2.327   7.599  0.7725  0.6377  0.4665
  192SLPC   H5X22279   2.625   2.414   7.542 -0.7018 -0.4373 -2.3825
  192SLPC   H5Y22280   2.663   2.273   7.658 -0.1145 -4.7788 -2.6660
  192SLPC   C3622281   2.505   2.383   7.714  0.2820  0.3652  1.1593
  192SLPC   H6X22282   2.561   2.430   7.798 -0.4974  3.1415  0.2521
  192SLPC   H6Y22283   2.451   2.296   7.757 -0.7051 -0.3958 -1.4248
  192SLPC   C3722284   2.391   2.477   7.667 -0.9415  0.7826  0.2221
  192SLPC   H7X22285   2.312   2.422   7.611 -0.5748  0.3591  0.1164
  192SLPC   H7Y22286   2.426   2.566   7.610  2.1295  0.6392  1.6734
  192SLPC   C3822287   2.310   2.539   7.782 -0.0961  1.1554  0.0715
  192SLPC   H8X22288   2.252   2.455   7.826  1.6374 -0.2867 -0.2960
  192SLPC   H8Y22289   2.242   2.615   7.737  1.1558  1.3170 -1.6367
  192SLPC   C3922290   2.390   2.618   7.880 -0.2302  1.1863 -0.6427
  192SLPC   H9X22291   2.429   2.710   7.831  0.7439  1.2030  0.1151
  192SLPC   H9Y22292   2.478   2.565   7.923 -2.0441 -0.8487  0.7739
  192SLPC  C31022293   2.311   2.675   8.001  0.8718  0.1762 -0.8048
  192SLPC  H10X22294   2.216   2.711   7.958  0.4494 -2.4568 -2.2978
  192SLPC  H10Y22295   2.357   2.765   8.046 -1.4550  0.1349  1.9433
  192SLPC  C31122296   2.295   2.573   8.109  0.2127  0.4013  0.4238
  192SLPC  H11X22297   2.393   2.546   8.154  0.0768 -0.4739  0.2258
  192SLPC  H11Y22298   2.257   2.479   8.062  0.9854  1.1840 -1.9343
  192SLPC  C31222299   2.182   2.611   8.208  0.2172  0.6446 -0.1609
  192SLPC  H12X22300   2.146   2.517   8.255  0.0810  0.4938 -0.5599
  192SLPC  H12Y22301   2.099   2.645   8.141 -1.4169 -1.4623  0.6576
  192SLPC  C31322302   2.242   2.715   8.303 -0.4845 -0.2845 -0.7755
  192SLPC  H13X22303   2.254   2.811   8.248  1.3387 -0.0677 -0.0863
  192SLPC  H13Y22304   2.345   2.684   8.330 -0.5081 -0.6914 -1.1334
  192SLPC  C31422305   2.152   2.738   8.428 -1.1727 -0.0732  0.2982
  192SLPC  H14X22306   2.198   2.820   8.488 -0.3035 -1.8466  2.1532
  192SLPC  H14Y22307   2.151   2.646   8.489  0.8524 -0.5019 -0.2481
  192SLPC  C31522308   2.002   2.781   8.404 -0.7560 -0.2998  0.4553
  192SLPC  H15X22309   1.947   2.702   8.349  1.1084 -0.6406 -1.0211
  192SLPC  H15Y22310   1.995   2.877   8.348 -0.5820 -0.2708  0.4824
  192SLPC  C31622311   1.945   2.811   8.543 -0.0468 -0.1588  1.1667
  192SLPC  H16X22312   1.998   2.899   8.585 -0.8357  0.0786  1.7087
  192SLPC  H16Y22313   1.960   2.723   8.608 -0.7268 -0.6104  0.7296
  192SLPC  C31722314   1.797   2.840   8.538  0.1298 -0.2971  0.2621
  192SLPC  H17X22315   1.757   2.747   8.492 -1.1630 -0.3916  1.5009
  192SLPC  H17Y22316   1.768   2.916   8.463  1.2724  1.2752  1.3470
  192SLPC  C31822317   1.718   2.849   8.665 -0.5854  0.2828  0.2826
  192SLPC  H18X22318   1.609   2.851   8.645 -0.3578  0.2940 -1.0741
  192SLPC  H18Y22319   1.752   2.944   8.712 -2.9806  1.5819 -0.4888
  192SLPC  H18Z22320   1.738   2.758   8.726  3.1011  1.4073  1.0450
  193SOD    SOD22321   4.733   4.116   1.565  0.3331  0.0106  1.0686
  194SOD    SOD22322   1.729   2.988  11.445  0.1480 -0.0998 -0.3721
  195SOD    SOD22323   3.166   2.451  15.912 -0.3016 -0.3665 -0.2646
  196SOD    SOD22324   3.089   1.066  13.929 -0.0774  0.4194 -1.1552
  197SOD    SOD22325   0.875   2.267  11.671 -0.3848  0.1069  0.3072
  198SOD    SOD22326   3.778   1.257  10.768 -0.2102 -0.2781  0.1178
  199SOD    SOD22327   2.673   2.064   4.072  0.0152  0.7924 -0.1404
  200SOD    SOD22328   4.617   5.213   5.968 -0.0206  0.7776  0.3835
  201SOD    SOD22329   5.235   6.469   1.511 -0.3364  0.3517  0.7690
  202SOD    SOD22330   2.182   4.889   2.084 -0.1571  0.2294 -0.0199
  203SOD    SOD22331   3.673   0.518   3.084 -0.6161  0.2214  0.5438
  204SOD    SOD22332   2.855   3.253  11.373  0.1287 -0.0818  0.3120
  205SOD    SOD22333   3.016   5.625   2.777 -0.7044 -0.5663  0.3812
  206SOD    SOD22334   0.927   5.835  12.929 -0.1420 -0.7380  0.4537
  207SOD    SOD22335   5.541   4.401  12.447 -0.4970 -0.1815 -0.5387
  208SOD    SOD22336   4.490   3.969  15.964  0.4263  0.3551 -0.2694
  209SOD    SOD22337   5.608   1.262   2.004 -0.0563  0.2716  0.3828
  210SOD    SOD22338   3.333   6.484  11.290  0.7069 -0.2963  0.2505
  211SOD    SOD22339   1.081   5.156   5.292 -0.4567  0.4618 -0.1178
  212SOD    SOD22340   4.161   1.366   2.579 -0.1918  0.0749 -0.0650
  213SOD    SOD22341   2.363   2.483  17.164  0.2368  0.2383 -0.0226
  214SOD    SOD22342   5.600   3.325   3.237  0.3301  0.4704  0.0012
  215SOD    SOD22343   2.399   5.953   5.294  0.3582 -0.6494  0.4936
  216SOD    SOD22344   2.480   5.466  12.072 -0.3869  0.2385  0.0006
  217SOD    SOD22345   4.669   5.843   5.729  0.3047  0.0876 -0.0409
  218SOD    SOD22346   3.628   4.887  17.071 -0.3662 -0.4253 -0.1878
  219SOD    SOD22347   6.255   1.233   5.644  0.2007 -0.1345  0.4153
  220SOD    SOD22348   5.674   6.007  11.026  0.0998  0.2586  0.3556
  221SOD    SOD22349   0.051   1.556  11.655  0.5765 -0.0516  0.1989
  222SOD    SOD22350   1.339   2.448   5.072 -0.5543 -0.3157 -0.4988
  223SOD    SOD22351   0.102   4.309   6.106 -0.1246 -0.3830 -0.0037
  224SOD    SOD22352   0.153   0.660   5.684 -0.7464  0.5091  0.9166
  225SOD    SOD22353   6.606   4.346   2.754 -0.1368 -0.3693 -0.0817
  226SOD    SOD22354   1.139   1.755   5.270  0.2218 -0.2630 -0.0292
  227SOD    SOD22355   1.935   1.513   3.565  0.1723  0.5352  0.3227
  228SOD    SOD22356   4.492   0.908  15.041 -0.0337 -0.6819 -0.0199
  229SOD    SOD22357   4.970   2.742  12.706 -0.2954  0.5590 -0.2315
  230SOD    SOD22358   6.476   4.026  10.770  0.1175  0.0059  0.0759
  231SOD    SOD22359   1.575   3.734  13.458  0.3742  0.2866 -0.5891
  232SOD    SOD22360   1.086   6.460  11.035 -0.3377 -0.0587  0.1398
  233SOD    SOD22361   1.070   1.401  13.480 -0.2045  0.6311 -0.1566
  234SOD    SOD22362   0.197   3.033   5.554  0.7387 -0.7751 -0.0617
  235SOD    SOD22363   1.146   5.949   4.365  0.2442 -0.0237  0.7510
  236SOD    SOD22364   1.303   2.865   4.156 -0.1870 -0.2932  0.1726
  237SOD    SOD22365   2.957   2.340  11.439  0.2269 -0.2590  0.3836
  238SOD    SOD22366   0.171   0.618   2.607 -0.1248 -0.1546  0.1562
  239SOD    SOD22367   0.624   0.878  13.789  0.0084 -0.4424 -0.3123
  240SOD    SOD22368   0.177   2.227   5.450 -0.3247  0.0207  0.1010
  241SOD    SOD22369   2.905   6.737  16.065  0.3143  0.0778  0.1059
  242SOD    SOD22370   6.595   2.696   2.669  0.3058  0.5273  0.3979
  243SOD    SOD22371   2.612   3.868   5.762 -0.1416 -0.1958  0.8840
  244SOD    SOD22372   6.276   2.836   2.347  0.2244 -0.0701 -0.3019
  245SOD    SOD22373   6.646   2.340  17.496 -0.0257  0.6009 -0.3488
  246SOD    SOD22374   2.167   0.806   2.394  0.2849  0.0002 -0.3490
  247SOD    SOD22375   4.281   4.598  15.016 -0.1919 -0.3549  0.0290
  248SOD    SOD22376   2.117   5.163  14.754 -0.2410 -0.6385  0.2300
  249SOD    SOD22377   4.447   2.196   1.879  0.0551  0.1736  0.5835
  250SOD    SOD22378   2.723   2.269   2.397 -0.4374 -0.0254  0.0783
  251SOD    SOD22379   5.678   1.985  16.564  0.1979 -0.5075  0.3230
  252SOD    SOD22380   0.949   5.810   5.959 -0.2708  0.5000 -0.1974
  253SOD    SOD22381   2.255   0.817  11.129  0.3372 -0.2759 -0.5745
  254SOD    SOD22382   0.648   4.442   0.402  0.0055 -0.0798  0.6067
  255SOD    SOD22383   3.383   1.272   2.906 -0.0312  0.2847  0.0506
  256SOD    SOD22384   1.909   6.769  16.214 -0.1014  0.1395  0.0795
  257SOD    SOD22385   1.022   6.023  15.492 -0.3212 -0.1424 -0.0803
  258SOD    SOD22386   5.802   4.324   0.534 -0.3119 -0.0341 -0.1003
  259SOD    SOD22387   0.744   0.704   5.659 -0.2542  0.0474  0.0539
  260SOD    SOD22388   0.609   1.530  16.327 -0.4822 -0.1219  0.5618
  261SOD    SOD22389   6.214   3.304  14.876  0.1209  0.3957  0.4511
  262SOD    SOD22390   4.714   6.645  11.476 -0.6364  0.4023 -0.6968
  263SOD    SOD22391   1.109   3.092  14.702 -0.2070 -0.0202  0.3815
  264SOD    SOD22392   5.132   3.001  15.461 -0.1468  0.4268 -0.1675
  265SOD    SOD22393   0.483   5.714  15.529  0.8577 -0.5495 -0.4139
  266CLA    CLA22394   1.548   1.119   4.508  0.3862  0.2389 -0.2396
  267CLA    CLA22395   5.434   2.698  16.633 -0.5029 -0.0680  0.2902
  268CLA    CLA22396   3.838   1.409  15.505  0.3927 -0.2825 -0.0815
  269CLA    CLA22397   1.497   6.243   0.560  0.0366 -0.0219 -0.1731
  270CLA    CLA22398   6.618   0.830   3.363  0.1315  0.2908  0.3908
  271CLA    CLA22399   1.207   4.058   0.280 -0.0803 -0.0086  0.2252
  272CLA    CLA22400   6.104   6.320   5.169 -0.1141 -0.3805 -0.1742
  273CLA    CLA22401   0.123   3.682  15.211 -0.3006 -0.0370  0.3803
  274CLA    CLA22402   4.052   3.785  14.869  0.0486 -0.1234  0.1272
  275CLA    CLA22403   6.434   1.150  15.667 -0.2378  0.2950  0.4903
  276CLA    CLA22404   2.985   2.939  16.984  0.1067  0.0809  0.3757
  277CLA    CLA22405   3.489   0.873   2.621  0.1756 -0.2670  0.3792
  278CLA    CLA22406   1.022   0.345   3.338  0.0601 -0.0291  0.1413
  279CLA    CLA22407   1.037   1.242   3.265  0.1579 -0.2839 -0.3595
  280CLA    CLA22408   6.648   6.014   3.029  0.4493 -0.1497  0.5608
  281CLA    CLA22409   5.062   3.557  12.469  0.0471 -0.1152 -0.1847
  282CLA    CLA22410   3.443   5.845  11.963 -0.1428  0.0628 -0.1564
  283CLA    CLA22411   1.113   0.490  14.065  0.3490  0.1691 -0.3444
  284CLA    CLA22412   3.527   3.081   2.965  0.4148 -0.1242  0.2489
  285CLA    CLA22413   4.264   2.855   3.879  0.3212  0.0393  0.2621
  286CLA    CLA22414   3.677   5.260  17.324  0.0980  0.1059 -0.1672
  287CLA    CLA22415   5.526   5.050   2.435 -0.0841  0.2404 -0.0291
  288CLA    CLA22416   1.647   2.721   5.628  0.1532  0.5604  0.1536
  289CLA    CLA22417   4.107   5.352   0.431  0.3033 -0.2794 -0.2664
  290CLA    CLA22418   4.504   3.052   5.713  0.0886 -0.0706 -0.5699
  291CLA    CLA22419   4.638   4.774  16.699 -0.1036 -0.1944  0.0938
  292CLA    CLA22420   0.901   2.516  15.692  0.0774 -0.0400 -0.0679
  293CLA    CLA22421   2.977   4.018   2.409 -0.0302  0.1652  0.0799
  294CLA    CLA22422   4.018   4.949  14.628 -0.1498 -0.1827 -0.0134
  295CLA    CLA22423   6.725   3.371   1.880 -0.4789 -0.2624 -0.4499
  296CLA    CLA22424   1.605   4.137   4.413  0.1894 -0.0080 -0.1649
  297CLA    CLA22425   4.299   5.607   0.022  0.0445  0.3252 -0.2688
  298CLA    CLA22426   0.944   0.796  12.969 -0.1771  0.0417  0.2345
  299CLA    CLA22427   5.959   2.311   2.726 -0.0983  0.1132  0.0489
  300CLA    CLA22428   4.603   2.605   2.527  0.0490  0.3361  0.4872
  301CLA    CLA22429   1.136   3.288  15.968  0.0898 -0.1979 -0.0910
  302CLA    CLA22430   5.831   4.668   0.066  0.2670 -0.1974  0.0412
  303CLA    CLA22431   6.701   3.554   0.382 -0.0417 -0.3643  0.0266
  304CLA    CLA22432   5.285   4.371  15.128 -0.2638 -0.2288  0.5847
  305CLA    CLA22433   2.578   5.540   3.374 -0.1415  0.0804  0.0741
  306CLA    CLA22434   2.637   0.847   3.467  0.6297  0.0705 -0.0821
  307CLA    CLA22435   5.768   0.791  15.753  0.3041 -0.1619 -0.4258
  308CLA    CLA22436   6.723   4.052   0.178 -0.1133 -0.0692  0.0465
  309CLA    CLA22437   1.697   4.533  14.239 -0.4396 -0.2579 -0.1639
  310CLA    CLA22438   2.104   3.187   0.168 -0.1170  0.4280 -0.1144
  311CLA    CLA22439   0.578   0.385  14.927  0.3075  0.6782 -0.2159
  312CLA    CLA22440   4.497   3.229   3.320  0.0003  0.5051 -0.0508
  313CLA    CLA22441   6.566   2.912  13.161 -0.5543 -0.2065  0.0557
  314CLA    CLA22442   5.454   2.981   4.272 -0.1017  0.1576  0.2851
  315CLA    CLA22443   0.698   4.348   1.861 -0.1294 -0.0827 -0.0957
  316CLA    CLA22444   1.810   3.693  11.845  0.1178  0.5679  0.5322
  317CLA    CLA22445   1.505   1.971  13.764 -0.0128 -0.0437 -0.0708
  318CLA    CLA22446   2.560   3.634  15.182 -0.2223  0.2179  0.0377
  319TIP3   OH222447   5.435   5.935   5.696  0.4205 -0.0953 -0.3202
  319TIP3    H122448   5.408   6.013   5.648 -0.1660 -0.5684 -0.7756
  319TIP3    H222449   5.488   5.969   5.769 -0.0880  0.7415 -0.3253
  320TIP3   OH222450   1.374   4.710  17.150  0.1692 -0.2118  0.3121
  320TIP3    H122451   1.303   4.762  17.188  1.0373  1.2045  0.0602
  320TIP3    H222452   1.341   4.620  17.153 -1.2897  0.3018  0.9687
  321TIP3   OH222453   1.715   2.156  13.433 -0.1759 -0.6659 -0.5364
  321TIP3    H122454   1.774   2.103  13.486  1.0549  1.2337  0.1025
  321TIP3    H222455   1.718   2.117  13.346  0.7722 -1.5461 -0.1217
  322TIP3   OH222456   2.058   5.919   3.345 -0.1475 -0.1170  0.7668
  322TIP3    H122457   2.006   5.861   3.401 -0.3345  0.8196  1.5869
  322TIP3    H222458   2.021   6.006   3.360  1.6910  0.5923  1.4237
  323TIP3   OH222459   0.194   4.919  11.889 -0.0516  0.5706 -0.5043
  323TIP3    H122460   0.279   4.890  11.922 -0.8346  1.4344  2.5866
  323TIP3    H222461   0.212   4.951  11.801  2.7054  0.1588 -0.1743
  324TIP3   OH222462   1.271   4.018   2.077  0.5829 -0.1577 -0.2782
  324TIP3    H122463   1.250   3.963   2.152 -0.0698 -1.0372 -1.0734
  324TIP3    H222464   1.208   3.991   2.009  0.6516  1.1541 -0.8861
  325TIP3   OH222465   4.535   1.627  13.059 -0.2610 -0.3523  0.6918
  325TIP3    H122466   4.470   1.606  12.992  2.5375  2.0230 -3.2381
  325TIP3    H222467   4.579   1.544  13.077 -0.7759 -1.0250 -0.9409
  326TIP3   OH222468   4.076   3.304  14.061 -0.1732  0.2662 -0.1727
  326TIP3    H122469   4.029   3.318  14.143 -0.2530  1.1554 -0.3610
  326TIP3    H222470   4.104   3.392  14.034  0.8741 -0.1479 -0.4947
  327TIP3   OH222471   3.240   0.072  14.848  0.0161 -0.0286 -0.4335
  327TIP3    H122472   3.302   0.059  14.776  0.0062 -0.3058 -0.3958
  327TIP3    H222473   3.166   0.117  14.807  0.3653  0.5719 -0.4143
  328TIP3   OH222474   4.959   5.718  15.906 -0.0104  0.1420  0.1240
  328TIP3    H122475   4.915   5.751  15.827  1.5856  0.2753 -0.7482
  328TIP3    H222476   4.895   5.730  15.976 -1.2341  0.6119 -1.0361
  329TIP3   OH222477   4.221   2.659  12.780  0.5989  0.1131 -0.6298
  329TIP3    H122478   4.170   2.657  12.700  1.7510  0.2974 -1.3875
  329TIP3    H222479   4.216   2.570  12.814  0.7714 -0.1767 -1.3484
  330TIP3   OH222480   2.434   4.698   2.402  0.1328 -0.7294  0.0722
  330TIP3    H122481   2.417   4.790   2.384  1.1856 -0.5174  0.0576
  330TIP3    H222482   2.436   4.692   2.498  2.7533 -0.1411  0.1367
  331TIP3   OH222483   2.198   3.862  16.783 -0.2042  0.2994  0.0902
  331TIP3    H122484   2.156   3.915  16.850 -2.6496 -0.9178 -0.3539
  331TIP3    H222485   2.138   3.788  16.770  1.8104 -1.2234 -1.0964
  332TIP3   OH222486   6.037   5.046   4.183 -0.0021 -0.1052  0.0906
  332TIP3    H122487   6.089   5.109   4.132 -0.0686  0.1088  0.2849
  332TIP3    H222488   5.961   5.028   4.127  0.1855 -0.2692 -0.1098
  333TIP3   OH222489   5.708   3.534   1.843 -0.3889 -0.1144  0.5486
  333TIP3    H122490   5.614   3.538   1.857 -0.0158  0.9249  3.5282
  333TIP3    H222491   5.729   3.615   1.797 -0.9568 -0.6389 -0.6955
  334TIP3   OH222492   6.328   0.123   0.412 -0.5996 -0.2888  0.0259
  334TIP3    H122493   6.261   0.191   0.402 -2.0014 -1.5155  0.7357
  334TIP3    H222494   6.395   0.146   0.349 -0.5434  2.3250  0.9118
  335TIP3   OH222495   0.025   2.020  13.091  0.2669  0.4016 -0.0410
  335TIP3    H122496  -0.054   2.073  13.104  2.0163  2.9050  1.3721
  335TIP3    H222497   0.077   2.035  13.170  1.4441 -2.5865 -0.1170
  336TIP3   OH222498   4.805   3.754   3.529 -0.7210 -0.5404 -0.2098
  336TIP3    H122499   4.715   3.786   3.520 -1.3436 -2.1497 -0.0262
  336TIP3    H222500   4.795   3.668   3.569  0.9517 -0.5125  0.3084
  337TIP3   OH222501   4.273   3.676   1.247  0.4683 -0.1939 -0.5998
  337TIP3    H122502   4.317   3.615   1.187  0.2828 -1.2766  0.3304
  337TIP3    H222503   4.263   3.626   1.329 -1.2810  0.4723 -0.3649
  338TIP3   OH222504   5.067   6.135  12.070  0.0581  0.3541  0.1442
  338TIP3    H122505   4.978   6.147  12.038 -0.0681  0.6529  0.5990
  338TIP3    H222506   5.122   6.137  11.991 -0.1754  1.7271 -0.0075
  339TIP3   OH222507   2.247   4.050  16.137 -0.4899 -0.0866 -0.0718
  339TIP3    H122508   2.323   4.097  16.172  1.3378  0.5328 -4.2157
  339TIP3    H222509   2.173   4.107  16.158  0.5332  0.6852  1.7339
  340TIP3   OH222510   0.525   3.429   3.636 -0.1932 -0.1226 -0.7155
  340TIP3    H122511   0.608   3.477   3.633 -0.5434  0.4593 -1.5716
  340TIP3    H222512   0.458   3.497   3.629 -0.7584 -0.5712  0.1278
  341TIP3   OH222513   6.746   5.976  13.182  0.2658 -0.6113 -0.2345
  341TIP3    H122514   6.717   5.963  13.092  0.4239 -2.0852 -0.0969
  341TIP3    H222515   6.754   5.887  13.218  2.1530 -0.1425  0.6105
  342TIP3   OH222516   1.490   1.327   4.258 -0.0900  0.2608 -0.8106
  342TIP3    H122517   1.475   1.296   4.348 -0.6186 -0.0192 -0.9895
  342TIP3    H222518   1.467   1.251   4.204 -0.3648  0.6296 -1.2088
  343TIP3   OH222519   4.080   3.064   3.999 -0.1022 -0.6044 -0.1078
  343TIP3    H122520   4.145   3.124   3.962  0.2168 -1.7080 -1.3883
  343TIP3    H222521   4.121   2.978   3.994 -1.5488 -1.2861 -0.6555
  344TIP3   OH222522   3.900   6.174  12.874  0.2712 -0.1435 -0.2279
  344TIP3    H122523   3.897   6.149  12.782  0.4826  0.3402 -0.3697
  344TIP3    H222524   3.853   6.104  12.920 -0.3218 -0.1101 -0.7646
  345TIP3   OH222525   1.255   1.811  15.445 -0.4046 -0.4406 -0.2035
  345TIP3    H122526   1.224   1.772  15.364 -0.5505 -1.9446  0.5458
  345TIP3    H222527   1.252   1.740  15.509  0.6165  0.4625  0.8966
  346TIP3   OH222528   0.702   1.370   3.791 -0.0655  0.3389  0.7619
  346TIP3    H122529   0.649   1.300   3.752  1.0091 -0.3317  0.4857
  346TIP3    H222530   0.637   1.430   3.829 -1.0157 -0.5464  0.5818
  347TIP3   OH222531   6.052   2.502   5.636  0.0367 -0.2223 -0.0329
  347TIP3    H122532   6.058   2.433   5.570  1.9697  1.1187 -1.3559
  347TIP3    H222533   6.069   2.458   5.719  0.9807 -1.3921 -0.8136
  348TIP3   OH222534   6.197   3.413  13.869 -0.6696 -0.1752 -0.1775
  348TIP3    H122535   6.200   3.486  13.808 -0.4489  0.7616  0.9122
  348TIP3    H222536   6.287   3.380  13.872 -0.4121  0.5664  0.5460
  349TIP3   OH222537   3.688   1.567  12.072  0.8384 -0.0428  0.3255
  349TIP3    H122538   3.750   1.550  12.001  1.0424  1.2795  0.1550
  349TIP3    H222539   3.632   1.490  12.075  1.0008 -0.2370 -1.0999
  350TIP3   OH222540   3.598   4.712  14.173 -0.1074 -0.1997  0.1324
  350TIP3    H122541   3.528   4.775  14.189  0.9104  1.7471 -2.4542
  350TIP3    H222542   3.656   4.722  14.248 -0.9697  0.4636  0.7368
  351TIP3   OH222543   2.831   0.250  15.606  0.0072  0.4183  0.0526
  351TIP3    H122544   2.768   0.289  15.666 -0.0948  0.1080  0.1528
  351TIP3    H222545   2.780   0.183  15.558  0.5791 -0.8482  1.1551
  352TIP3   OH222546   1.693   6.254   3.074  0.6124 -0.3184 -0.0092
  352TIP3    H122547   1.729   6.292   2.994  1.3586  0.2166  0.5668
  352TIP3    H222548   1.602   6.283   3.075  0.6165 -0.2602 -0.6141
  353TIP3   OH222549   5.276   4.552  14.597 -0.0361  0.0686 -0.0490
  353TIP3    H122550   5.330   4.585  14.669 -0.1000  0.5144 -0.2026
  353TIP3    H222551   5.249   4.464  14.626  1.2386 -0.3996 -0.2173
  354TIP3   OH222552   1.387   3.723  15.412  0.4967 -0.3083 -0.3852
  354TIP3    H122553   1.430   3.686  15.335 -0.4355  0.1530 -1.1543
  354TIP3    H222554   1.393   3.817  15.400  0.0768 -0.2338 -0.0477
  355TIP3   OH222555   1.083   3.962  11.078 -0.1343  0.6235 -1.0109
  355TIP3    H122556   1.021   3.892  11.059  2.8899 -2.3595 -0.8719
  355TIP3    H222557   1.056   4.034  11.021 -2.9862 -0.8975 -1.7559
  356TIP3   OH222558   0.962   5.092  14.930  0.2867  0.3333 -0.1235
  356TIP3    H122559   0.926   5.020  14.983 -1.0149 -1.2657 -2.9386
  356TIP3    H222560   0.977   5.163  14.993  1.2892 -2.2197  2.7564
  357TIP3   OH222561   5.792   5.401   0.662 -0.6736 -0.1612  0.0694
  357TIP3    H122562   5.810   5.491   0.688  0.5734 -0.2925 -0.2698
  357TIP3    H222563   5.852   5.348   0.715  0.3184 -0.5946 -1.4123
  358TIP3   OH222564   4.600   5.319  10.674  0.0310 -0.0864 -0.0516
  358TIP3    H122565   4.562   5.288  10.756 -0.9657 -2.3904 -1.3030
  358TIP3    H222566   4.594   5.415  10.680 -1.0834 -0.2185  2.0405
  359TIP3   OH222567   5.342   3.336  13.588 -0.0529 -0.0425 -0.2732
  359TIP3    H122568   5.278   3.392  13.632 -0.3587 -1.2441  0.8700
  359TIP3    H222569   5.424   3.351  13.634 -0.4385 -1.5264  0.9883
  360TIP3   OH222570   1.023   6.274   3.305  0.2715 -0.2984 -0.1682
  360TIP3    H122571   1.112   6.302   3.284  0.6692 -1.1824  0.3008
  360TIP3    H222572   1.004   6.313   3.390 -0.0036  0.3317 -0.5078
  361TIP3   OH222573   4.884   0.402   1.774  0.6567  0.9726  0.1047
  361TIP3    H122574   4.933   0.375   1.696  0.3826  0.5033  0.0914
  361TIP3    H222575   4.793   0.390   1.750  0.5715  0.8213  0.5016
  362TIP3   OH222576   6.631   1.202  11.928  0.0679  0.0970 -0.5690
  362TIP3    H122577   6.570   1.185  12.000  0.5487  0.7256  0.0085
  362TIP3    H222578   6.576   1.228  11.855 -0.3373  1.6925  0.2431
  363TIP3   OH222579   0.116   6.430   2.725 -0.0394  0.3472  0.2475
  363TIP3    H122580   0.211   6.427   2.737  0.2353 -0.3042 -1.7133
  363TIP3    H222581   0.081   6.375   2.794  1.1740 -1.0570 -0.2060
  364TIP3   OH222582   5.987   0.849  16.381 -0.8416 -0.2162  0.2603
  364TIP3    H122583   6.043   0.792  16.328 -0.8000 -0.3207  0.4161
  364TIP3    H222584   5.906   0.856  16.331 -0.1192  1.2436 -0.7804
  365TIP3   OH222585   6.344   5.631  10.593 -0.0383  0.1662  0.5361
  365TIP3    H122586   6.400   5.556  10.612  0.5752  0.8164  1.4036
  365TIP3    H222587   6.261   5.593  10.567  0.5921 -0.8176 -0.1138
  366TIP3   OH222588   4.449   1.084   1.987  0.0113  0.4529  0.4328
  366TIP3    H122589   4.521   1.028   2.015  1.5278  1.7238 -0.7844
  366TIP3    H222590   4.489   1.168   1.967 -1.8697  1.3333  0.0947
  367TIP3   OH222591   0.075   2.066   5.852 -0.1762  0.1129 -0.6353
  367TIP3    H122592   0.001   2.058   5.792  0.1755  0.0435 -1.0656
  367TIP3    H222593   0.056   2.005   5.923 -1.6553  1.7350  0.4430
  368TIP3   OH222594   4.579   3.543  13.386  0.2272 -0.1445 -0.2884
  368TIP3    H122595   4.558   3.508  13.472  0.2620  1.3916  0.3778
  368TIP3    H222596   4.675   3.536  13.380  0.2505  0.0046 -0.0840
  369TIP3   OH222597   1.541   4.119  12.490 -0.3916  0.4040  0.1858
  369TIP3    H122598   1.562   4.187  12.553 -0.4924 -0.6044  1.3424
  369TIP3    H222599   1.450   4.095  12.509  0.3677 -1.7203  1.4725
  370TIP3   OH222600   3.127   5.841  11.613 -0.0445 -0.6332 -0.7582
  370TIP3    H122601   3.199   5.787  11.580  1.1420 -0.0397  0.7298
  370TIP3    H222602   3.106   5.804  11.699 -0.1808  0.3884 -0.3341
  371TIP3   OH222603   4.328   3.939   1.875  0.4340 -0.0656 -0.1591
  371TIP3    H122604   4.322   3.883   1.798  1.1326  1.0654 -1.0836
  371TIP3    H222605   4.392   3.895   1.932  1.1579 -0.1113 -0.9768
  372TIP3   OH222606   0.779   1.230   5.375 -0.4390  0.3945 -0.3944
  372TIP3    H122607   0.702   1.228   5.433 -0.0242 -0.7178  0.1433
  372TIP3    H222608   0.852   1.253   5.433  0.1791 -1.8800 -0.1926
  373TIP3   OH222609   4.369   3.332   3.600  0.7439  0.1702  0.4393
  373TIP3    H122610   4.421   3.306   3.524  1.9287 -0.4530  1.4208
  373TIP3    H222611   4.367   3.428   3.596  0.1825  0.1246 -0.7478
  374TIP3   OH222612   2.421   5.703   4.710 -0.0411 -0.2447 -0.0824
  374TIP3    H122613   2.353   5.636   4.705 -2.6101  2.1261  0.0166
  374TIP3    H222614   2.419   5.746   4.625  2.0744 -0.7126 -0.4041
  375TIP3   OH222615   2.762   6.650   0.696 -0.4399 -0.1065 -0.5880
  375TIP3    H122616   2.785   6.735   0.658  1.2432  0.8158  2.1487
  375TIP3    H222617   2.708   6.672   0.772  1.1568 -1.3131  0.9842
  376TIP3   OH222618   0.662   5.570  11.959 -0.7473  0.4884 -0.3036
  376TIP3    H122619   0.653   5.522  12.042 -0.8046 -0.7442 -1.0074
  376TIP3    H222620   0.628   5.510  11.893  0.6483  0.8799 -1.4147
  377TIP3   OH222621   1.840   6.742  11.787  0.1145  0.2434 -0.0382
  377TIP3    H122622   1.786   6.800  11.841  0.7649 -0.4532  1.4160
  377TIP3    H222623   1.913   6.718  11.843  1.0549 -0.1810 -1.4026
  378TIP3   OH222624   5.430   4.375   6.007 -0.4479 -0.4359 -0.3796
  378TIP3    H122625   5.471   4.390   5.922  0.5388 -0.0253  0.1441
  378TIP3    H222626   5.414   4.280   6.009  1.1278 -0.7329 -0.3489
  379TIP3   OH222627   5.535   2.007   2.878 -0.0076 -0.6802 -0.0273
  379TIP3    H122628   5.562   2.009   2.969 -1.1146  0.2220  0.3137
  379TIP3    H222629   5.610   2.041   2.829  0.6505 -1.3361  0.5247
  380TIP3   OH222630   2.741   0.572   2.752  0.5766  0.1597 -0.1926
  380TIP3    H122631   2.668   0.631   2.771  0.0313  0.4642 -2.7975
  380TIP3    H222632   2.702   0.499   2.704  1.8952  0.1709 -1.3656
  381TIP3   OH222633   1.104   4.390  16.967 -0.1392 -0.3615  0.1418
  381TIP3    H122634   1.180   4.345  17.005 -0.3179 -0.3168  0.5628
  381TIP3    H222635   1.029   4.334  16.990 -0.1587 -0.7974 -0.9144
  382TIP3   OH222636   4.442   1.074   2.689  0.1218 -0.1548 -0.5103
  382TIP3    H122637   4.404   1.125   2.760 -1.2835 -0.1612 -1.2150
  382TIP3    H222638   4.447   0.985   2.723  1.5996  0.2300  0.3531
  383TIP3   OH222639   2.663   1.503  14.667  0.0330  0.5110  0.3216
  383TIP3    H122640   2.630   1.550  14.590 -0.6941  0.3571  0.5399
  383TIP3    H222641   2.650   1.411  14.646  1.8293  0.3512 -0.2776
  384TIP3   OH222642   6.663   1.384  12.700 -0.1956  0.0407 -0.4553
  384TIP3    H122643   6.749   1.383  12.741 -0.2855 -0.2690 -0.2731
  384TIP3    H222644   6.674   1.336  12.618 -0.3160 -0.4620 -0.1817
  385TIP3   OH222645   4.260   6.038   4.262  0.1315  0.1339  0.2456
  385TIP3    H122646   4.286   6.129   4.254 -0.6259  0.2891 -0.5074
  385TIP3    H222647   4.340   5.993   4.291  1.0364  0.7211 -1.2441
  386TIP3   OH222648   2.282   4.264  16.762 -0.2417 -0.4079 -0.4193
  386TIP3    H122649   2.265   4.212  16.841 -0.9866 -1.4096 -1.2066
  386TIP3    H222650   2.311   4.349  16.795 -2.1866 -0.2236  0.9747
  387TIP3   OH222651   6.088   4.997  11.519 -0.4446  0.2567  0.3160
  387TIP3    H122652   6.161   4.965  11.573 -0.5184  1.7166  1.3545
  387TIP3    H222653   6.126   5.069  11.468 -0.9121  0.3310  0.0698
  388TIP3   OH222654   6.269   0.367  12.655 -0.0528  0.1494 -0.0880
  388TIP3    H122655   6.279   0.273  12.666  0.0471  0.2818  1.0261
  388TIP3    H222656   6.185   0.387  12.696  0.4681  0.7093  0.7374
  389TIP3   OH222657   0.876   2.359  13.099 -0.4600 -0.0771  0.0229
  389TIP3    H122658   0.957   2.385  13.143 -0.4056  0.0853 -0.1734
  389TIP3    H222659   0.888   2.267  13.079 -0.3203 -0.0517 -0.0120
  390TIP3   OH222660   5.667   3.626  16.468  0.3454  0.7500  0.1861
  390TIP3    H122661   5.602   3.623  16.538 -0.3880 -3.0341 -0.4342
  390TIP3    H222662   5.630   3.572  16.399  3.1291  0.4243 -1.1891
  391TIP3   OH222663   5.513   1.161  15.648 -0.5264 -0.1782  0.7086
  391TIP3    H122664   5.561   1.193  15.572 -1.1412 -0.1493  0.3240
  391TIP3    H222665   5.429   1.131  15.612 -1.0627  0.4002  1.4617
  392TIP3   OH222666   2.138   6.576  13.816 -0.2294 -0.0152 -0.0537
  392TIP3    H122667   2.149   6.658  13.863 -1.1729  0.5081 -0.7216
  392TIP3    H222668   2.044   6.562  13.812 -0.0656 -1.5370  0.7086
  393TIP3   OH222669   2.035   3.109  16.629 -0.3825 -0.4337 -0.5529
  393TIP3    H122670   2.099   3.168  16.590  1.3347 -1.9029 -0.0972
  393TIP3    H222671   1.980   3.165  16.684 -0.1423  1.0154 -1.7467
  394TIP3   OH222672   3.618   0.586   2.259 -0.1710 -0.1337  0.0480
  394TIP3    H122673   3.653   0.671   2.284  0.5853 -0.9560  1.9880
  394TIP3    H222674   3.612   0.590   2.164  3.2715  0.8466 -0.2873
  395TIP3   OH222675   2.180   4.441   5.542  0.2356 -0.0774  0.2410
  395TIP3    H122676   2.239   4.369   5.520  0.8534  0.4555  0.1070
  395TIP3    H222677   2.170   4.489   5.459  0.5638  0.5061  0.5323
  396TIP3   OH222678   4.374   5.519  11.439 -0.4635 -0.5359  0.6420
  396TIP3    H122679   4.416   5.545  11.521  1.4547  1.6964 -0.9164
  396TIP3    H222680   4.281   5.509  11.461 -0.2756  1.6182  2.7366
  397TIP3   OH222681   1.075   1.431  11.523 -0.0650 -0.4358 -0.1495
  397TIP3    H122682   1.000   1.378  11.550 -0.4581 -0.5891 -1.4913
  397TIP3    H222683   1.113   1.463  11.606 -1.3832 -0.6538  0.5629
  398TIP3   OH222684   0.457   3.557  16.397 -0.5778 -0.5959  0.1329
  398TIP3    H122685   0.516   3.631  16.382 -2.9976  1.4487 -0.0631
  398TIP3    H222686   0.404   3.584  16.472 -2.2823 -1.5803 -0.6514
  399TIP3   OH222687   4.339   2.563   5.695  0.4199 -0.0626 -0.1070
  399TIP3    H122688   4.285   2.616   5.753 -0.7091  0.2549 -1.3899
  399TIP3    H222689   4.374   2.625   5.631  0.9415 -0.5278 -0.2865
  400TIP3   OH222690   4.316   6.746   3.724  0.5428  0.1754 -0.5747
  400TIP3    H122691   4.256   6.675   3.700  0.3327  0.6635 -1.5375
  400TIP3    H222692   4.383   6.702   3.777 -1.0939 -0.2116  1.2750
  401TIP3   OH222693   2.869   3.410   1.557  0.2753 -0.0223 -0.1486
  401TIP3    H122694   2.919   3.388   1.636  0.1250  2.5179  0.7371
  401TIP3    H222695   2.923   3.473   1.510 -0.4988 -0.0294 -1.0823
  402TIP3   OH222696   3.992   2.283  12.978  0.0240 -0.6809 -0.1953
  402TIP3    H122697   3.967   2.203  13.025  0.1246  0.0366  1.1400
  402TIP3    H222698   3.916   2.303  12.923 -0.2409 -1.3499 -0.0889
  403TIP3   OH222699   0.601   4.965   2.555  0.3881  0.0918  0.1370
  403TIP3    H122700   0.522   4.974   2.502  1.0195 -0.0248 -0.8721
  403TIP3    H222701   0.612   5.050   2.597 -0.2570  0.1152  0.2691
  404TIP3   OH222702   5.160   2.594   2.695 -0.2312 -0.0114  0.2393
  404TIP3    H122703   5.245   2.564   2.727 -0.2830 -0.1482  0.2480
  404TIP3    H222704   5.179   2.631   2.608  0.6756  4.2316  2.0167
  405TIP3   OH222705   2.744   0.442   0.253  0.6646  0.0166  0.1500
  405TIP3    H122706   2.685   0.378   0.293 -0.5593 -0.1351 -1.7535
  405TIP3    H222707   2.711   0.527   0.282  0.8112 -0.1264  0.7507
  406TIP3   OH222708   2.843   0.556  15.103  0.1833  0.4996  0.1028
  406TIP3    H122709   2.901   0.560  15.179  1.4113 -0.9153 -0.6997
  406TIP3    H222710   2.895   0.592  15.031 -0.1835 -0.1583 -0.5006
  407TIP3   OH222711   3.713   1.210  16.043  0.2790 -0.4876 -0.6909
  407TIP3    H122712   3.627   1.207  16.086 -0.9469 -0.0882 -2.9577
  407TIP3    H222713   3.775   1.185  16.112 -1.5242  0.2272  1.3072
  408TIP3   OH222714   6.033   3.583   1.672 -0.5521 -0.3799 -0.2716
  408TIP3    H122715   5.999   3.659   1.718  3.0864  1.1796  0.1790
  408TIP3    H222716   6.127   3.599   1.666  0.3722 -4.7237 -0.4331
  409TIP3   OH222717   0.435   5.459  13.971  0.3126  0.0226  0.1752
  409TIP3    H122718   0.456   5.465  13.878 -1.3279  0.3606 -0.2095
  409TIP3    H222719   0.464   5.543  14.007 -1.2487  0.9233 -0.5529
  410TIP3   OH222720   4.147   0.514   2.268 -0.2384  0.8356  0.0788
  410TIP3    H122721   4.108   0.593   2.229  1.4390  0.3667 -2.8394
  410TIP3    H222722   4.209   0.483   2.202 -0.2497 -2.5088  1.4597
  411TIP3   OH222723   5.345   5.236   5.186  0.0492 -0.3456  0.0885
  411TIP3    H122724   5.394   5.295   5.129  1.3630  0.2477  1.7393
  411TIP3    H222725   5.369   5.263   5.275 -2.0462 -1.1183  0.9563
  412TIP3   OH222726   4.391   4.249  16.352 -0.1845 -0.2802  0.0332
  412TIP3    H122727   4.324   4.275  16.289 -2.0801 -0.7902  1.7015
  412TIP3    H222728   4.451   4.323  16.357 -0.2548 -0.0416 -1.9479
  413TIP3   OH222729   1.945   4.241  15.355  0.0137  0.2047 -0.5855
  413TIP3    H122730   1.916   4.291  15.279 -0.9721 -0.2679 -0.5358
  413TIP3    H222731   1.939   4.149  15.327  0.4203  0.0587 -0.2046
  414TIP3   OH222732   2.925   2.946   4.963  0.0390 -0.1357 -0.4443
  414TIP3    H122733   2.918   2.900   4.879 -0.1611 -0.6216 -0.1680
  414TIP3    H222734   3.001   3.003   4.954 -0.2248  0.1182 -1.0992
  415TIP3   OH222735   5.633   1.867  12.104  0.0060 -0.3307 -0.2452
  415TIP3    H122736   5.683   1.790  12.077 -0.8510 -0.9324 -0.1569
  415TIP3    H222737   5.585   1.839  12.181  0.2289  0.5201  0.2221
  416TIP3   OH222738   3.592   2.257   5.312 -0.4473  0.4309  0.0645
  416TIP3    H122739   3.513   2.262   5.258 -0.2880 -0.6847 -0.2860
  416TIP3    H222740   3.560   2.265   5.402 -0.9626 -0.0129 -0.0754
  417TIP3   OH222741   1.056   2.705  16.993  0.5816 -0.5791 -0.6578
  417TIP3    H122742   0.966   2.674  17.007 -0.3347  1.4949 -1.4731
  417TIP3    H222743   1.058   2.789  17.039  2.4136 -0.9915  0.0777
  418TIP3   OH222744   5.085   6.075   4.932 -0.5187 -0.0457 -0.5271
  418TIP3    H122745   5.128   6.039   4.855  1.0170 -0.8373  0.6413
  418TIP3    H222746   5.152   6.130   4.973 -1.3993  0.5924  0.0867
  419TIP3   OH222747   0.430   6.500  13.104 -0.0736 -0.2545 -0.5814
  419TIP3    H122748   0.517   6.478  13.136 -0.4325 -0.0787  0.5287
  419TIP3    H222749   0.379   6.420  13.119 -0.6301  0.3253  0.7377
  420TIP3   OH222750   5.786   2.240   1.023 -0.2788  0.7731 -0.4236
  420TIP3    H122751   5.706   2.273   1.063  0.9844  0.8011  2.2971
  420TIP3    H222752   5.775   2.145   1.025  1.1457  0.5072  3.5390
  421TIP3   OH222753   6.390   1.860   3.873 -0.1183  0.0680  0.3159
  421TIP3    H122754   6.422   1.805   3.801 -1.0251  0.0037 -0.0487
  421TIP3    H222755   6.442   1.940   3.867 -0.1227  0.0236 -0.3602
  422TIP3   OH222756   6.626   0.509  11.683  0.1058  0.3291  0.5778
  422TIP3    H122757   6.544   0.504  11.633  0.8068 -0.1606 -0.5771
  422TIP3    H222758   6.610   0.576  11.748 -0.1950  2.5337 -1.6274
  423TIP3   OH222759   3.788   1.454  11.403  0.2981 -0.3877  0.2962
  423TIP3    H122760   3.706   1.485  11.365  0.7767 -0.1902 -0.5812
  423TIP3    H222761   3.763   1.419  11.489 -1.0973 -2.4529 -0.8622
  424TIP3   OH222762   0.679   5.646   3.045  0.0009 -0.2076 -0.4231
  424TIP3    H122763   0.747   5.709   3.024  0.1166  0.3035  1.2749
  424TIP3    H222764   0.597   5.693   3.031  0.0226 -0.4416 -1.3552
  425TIP3   OH222765   3.764   3.158   4.769 -0.2249  0.0475 -1.1193
  425TIP3    H122766   3.708   3.197   4.702 -0.8524  0.2235 -0.4984
  425TIP3    H222767   3.704   3.111   4.827  0.2044  0.6431 -0.1614
  426TIP3   OH222768   0.363   2.778  11.810 -0.1171  0.3974 -0.2261
  426TIP3    H122769   0.398   2.691  11.828 -2.0781 -0.4175 -0.1482
  426TIP3    H222770   0.278   2.780  11.853  0.1455  2.6068  0.3274
  427TIP3   OH222771   0.232   6.347  14.855 -0.1760 -0.7484 -0.6264
  427TIP3    H122772   0.144   6.337  14.819 -0.2198 -1.2678 -0.3704
  427TIP3    H222773   0.274   6.263  14.840  0.1254 -0.6543 -0.3263
  428TIP3   OH222774   3.244   2.794  11.835 -0.5884 -0.2963  0.2252
  428TIP3    H122775   3.331   2.787  11.874 -1.1189  0.1494  1.5494
  428TIP3    H222776   3.259   2.789  11.741  0.6758 -2.1162  0.4828
  429TIP3   OH222777   5.808   0.156  17.099  0.6061  0.3873 -0.4548
  429TIP3    H122778   5.713   0.153  17.089  0.4191 -0.4764  1.1852
  429TIP3    H222779   5.836   0.224  17.038 -1.1869  1.4708 -0.1644
  430TIP3   OH222780   2.718   1.818   5.763  0.3255  0.4482 -0.2555
  430TIP3    H122781   2.790   1.754   5.761 -0.1805 -0.2010  1.2218
  430TIP3    H222782   2.762   1.901   5.781  0.6489 -0.1681  2.2762
  431TIP3   OH222783   1.490   3.325   2.851 -0.2271 -0.0890  0.0699
  431TIP3    H122784   1.431   3.270   2.904 -0.7475 -0.0215 -0.4255
  431TIP3    H222785   1.570   3.332   2.903 -1.9305  2.9837  2.5803
  432TIP3   OH222786   3.315   1.107   5.998  0.0603 -0.2615 -0.2223
  432TIP3    H122787   3.349   1.191   6.029 -0.1007 -0.0753 -0.5470
  432TIP3    H222788   3.284   1.125   5.909 -1.1511 -0.3541  0.1661
  433TIP3   OH222789   0.563   6.079   3.232 -0.4037 -0.4153  0.2721
  433TIP3    H122790   0.592   6.091   3.142 -0.7643  1.3223  0.3558
  433TIP3    H222791   0.469   6.095   3.230 -0.3030  0.4125  1.0595
  434TIP3   OH222792   0.800   3.471   3.012 -0.2253 -0.1963  0.2918
  434TIP3    H122793   0.786   3.512   3.098 -0.1412  0.0185  0.2026
  434TIP3    H222794   0.735   3.510   2.955 -0.8860 -1.0042  0.4715
  435TIP3   OH222795   4.722   2.034   4.367 -0.0153 -0.2379  0.4108
  435TIP3    H122796   4.654   2.081   4.415 -1.6021 -1.3871 -0.5929
  435TIP3    H222797   4.774   1.990   4.434 -0.9893 -0.2639  1.1626
  436TIP3   OH222798   4.433   3.740  15.536 -0.1132  0.2864  0.0538
  436TIP3    H122799   4.482   3.690  15.470 -0.3462  0.1727 -0.0336
  436TIP3    H222800   4.354   3.769  15.490 -0.0886  0.5416  0.1712
  437TIP3   OH222801   5.696   2.128  11.325 -0.3865 -0.0882  0.3310
  437TIP3    H122802   5.688   2.162  11.414  0.4704  2.6806 -0.5534
  437TIP3    H222803   5.685   2.205  11.269  0.4425 -1.5160 -1.9236
  438TIP3   OH222804   1.897   2.777  14.561  0.1216  0.2685  0.3437
  438TIP3    H122805   1.887   2.863  14.601  3.6056  1.2867 -0.6404
  438TIP3    H222806   1.928   2.721  14.632  1.9379  0.9397  0.1160
  439TIP3   OH222807   1.907   4.576  12.949  0.2383 -0.3526 -0.2256
  439TIP3    H122808   1.929   4.633  13.023  0.0421 -0.3244 -0.1877
  439TIP3    H222809   1.937   4.489  12.976 -0.9990 -0.5994  0.4487
  440TIP3   OH222810   5.763   2.851  14.358 -0.5055 -0.2105  0.6352
  440TIP3    H122811   5.794   2.805  14.280  1.3044 -0.5901  1.5431
  440TIP3    H222812   5.842   2.882  14.402 -1.5453  1.1813  1.6354
  441TIP3   OH222813   0.060   2.414   6.222  0.0039 -0.1888 -0.1162
  441TIP3    H122814  -0.005   2.477   6.252 -0.5385 -0.5944 -0.4175
  441TIP3    H222815   0.046   2.408   6.127 -0.3397 -1.1855 -0.0117
  442TIP3   OH222816   3.694   6.035  13.664 -0.2110  0.0434 -0.7283
  442TIP3    H122817   3.743   6.002  13.739  2.4493 -1.2121 -2.8365
  442TIP3    H222818   3.687   6.129  13.680 -2.2490 -0.5185  2.3414
  443TIP3   OH222819   4.538   3.855   3.523 -0.4125  0.2584  0.1676
  443TIP3    H122820   4.473   3.904   3.474 -0.7153 -1.4664 -1.2717
  443TIP3    H222821   4.556   3.909   3.600 -2.4025  1.4903 -0.1568
  444TIP3   OH222822   0.081   6.289  13.436 -0.1154  0.0304  0.3757
  444TIP3    H122823   0.056   6.330  13.352 -0.6945 -0.1200  0.4700
  444TIP3    H222824   0.093   6.363  13.495  1.7538  0.2422 -0.1951
  445TIP3   OH222825   0.556   0.799  13.339 -0.4621 -0.2182 -0.6258
  445TIP3    H122826   0.635   0.812  13.288  1.0021 -0.6169  1.4171
  445TIP3    H222827   0.490   0.772  13.275  1.2460 -0.7053 -2.2641
  446TIP3   OH222828   4.117   1.859   3.470 -0.4310 -0.1563  0.4460
  446TIP3    H122829   4.176   1.871   3.397  0.1835  1.0643  1.1199
  446TIP3    H222830   4.170   1.877   3.548 -1.4162 -0.0485  1.1209
  447TIP3   OH222831   0.858   1.861   4.075 -0.1281  0.1208  0.0057
  447TIP3    H122832   0.812   1.827   4.151 -0.4174 -0.5124 -0.4412
  447TIP3    H222833   0.942   1.815   4.075  0.9607  2.0040  1.3881
  448TIP3   OH222834   1.743   3.671   1.155  0.1385  0.0102  0.6981
  448TIP3    H122835   1.698   3.655   1.072  1.7408  1.1036 -0.4259
  448TIP3    H222836   1.743   3.766   1.165  0.9333 -0.0519  1.3904
  449TIP3   OH222837   1.144   4.225   5.981  0.2505  0.0447 -0.3173
  449TIP3    H122838   1.086   4.156   5.950  0.4455  0.2448 -1.1384
  449TIP3    H222839   1.185   4.188   6.060 -2.4354  0.6123  1.4857
  450TIP3   OH222840   4.639   2.177  17.218 -0.1699 -0.4899  0.4180
  450TIP3    H122841   4.610   2.224  17.296  2.1289 -0.0013  1.0364
  450TIP3    H222842   4.733   2.164  17.230  0.3082 -0.2691 -2.3340
  451TIP3   OH222843   4.724   1.923  13.063  0.4964  0.2031  0.0556
  451TIP3    H122844   4.711   1.920  13.158 -0.7564  2.3786  0.0161
  451TIP3    H222845   4.776   2.002  13.049  2.6209 -1.2761 -0.9518
  452TIP3   OH222846   4.188   0.344  16.832  0.8312 -0.0040 -0.4830
  452TIP3    H122847   4.101   0.312  16.808  1.2921 -0.5717 -1.4519
  452TIP3    H222848   4.172   0.412  16.898 -0.3946  0.4784 -1.2541
  453TIP3   OH222849   3.342   0.215   0.351 -0.8173 -0.3423 -0.3899
  453TIP3    H122850   3.419   0.260   0.386 -1.6398  0.9364 -0.1922
  453TIP3    H222851   3.354   0.124   0.379 -1.0665  0.4443  2.6686
  454TIP3   OH222852   4.108   1.576   1.755 -0.3626  0.4850  0.0922
  454TIP3    H122853   4.049   1.617   1.691 -0.1296 -2.1689 -2.0228
  454TIP3    H222854   4.064   1.494   1.778  1.5773 -0.6545 -0.0690
  455TIP3   OH222855   0.109   3.292   0.532  0.5460  0.4549  0.8106
  455TIP3    H122856   0.113   3.264   0.440  0.2310 -1.5879  1.3662
  455TIP3    H222857   0.035   3.352   0.536  0.8112  0.8858 -0.3330
  456TIP3   OH222858   0.098   0.214  13.351 -0.3781 -0.3134 -0.1408
  456TIP3    H122859   0.178   0.190  13.398  1.2170  2.0259 -1.4592
  456TIP3    H222860   0.116   0.189  13.260 -1.6607 -0.8418 -0.2678
  457TIP3   OH222861   3.046   1.104  12.151 -0.4131 -0.4758  0.2605
  457TIP3    H122862   3.085   1.175  12.098  0.7491 -1.5526 -0.3876
  457TIP3    H222863   3.014   1.041  12.086 -0.9891 -0.7836  0.8384
  458TIP3   OH222864   0.821   1.871   0.192 -0.1340  0.7446 -0.1348
  458TIP3    H122865   0.823   1.848   0.099  0.9723  0.6904 -0.1136
  458TIP3    H222866   0.732   1.851   0.219  0.1229 -1.3975 -0.6534
  459TIP3   OH222867   5.915   0.292   1.589  0.2625 -0.1037  0.0150
  459TIP3    H122868   5.931   0.198   1.597  1.8349  0.1825  0.6217
  459TIP3    H222869   5.937   0.313   1.498  2.0309  0.0067  0.4276
  460TIP3   OH222870   6.466   4.980  17.273  0.2342 -0.2960 -0.0402
  460TIP3    H122871   6.553   4.993  17.309  0.0164 -0.3106  0.5058
  460TIP3    H222872   6.473   5.005  17.181  0.5673  0.6925  0.2510
  461TIP3   OH222873   2.783   6.279  12.869 -0.1245  0.1155  0.1075
  461TIP3    H122874   2.725   6.227  12.813 -0.5189 -1.1180  1.5939
  461TIP3    H222875   2.846   6.318  12.809  0.5227 -2.5346 -1.0645
  462TIP3   OH222876   5.853   3.377   0.436 -0.3114 -0.6803 -0.0779
  462TIP3    H122877   5.844   3.288   0.402 -3.5424 -1.1944  1.7279
  462TIP3    H222878   5.947   3.387   0.455  0.3400 -3.1299 -1.6351
  463TIP3   OH222879   5.482   0.226   0.402  0.4515  0.2338 -0.5392
  463TIP3    H122880   5.456   0.310   0.442  1.3928 -0.5839  2.0347
  463TIP3    H222881   5.566   0.245   0.359  0.7047  0.6200  0.1028
  464TIP3   OH222882   6.539   0.126  12.054 -0.2473 -0.1947  0.0744
  464TIP3    H122883   6.630   0.096  12.057  0.0033  0.5585  1.5288
  464TIP3    H222884   6.527   0.160  11.966  0.9700 -0.0916 -0.0657
  465TIP3   OH222885   6.454   3.761   4.214 -0.3884 -0.3351  0.3594
  465TIP3    H122886   6.541   3.770   4.254 -0.5243  0.1346  0.5593
  465TIP3    H222887   6.427   3.672   4.237 -0.3804 -0.1446  1.1560
  466TIP3   OH222888   6.107   6.191   6.389 -0.1434 -0.9187 -0.0607
  466TIP3    H122889   6.163   6.119   6.358  0.8592 -1.0199  1.8569
  466TIP3    H222890   6.039   6.149   6.440 -0.6284 -0.6114 -0.4404
  467TIP3   OH222891   1.967   3.459   3.425  0.0271 -0.5013  1.2562
  467TIP3    H122892   2.026   3.512   3.478 -0.5037  0.0786  1.2763
  467TIP3    H222893   1.985   3.487   3.335  0.2936 -0.8470  1.1987
  468TIP3   OH222894   2.336   3.304   5.190 -0.0997 -0.1559 -1.2879
  468TIP3    H122895   2.404   3.321   5.255  1.4768 -0.9047 -2.6778
  468TIP3    H222896   2.330   3.209   5.185 -1.8275 -0.1195 -0.6578
  469TIP3   OH222897   0.539   6.703  17.027 -0.7366  0.2475  0.1783
  469TIP3    H122898   0.593   6.625  17.038  0.1542  0.9251  0.8211
  469TIP3    H222899   0.574   6.745  16.948  0.0868  0.9697  0.8940
  470TIP3   OH222900   1.953   4.345   3.028  0.1654 -0.2478 -0.9330
  470TIP3    H122901   1.947   4.314   2.937 -1.3612  1.5450 -1.5189
  470TIP3    H222902   1.866   4.379   3.047  1.0503  1.4127  0.4278
  471TIP3   OH222903   6.576   6.435   0.036 -0.2265 -1.0986  0.3631
  471TIP3    H122904   6.577   6.432  -0.060  3.6125 -2.2881  0.2615
  471TIP3    H222905   6.495   6.482   0.058 -0.4105  0.7831 -3.4916
  472TIP3   OH222906   5.927   3.462  15.195 -0.3623 -0.4039  0.4982
  472TIP3    H122907   5.899   3.411  15.271  1.2752 -1.2718  0.5519
  472TIP3    H222908   5.949   3.548  15.231 -0.4418 -0.5305  0.8507
  473TIP3   OH222909   6.208   3.427   0.240 -0.2006  0.1481 -0.0603
  473TIP3    H122910   6.140   3.411   0.175  1.6085 -1.5899 -1.6611
  473TIP3    H222911   6.281   3.464   0.191  0.2011  1.6234  1.5422
  474TIP3   OH222912   1.956   5.734  12.326  0.1128 -0.3148 -0.1273
  474TIP3    H122913   1.888   5.740  12.393 -0.4934  0.0775 -0.7638
  474TIP3    H222914   1.909   5.711  12.246  0.6527  0.4670 -0.6925
  475TIP3   OH222915   2.631   4.481  12.969 -0.1884 -0.0538 -0.0373
  475TIP3    H122916   2.675   4.405  12.931 -0.3370 -0.9350  1.4506
  475TIP3    H222917   2.545   4.449  12.995 -2.4138  1.9303 -4.0031
  476TIP3   OH222918   0.905   1.558  13.444 -0.0089 -0.1406 -0.2173
  476TIP3    H122919   0.840   1.519  13.386  0.3873  0.1764 -0.8925
  476TIP3    H222920   0.855   1.615  13.502 -0.4388 -0.6427 -0.0829
  477TIP3   OH222921   0.296   6.108  13.875 -0.3559  0.1108  0.0602
  477TIP3    H122922   0.217   6.155  13.900 -1.5270 -1.5309 -0.4103
  477TIP3    H222923   0.329   6.071  13.957  0.8076  1.9883  0.5063
  478TIP3   OH222924   4.526   4.044  17.409  0.0132  0.1514 -0.1040
  478TIP3    H122925   4.566   3.956  17.412  1.9788  0.9768 -0.3154
  478TIP3    H222926   4.452   4.038  17.469  1.0934 -1.2120  1.2030
  479TIP3   OH222927   0.234   2.928  15.193  1.2785  0.5403  0.2403
  479TIP3    H122928   0.217   2.865  15.123  1.3402 -0.2216  0.8865
  479TIP3    H222929   0.308   2.980  15.162  1.6944 -0.1838 -0.0158
  480TIP3   OH222930   3.686   1.718   6.157 -0.0342  0.1502  0.4920
  480TIP3    H122931   3.767   1.694   6.200  0.1566  0.1040  0.1085
  480TIP3    H222932   3.657   1.798   6.202  1.0032  1.0269 -0.3405
  481TIP3   OH222933   4.411   6.741   5.844 -0.0450 -0.2059 -0.3216
  481TIP3    H122934   4.471   6.773   5.912 -0.0657  1.2930 -0.9744
  481TIP3    H222935   4.374   6.820   5.805 -2.0981 -1.0850 -0.2837
  482TIP3   OH222936   2.290   1.181  10.890  0.0773 -0.3234 -0.0227
  482TIP3    H122937   2.278   1.181  10.795 -0.0154 -1.2660 -0.0260
  482TIP3    H222938   2.254   1.264  10.919  1.9138  0.8937 -1.0136
  483TIP3   OH222939   1.855   2.128  14.981  0.3717 -0.1887  0.2316
  483TIP3    H122940   1.868   2.035  14.963  0.8521  0.1899 -1.4856
  483TIP3    H222941   1.906   2.143  15.061 -1.2665 -1.7729  1.6713
  484TIP3   OH222942   3.218   5.270   6.468  0.2796 -0.6190 -0.0797
  484TIP3    H122943   3.266   5.199   6.511  1.1924 -0.9987 -1.6475
  484TIP3    H222944   3.215   5.339   6.534  1.6823 -1.1452  0.5974
  485TIP3   OH222945   3.319   4.484   0.644 -0.1276  0.7053  0.9812
  485TIP3    H122946   3.361   4.565   0.618 -1.6715  1.5802  1.0986
  485TIP3    H222947   3.257   4.510   0.712  1.0403 -0.9426  2.7797
  486TIP3   OH222948   1.485   2.815   2.748 -0.1534 -0.1155 -0.1592
  486TIP3    H122949   1.530   2.874   2.810 -1.1608  0.1511  0.3441
  486TIP3    H222950   1.392   2.825   2.769 -0.4203 -1.0258 -0.8507
  487TIP3   OH222951   4.349   3.748   5.073  0.4610  0.2268 -0.2273
  487TIP3    H122952   4.289   3.688   5.028 -0.0447  1.5763 -1.4253
  487TIP3    H222953   4.434   3.705   5.068  0.0471 -0.5510 -0.7792
  488TIP3   OH222954   0.790   3.633  11.857 -0.7735 -0.1816  0.1114
  488TIP3    H122955   0.752   3.641  11.770 -0.2936  1.7679  0.0359
  488TIP3    H222956   0.715   3.624  11.916 -1.1461 -0.4514 -0.3980
  489TIP3   OH222957   0.370   5.627  16.983  0.6217  0.1779  0.2838
  489TIP3    H122958   0.385   5.547  16.934  0.0344  0.5099 -0.4634
  489TIP3    H222959   0.399   5.697  16.925 -0.5753  0.6085  0.1793
  490TIP3   OH222960   5.496   0.696   4.802 -0.2280  0.1695  0.0543
  490TIP3    H122961   5.541   0.646   4.870 -0.6521  1.1387  1.0696
  490TIP3    H222962   5.504   0.787   4.830 -1.4638  0.4849 -0.5611
  491TIP3   OH222963   5.427   0.460   2.015  0.6565  0.0899  0.0456
  491TIP3    H122964   5.464   0.544   1.987  0.9439 -0.6707 -2.0654
  491TIP3    H222965   5.483   0.432   2.087 -1.3191  3.1144  3.0743
  492TIP3   OH222966   3.127   2.608  17.492  0.6325 -0.2551  0.0983
  492TIP3    H122967   3.129   2.513  17.499  1.8320 -0.2346  0.3471
  492TIP3    H222968   3.054   2.627  17.434  0.9009 -1.3723 -0.6320
  493TIP3   OH222969   4.737   0.322  13.106 -0.4346  0.1975 -0.5722
  493TIP3    H122970   4.758   0.410  13.076 -0.8131  0.5876  0.2613
  493TIP3    H222971   4.762   0.265  13.034  0.4392  0.9284 -0.8664
  494TIP3   OH222972   2.253   3.081  14.904  0.0171  0.0608 -0.3776
  494TIP3    H122973   2.238   2.995  14.866 -0.4738 -0.3680  0.7367
  494TIP3    H222974   2.177   3.133  14.878 -0.6249 -0.4125  0.4861
  495TIP3   OH222975   0.896   4.589  17.330 -0.1147  0.6035  0.5211
  495TIP3    H122976   0.923   4.512  17.280  1.2990  1.6557 -0.4039
  495TIP3    H222977   0.839   4.554  17.399  0.5149 -1.2619  0.1479
  496TIP3   OH222978   1.506   5.833   6.381 -0.0358  0.0754  0.2336
  496TIP3    H122979   1.450   5.900   6.343 -1.0344 -0.5672  0.5499
  496TIP3    H222980   1.455   5.797   6.453  1.4327  0.5928  1.5760
  497TIP3   OH222981   5.355   2.564   5.470 -0.6582 -0.2402  0.5131
  497TIP3    H122982   5.417   2.514   5.417 -0.5470  1.3658 -0.9623
  497TIP3    H222983   5.402   2.645   5.491 -2.1312  0.9122 -0.4468
  498TIP3   OH222984   4.172   5.146  17.423  0.4454  0.2752  0.2329
  498TIP3    H122985   4.248   5.136  17.479  0.1285  0.9883  0.8109
  498TIP3    H222986   4.097   5.124  17.478  0.2399 -0.6931 -0.4081
  499TIP3   OH222987   2.715   6.168  15.171  0.7062 -0.7853 -0.2200
  499TIP3    H122988   2.735   6.112  15.096 -1.5708 -1.7042 -0.2193
  499TIP3    H222989   2.662   6.239  15.134  0.7674 -0.4646  0.3050
  500TIP3   OH222990   3.066   4.690   4.585 -0.0011 -0.5907 -0.1576
  500TIP3    H122991   3.030   4.606   4.613  1.0533 -1.0921 -0.2398
  500TIP3    H222992   2.992   4.751   4.588 -0.9401 -1.6661 -0.7324
  501TIP3   OH222993   3.935   5.163   0.660 -0.1757 -0.5921 -0.7346
  501TIP3    H122994   3.954   5.218   0.584 -1.5302  0.9255 -0.0265
  501TIP3    H222995   4.012   5.171   0.716 -0.4066  0.7033 -0.5870
  502TIP3   OH222996   2.937   1.280   4.001 -0.5109 -0.6609  0.2317
  502TIP3    H122997   2.921   1.362   4.048 -0.7377 -0.1215 -0.7541
  502TIP3    H222998   3.026   1.256   4.025 -0.6060 -0.3743  0.8972
  503TIP3   OH222999   5.173   3.598  14.604 -0.2182 -0.2296  0.1674
  503TIP3    H123000   5.110   3.576  14.536  0.1311  1.6905 -0.8191
  503TIP3    H223001   5.125   3.656  14.664  0.5382  1.1346 -0.5178
  504TIP3   OH223002   2.238   1.498   1.629  0.3827  0.3386 -0.4432
  504TIP3    H123003   2.187   1.524   1.705 -0.4259  0.9087 -1.1672
  504TIP3    H223004   2.302   1.568   1.618  0.5275  0.2347 -0.2662
  505TIP3   OH223005   0.877   1.604   3.631 -0.2090  0.1365 -0.7444
  505TIP3    H123006   0.915   1.527   3.673 -0.3020  0.8911  0.7580
  505TIP3    H223007   0.845   1.658   3.703  0.4952  1.9340 -1.7241
  506TIP3   OH223008   4.802   1.013   3.100 -0.1020 -0.6122  0.1085
  506TIP3    H123009   4.796   1.097   3.146  0.4748  0.9251 -2.4087
  506TIP3    H223010   4.846   0.955   3.162 -1.1787  0.6749  2.2116
  507TIP3   OH223011   5.681   5.847   3.888  0.4628  0.3086  0.0624
  507TIP3    H123012   5.666   5.904   3.812  1.6354 -0.2343 -0.6066
  507TIP3    H223013   5.775   5.851   3.902  0.4077 -0.5729  0.7318
  508TIP3   OH223014   3.354   3.300  14.689 -0.0666 -0.1875 -0.6677
  508TIP3    H123015   3.429   3.339  14.733  0.1472 -0.2359 -0.9875
  508TIP3    H223016   3.353   3.341  14.602 -0.2768 -0.3487 -0.7420
  509TIP3   OH223017   4.913   4.187   1.436 -0.1133 -0.1421  0.6163
  509TIP3    H123018   4.977   4.203   1.506  0.0152 -0.1454  0.4990
  509TIP3    H223019   4.909   4.269   1.388  0.2964 -0.3500  0.2188
  510TIP3   OH223020   2.023   4.372  15.751 -0.3459  0.2340 -0.2604
  510TIP3    H123021   2.075   4.395  15.674  0.0875  3.1314  0.7733
  510TIP3    H223022   2.087   4.352  15.818 -0.5207  1.9052  0.4675
  511TIP3   OH223023   0.297   5.510   0.373  0.4039  0.3198  0.1274
  511TIP3    H123024   0.321   5.596   0.408  0.3111 -0.1319  1.3592
  511TIP3    H223025   0.212   5.491   0.412  0.7260 -0.6128  0.3996
  512TIP3   OH223026   2.357   4.510  12.710  0.1820 -0.2208 -0.0087
  512TIP3    H123027   2.321   4.427  12.741 -0.9920  0.8298  1.6931
  512TIP3    H223028   2.288   4.547  12.655  0.9454 -0.6048 -1.2688
  513TIP3   OH223029   4.921   2.231  16.024  0.2147  0.2381 -0.3684
  513TIP3    H123030   4.863   2.157  16.041  0.9039  0.2354  2.4483
  513TIP3    H223031   5.001   2.191  15.988  0.7204 -0.5030  1.4663
  514TIP3   OH223032   1.999   4.039   1.043  0.1345  0.1251 -0.5480
  514TIP3    H123033   1.923   3.988   1.072 -0.0713  0.8303  0.1667
  514TIP3    H223034   1.962   4.115   0.999  0.4452 -0.1815 -1.3774
  515TIP3   OH223035   1.571   5.135   2.305 -0.5014  0.5192 -0.1396
  515TIP3    H123036   1.486   5.104   2.272 -0.0946  0.0692 -0.7735
  515TIP3    H223037   1.553   5.225   2.333 -0.9334  0.8284 -1.3368
  516TIP3   OH223038   1.163   1.053  13.596  0.0483  0.1045  0.5633
  516TIP3    H123039   1.103   0.983  13.572  0.6663 -0.1126 -0.4321
  516TIP3    H223040   1.246   1.028  13.554  1.0609 -0.0158  2.5410
  517TIP3   OH223041   6.145   1.550  15.772  0.1425 -0.1152  0.5481
  517TIP3    H123042   6.235   1.573  15.794 -0.2455  1.2109  0.8876
  517TIP3    H223043   6.152   1.498  15.692  1.0874  2.0936 -0.9036
  518TIP3   OH223044   1.958   1.919   3.338 -0.0461 -0.0940 -0.1703
  518TIP3    H123045   1.880   1.975   3.342 -0.2911 -0.5000  1.9199
  518TIP3    H223046   1.993   1.934   3.250 -2.1407  0.5402 -0.9753
  519TIP3   OH223047   5.928   2.141   0.415  0.7631  0.3770 -0.0036
  519TIP3    H123048   5.840   2.165   0.385  0.5751 -1.0586 -0.6952
  519TIP3    H223049   5.956   2.215   0.469 -0.7924  0.9424  0.0812
  520TIP3   OH223050   5.599   4.211   0.498 -0.0460  0.5483 -0.7495
  520TIP3    H123051   5.533   4.249   0.440  0.2010 -2.3610 -3.1921
  520TIP3    H223052   5.561   4.220   0.586 -2.0586  2.0553 -1.6780
  521TIP3   OH223053   0.364   2.341  16.492 -0.5406 -0.1350  0.0073
  521TIP3    H123054   0.276   2.348  16.456 -1.0126  0.1505  1.1609
  521TIP3    H223055   0.398   2.430  16.489  0.0028 -0.3674 -1.1146
  522TIP3   OH223056   4.443   0.676   1.914  0.2065 -0.1174  0.1184
  522TIP3    H123057   4.383   0.732   1.962  0.0129 -0.3242  0.1200
  522TIP3    H223058   4.386   0.623   1.858  0.0823 -2.6141  2.4217
  523TIP3   OH223059   6.639   2.462  11.430  0.3823  0.0646  0.3345
  523TIP3    H123060   6.698   2.421  11.493 -1.5802 -1.2155  1.4596
  523TIP3    H223061   6.576   2.393  11.408 -1.4831  1.7009  0.2630
  524TIP3   OH223062   4.727   1.374  15.622 -0.3217 -0.6513  0.4547
  524TIP3    H123063   4.754   1.427  15.697 -0.5588 -0.4663  0.4111
  524TIP3    H223064   4.675   1.303  15.660 -1.6109  0.2097  0.3580
  525TIP3   OH223065   3.104   1.383   3.263  0.5025 -0.2638 -0.1125
  525TIP3    H123066   3.143   1.459   3.306  0.6054 -1.0670  1.3204
  525TIP3    H223067   3.009   1.399   3.265  0.6155  0.7648 -1.7506
  526TIP3   OH223068   1.920   0.602   1.830 -0.3694  0.2947  0.5270
  526TIP3    H123069   1.825   0.610   1.821 -0.2092  1.1801 -0.5824
  526TIP3    H223070   1.938   0.510   1.812 -0.8561  0.4777 -0.9867
  527TIP3   OH223071   4.541   6.160  12.470  0.1292  0.2213 -0.0052
  527TIP3    H123072   4.552   6.254  12.483 -0.6315  0.9406 -3.4763
  527TIP3    H223073   4.626   6.122  12.495  2.3229  2.5468 -3.0566
  528TIP3   OH223074   4.286   2.288   2.040  0.0052  0.4617 -0.4477
  528TIP3    H123075   4.247   2.333   2.115  0.7544  0.2654  0.0719
  528TIP3    H223076   4.257   2.197   2.050 -0.8098  0.6424 -1.0282
  529TIP3   OH223077   6.203   1.742   5.061 -0.4145  0.4281 -0.3296
  529TIP3    H123078   6.196   1.822   5.008  1.9793  1.8142  1.3034
  529TIP3    H223079   6.296   1.721   5.061 -0.9159 -2.0717 -0.2047
  530TIP3   OH223080   6.539   1.995  12.216  0.2810 -0.0247 -0.2460
  530TIP3    H123081   6.487   2.062  12.261 -0.6039  2.3765 -4.3293
  530TIP3    H223082   6.477   1.923  12.201  0.2028 -0.2492  1.0679
  531TIP3   OH223083   2.913   4.866   6.310  0.0469 -0.2187 -0.0100
  531TIP3    H123084   2.991   4.867   6.365  0.1841  0.3850 -0.2046
  531TIP3    H223085   2.883   4.957   6.308  0.5103 -0.0603 -1.5795
  532TIP3   OH223086   3.137   2.938  11.305  0.1354 -0.6446  0.1713
  532TIP3    H123087   3.078   2.970  11.373  0.0406 -1.8692  0.7009
  532TIP3    H223088   3.154   2.847  11.329  0.8010 -0.8449 -0.9680
  533TIP3   OH223089   1.022   4.444   2.028  0.1171  0.0912 -0.0160
  533TIP3    H123090   1.045   4.352   2.020  1.3493  0.5178 -2.5305
  533TIP3    H223091   0.927   4.444   2.043 -0.1116 -1.5912 -1.1490
  534TIP3   OH223092   0.612   1.613  15.408 -0.1483 -0.2283  0.6305
  534TIP3    H123093   0.594   1.695  15.454 -1.5340 -0.1199 -0.0529
  534TIP3    H223094   0.591   1.631  15.317  2.3025 -0.5226 -0.0764
  535TIP3   OH223095   0.291   1.581   4.731 -0.3081 -0.2862  0.0773
  535TIP3    H123096   0.277   1.489   4.756  0.0411 -0.5471 -0.6577
  535TIP3    H223097   0.208   1.624   4.750 -0.3783 -0.6860  0.7247
  536TIP3   OH223098   5.177   0.358  16.715  0.0825  0.2807  0.1199
  536TIP3    H123099   5.195   0.309  16.635  0.6447  0.5893  0.0578
  536TIP3    H223100   5.082   0.369  16.715 -0.1134 -1.2245  0.3785
  537TIP3   OH223101   0.607   2.690   4.248  0.1166 -0.2649  0.2539
  537TIP3    H123102   0.532   2.664   4.194 -0.0179 -2.0171  1.2055
  537TIP3    H223103   0.571   2.704   4.335  0.5991  0.9028  0.2854
  538TIP3   OH223104   0.416   2.847   4.787 -0.4693 -0.0671 -0.4280
  538TIP3    H123105   0.379   2.931   4.813 -2.4007 -1.2767  1.0641
  538TIP3    H223106   0.510   2.856   4.804 -0.5967  1.8195 -0.4870
  539TIP3   OH223107   6.429   1.515  12.254 -0.5918  0.0852 -0.3865
  539TIP3    H123108   6.498   1.551  12.309 -0.5841  0.2728 -0.5200
  539TIP3    H223109   6.441   1.556  12.169 -0.7317 -0.0493 -0.4718
  540TIP3   OH223110   2.228   3.593   4.648  0.1197  0.3526  0.4433
  540TIP3    H123111   2.278   3.625   4.573  0.4977  0.5375  0.7673
  540TIP3    H223112   2.238   3.498   4.644 -1.4162  0.2129 -0.8044
  541TIP3   OH223113   5.888   0.670  11.405  0.1035  0.0007 -0.2277
  541TIP3    H123114   5.941   0.720  11.468 -1.0388 -0.3853  1.0965
  541TIP3    H223115   5.837   0.737  11.359  0.3970  0.2346 -0.2176
  542TIP3   OH223116   5.985   5.995  15.885 -0.0560  0.0763 -0.5271
  542TIP3    H123117   5.960   6.062  15.948  0.7987  0.9120 -1.0585
  542TIP3    H223118   6.044   5.937  15.934 -1.7736 -1.0577  0.2962
  543TIP3   OH223119   0.345   5.090  13.949  0.5272 -0.2422  0.2865
  543TIP3    H123120   0.329   5.130  13.863 -0.1539  1.7769  1.2875
  543TIP3    H223121   0.440   5.076  13.952  0.9017  1.9374  0.0947
  544TIP3   OH223122   1.716   2.655  15.110 -0.2871  0.0825 -0.3491
  544TIP3    H123123   1.705   2.641  15.204  0.4000  0.2951 -0.2313
  544TIP3    H223124   1.636   2.620  15.071 -1.5995  1.9487  0.4855
  545TIP3   OH223125   1.119   0.155  14.932  0.0476 -0.1298  0.0729
  545TIP3    H123126   1.169   0.206  14.868 -0.1694 -0.4440 -0.3548
  545TIP3    H223127   1.081   0.084  14.881 -1.9758  0.8629  0.0834
  546TIP3   OH223128   0.671   1.680  16.509 -0.0494 -0.2573  0.3547
  546TIP3    H123129   0.607   1.749  16.492  0.6641  0.1746 -0.7015
  546TIP3    H223130   0.745   1.726  16.549  0.4013 -0.4082 -0.2883
  547TIP3   OH223131   1.598   1.480  15.584  0.6865 -0.2056 -0.1002
  547TIP3    H123132   1.646   1.448  15.507 -0.2683 -0.8656 -0.4413
  547TIP3    H223133   1.510   1.443  15.575  0.8241 -1.1171  1.8316
  548TIP3   OH223134   2.483   4.978   2.325 -0.2185  0.3114 -0.7758
  548TIP3    H123135   2.420   5.041   2.290  0.8128  1.5643 -0.4433
  548TIP3    H223136   2.488   4.998   2.418 -2.0741 -2.2392 -0.0238
  549TIP3   OH223137   5.986   1.191  12.817  0.8338 -0.1794  0.2365
  549TIP3    H123138   6.011   1.233  12.899  0.9965  0.4889 -0.1426
  549TIP3    H223139   6.060   1.208  12.759  0.2687  0.2880 -0.3665
  550TIP3   OH223140   0.430   4.402  16.581 -0.4709  0.5262 -0.5636
  550TIP3    H123141   0.462   4.313  16.597  1.4334  1.0284 -1.2390
  550TIP3    H223142   0.339   4.391  16.554 -0.8153 -1.0562  1.0614
  551TIP3   OH223143   0.910   1.399   2.264  0.4492 -0.5608 -0.7269
  551TIP3    H123144   0.860   1.320   2.244 -0.4030 -0.0804 -0.5248
  551TIP3    H223145   0.983   1.368   2.318 -2.0009 -0.7720  2.7992
  552TIP3   OH223146   1.381   5.647  13.832 -0.2267  0.0079  0.6579
  552TIP3    H123147   1.457   5.595  13.805  0.9011  1.9181 -0.0569
  552TIP3    H223148   1.307   5.608  13.786  0.1067 -2.3890  1.9642
  553TIP3   OH223149   4.978   0.193  12.879 -0.4210  0.0039 -0.1231
  553TIP3    H123150   4.934   0.205  12.795  0.4106  0.6093 -0.4865
  553TIP3    H223151   4.953   0.105  12.908 -1.0537 -0.0390 -0.7982
  554TIP3   OH223152   2.745   5.345  15.207 -0.6394 -0.6107 -0.5419
  554TIP3    H123153   2.824   5.307  15.170 -0.1601 -3.0421  2.5605
  554TIP3    H223154   2.761   5.346  15.301 -3.4611  0.9489  0.0395
  555TIP3   OH223155   3.533   1.901   2.034 -0.2528  0.4082  0.2914
  555TIP3    H123156   3.439   1.921   2.031 -0.3094  0.0349 -0.9293
  555TIP3    H223157   3.539   1.827   2.095 -0.5636  1.2883  1.4385
  556TIP3   OH223158   0.422   4.904   1.200 -0.0471  0.0633  0.3719
  556TIP3    H123159   0.341   4.940   1.165 -0.6258 -2.5278 -1.2062
  556TIP3    H223160   0.423   4.813   1.170  2.6471 -0.4655  1.7522
  557TIP3   OH223161   5.897   3.788   5.841  0.3304 -0.1727  0.5361
  557TIP3    H123162   5.826   3.746   5.792 -1.3017  0.3929  2.2761
  557TIP3    H223163   5.895   3.879   5.813 -1.4687  0.4539  2.4366
  558TIP3   OH223164   3.280   1.725  14.863  0.0384 -0.2259  0.3709
  558TIP3    H123165   3.292   1.807  14.815  0.2203 -0.7758 -0.5554
  558TIP3    H223166   3.205   1.683  14.820 -0.9803  0.0854  1.7547
  559TIP3   OH223167   2.972   2.213  13.416 -0.0069  0.1444  0.5576
  559TIP3    H123168   2.923   2.202  13.497  0.7341 -0.2677  0.9628
  559TIP3    H223169   2.908   2.247  13.353 -0.7332 -0.1114  1.1452
  560TIP3   OH223170   6.216   5.366   4.452  0.4594 -0.4420 -0.0438
  560TIP3    H123171   6.224   5.405   4.540 -0.2658 -0.8414  0.2144
  560TIP3    H223172   6.138   5.310   4.459  1.1245 -1.4588 -0.5812
  561TIP3   OH223173   1.621   3.660  15.558 -0.0208  0.2604  0.0404
  561TIP3    H123174   1.665   3.740  15.529  0.7325  0.6366  2.0068
  561TIP3    H223175   1.539   3.659  15.510  0.6913  1.3109 -1.2730
  562TIP3   OH223176   0.202   5.741   6.217  0.5014  0.5483 -0.2548
  562TIP3    H123177   0.293   5.770   6.226  0.4063  1.6706 -2.2666
  562TIP3    H223178   0.151   5.822   6.223 -0.1229  0.3057 -1.8203
  563TIP3   OH223179   3.622   2.556   3.159 -0.2935  0.5756 -0.1079
  563TIP3    H123180   3.590   2.599   3.238  3.0263  0.7309  1.3371
  563TIP3    H223181   3.642   2.466   3.187 -0.2696  0.2557 -1.1200
  564TIP3   OH223182   3.756   3.106  14.983  0.2123 -0.0725  0.6174
  564TIP3    H123183   3.850   3.116  14.997  0.0874 -0.0585  1.4991
  564TIP3    H223184   3.715   3.144  15.061 -0.5353  0.1246  0.1478
  565TIP3   OH223185   2.127   1.392   3.560 -1.0465 -0.4918 -0.4116
  565TIP3    H123186   2.206   1.397   3.505 -0.8366 -0.6447 -0.1273
  565TIP3    H223187   2.136   1.309   3.606 -0.4525  0.3454  1.0221
  566TIP3   OH223188   2.096   1.307   6.469  0.0667 -0.7157  0.4871
  566TIP3    H123189   2.123   1.267   6.387  1.4608 -0.6199  0.8649
  566TIP3    H223190   2.149   1.387   6.474 -0.5636 -0.3369  1.1090
  567TIP3   OH223191   3.523   4.928   4.383  0.2494 -0.4385 -0.5103
  567TIP3    H123192   3.543   4.876   4.461 -1.6699 -1.0535 -0.3713
  567TIP3    H223193   3.466   4.872   4.331 -1.9315  1.4890 -0.3469
  568TIP3   OH223194   1.876   3.231   3.910  0.4665 -0.0516  0.8885
  568TIP3    H123195   1.867   3.148   3.956 -1.1565  0.1708  1.0653
  568TIP3    H223196   1.801   3.233   3.850  2.8024 -0.5930 -2.2869
  569TIP3   OH223197   3.287   1.597   1.990  0.4550 -0.3552  0.3291
  569TIP3    H123198   3.358   1.659   1.970 -0.3359  0.1925 -0.9090
  569TIP3    H223199   3.280   1.543   1.911 -0.7505 -0.1572  0.2914
  570TIP3   OH223200   3.064   1.722   5.841  0.2989  0.2750  0.3393
  570TIP3    H123201   3.027   1.654   5.785  2.5260 -0.9026  0.1776
  570TIP3    H223202   3.121   1.773   5.783  2.1474 -0.5692  1.3042
  571TIP3   OH223203   4.964   5.331   0.546 -0.1971 -0.3017  0.0433
  571TIP3    H123204   5.040   5.318   0.602  0.3246  1.6120 -0.1512
  571TIP3    H223205   5.000   5.343   0.459 -0.7444  0.3676 -0.0948
  572TIP3   OH223206   2.592   4.184   4.030  0.5334  0.0867  0.1816
  572TIP3    H123207   2.566   4.269   4.066  0.7978 -0.5102  1.8686
  572TIP3    H223208   2.670   4.202   3.979  0.6205  0.8550  0.5723
  573TIP3   OH223209   5.490   3.079  15.657 -0.1773  0.2322 -0.0838
  573TIP3    H123210   5.525   3.054  15.742 -1.0313 -0.3721  0.1031
  573TIP3    H223211   5.550   3.147  15.626  0.5982 -0.1001  0.6363
  574TIP3   OH223212   4.683   0.983   6.412 -0.3819  0.2653 -0.1647
  574TIP3    H123213   4.718   0.917   6.472  1.3431  0.4063 -0.9780
  574TIP3    H223214   4.600   0.945   6.381 -1.7870  0.5344  2.8556
  575TIP3   OH223215   0.744   2.939  15.149  0.2847  0.1280 -0.1327
  575TIP3    H123216   0.723   2.901  15.063 -2.1059 -0.3007  0.5674
  575TIP3    H223217   0.811   2.881  15.185  1.6456  0.5696 -1.8580
  576TIP3   OH223218   1.075   5.507   3.396 -0.1928 -0.2807  0.7827
  576TIP3    H123219   1.000   5.521   3.338  0.0628 -0.7976  0.3215
  576TIP3    H223220   1.106   5.595   3.417 -0.1049 -0.0953 -0.1047
  577TIP3   OH223221   6.531   1.709  16.320  0.0864  0.0173  0.0236
  577TIP3    H123222   6.570   1.627  16.350 -1.6547 -0.0659  2.3567
  577TIP3    H223223   6.487   1.744  16.398  0.4651  3.0035 -0.9627
  578TIP3   OH223224   4.372   3.973   6.956  0.0881 -0.3014  0.1629
  578TIP3    H123225   4.448   3.998   7.009  0.5636  0.0752 -0.6803
  578TIP3    H223226   4.300   4.025   6.992  0.2166 -0.6707  0.9768
  579TIP3   OH223227   6.178   3.153  13.054 -0.4576  0.0667 -0.3768
  579TIP3    H123228   6.221   3.237  13.038  0.0821 -0.2743 -0.7510
  579TIP3    H223229   6.156   3.155  13.148 -1.5478  1.1191 -0.6268
  580TIP3   OH223230   6.302   0.801   3.392 -0.1935 -0.0674 -0.0244
  580TIP3    H123231   6.269   0.856   3.322 -0.3437  0.7673  0.6837
  580TIP3    H223232   6.396   0.795   3.376 -0.4484 -1.2583 -1.2244
  581TIP3   OH223233   0.716   3.899   1.065  0.3301 -0.1064  0.1707
  581TIP3    H123234   0.732   3.805   1.055 -1.3299 -0.1635 -4.6091
  581TIP3    H223235   0.620   3.907   1.069  0.4685  1.3669  1.3274
  582TIP3   OH223236   5.868   1.329  13.606  0.6507 -0.0971 -0.0187
  582TIP3    H123237   5.953   1.311  13.648  0.6370 -2.0433 -0.7395
  582TIP3    H223238   5.804   1.308  13.674  0.6714  1.9221  0.7283
  583TIP3   OH223239   1.611   6.711   0.431  0.2036  0.0159  0.4177
  583TIP3    H123240   1.648   6.779   0.488  0.1627  1.1144 -0.8054
  583TIP3    H223241   1.530   6.750   0.398 -1.2364 -1.7046  1.7469
  584TIP3   OH223242   5.544   2.719   1.482 -0.4459  0.2665  0.1586
  584TIP3    H123243   5.609   2.655   1.454 -0.6194  1.1978 -2.6889
  584TIP3    H223244   5.593   2.783   1.533  0.1704 -0.7823  0.9381
  585TIP3   OH223245   2.841   0.936  17.349 -0.8739  0.7183  0.3364
  585TIP3    H123246   2.884   0.853  17.332 -1.0690  0.6152  0.3489
  585TIP3    H223247   2.861   0.990  17.273 -1.3100  0.4345  0.0160
  586TIP3   OH223248   2.222   3.503   0.341 -0.3673  0.4699 -0.3973
  586TIP3    H123249   2.307   3.506   0.296  0.4037 -1.4476  0.8280
  586TIP3    H223250   2.165   3.455   0.281  0.5472 -1.7236  0.4100
  587TIP3   OH223251   3.634   6.684  11.652  0.5993 -0.2099 -0.7811
  587TIP3    H123252   3.670   6.753  11.596 -0.2434  0.8323 -0.1053
  587TIP3    H223253   3.542   6.710  11.664  0.3175 -1.3724 -0.3649
  588TIP3   OH223254   3.128   4.313   5.066 -0.0897  0.1402  0.3671
  588TIP3    H123255   3.135   4.257   5.143 -1.9510 -0.3869  0.2096
  588TIP3    H223256   3.138   4.402   5.101  1.2786 -0.1803  0.8574
  589TIP3   OH223257   1.763   3.037  13.803  0.0585 -0.5420 -0.1980
  589TIP3    H123258   1.739   3.046  13.895 -0.0957 -0.3761 -0.2542
  589TIP3    H223259   1.789   3.125  13.776 -1.8710 -0.1336 -0.8640
  590TIP3   OH223260   1.915   0.734  16.529  0.0527  0.0150  0.3290
  590TIP3    H123261   1.855   0.808  16.533  0.3211  0.3201 -0.9603
  590TIP3    H223262   1.926   0.716  16.436  0.3499 -1.3591  0.6003
  591TIP3   OH223263   5.827   0.460   5.607 -0.3579 -0.1659 -0.2356
  591TIP3    H123264   5.847   0.427   5.694 -1.1296  0.7183  0.2922
  591TIP3    H223265   5.856   0.391   5.548 -0.1576 -0.9308  0.7363
  592TIP3   OH223266   1.829   2.389  14.337 -0.0967 -0.3518  0.2877
  592TIP3    H123267   1.883   2.432  14.271  0.9733  0.4278  1.6195
  592TIP3    H223268   1.743   2.430  14.327 -0.0243 -0.4218 -0.7682
  593TIP3   OH223269   0.725   4.592  14.426 -0.9503  0.0441  0.2894
  593TIP3    H123270   0.669   4.524  14.463 -1.0288 -1.0659 -1.7259
  593TIP3    H223271   0.686   4.612  14.341  0.9007  0.2533 -0.5635
  594TIP3   OH223272   3.685   0.427   3.810 -0.0725  0.5879  0.2346
  594TIP3    H123273   3.759   0.470   3.767 -0.3089  0.1747 -0.6030
  594TIP3    H223274   3.613   0.489   3.803 -1.3964 -1.0798 -3.9563
  595TIP3   OH223275   4.356   3.474  11.868  0.0071  0.4041  0.2866
  595TIP3    H123276   4.382   3.411  11.935  2.1765  0.0446 -0.7928
  595TIP3    H223277   4.273   3.510  11.899  0.6191 -0.1958  2.8319
  596TIP3   OH223278   4.714   6.012  14.186  0.2047  0.5308  0.0746
  596TIP3    H123279   4.650   6.078  14.210  1.0208  1.5573 -0.5260
  596TIP3    H223280   4.798   6.048  14.214  0.7639  0.1433 -1.0450
  597TIP3   OH223281   6.227   0.463   2.296  0.0402  0.0174  0.6205
  597TIP3    H123282   6.206   0.551   2.328  0.3619  0.0010  0.8740
  597TIP3    H223283   6.164   0.406   2.340  0.7810 -0.0676  1.6060
  598TIP3   OH223284   1.338   5.483  16.403  0.0173 -0.1551  0.5204
  598TIP3    H123285   1.273   5.552  16.416  0.3245  0.4694 -1.0478
  598TIP3    H223286   1.422   5.527  16.416  0.1809 -0.6419  1.1731
  599TIP3   OH223287   5.112   4.629   3.216 -0.2213 -0.0464 -0.4252
  599TIP3    H123288   5.147   4.546   3.185  0.6243  0.1671 -0.0552
  599TIP3    H223289   5.171   4.695   3.181  0.6565  0.2162  1.4466
  600TIP3   OH223290   3.356   6.337   1.531 -0.3683 -0.3557  0.1593
  600TIP3    H123291   3.319   6.392   1.461  0.8328  0.4316  0.0980
  600TIP3    H223292   3.281   6.303   1.578 -1.1949  2.2197  0.8595
  601TIP3   OH223293   1.961   2.992  16.946  0.4180  0.7605  0.1383
  601TIP3    H123294   1.939   2.950  17.029 -1.5762  0.0420 -0.6905
  601TIP3    H223295   2.027   2.935  16.907 -1.2457 -0.9836 -0.3338
  602TIP3   OH223296   3.823   5.033  17.142  0.7811 -0.0599 -0.3667
  602TIP3    H123297   3.814   5.098  17.212  1.8036  0.5421 -0.7601
  602TIP3    H223298   3.916   5.009  17.144  0.3570 -1.7959 -0.0083
  603TIP3   OH223299   3.060   4.955   3.933  0.2454  0.5134 -0.6488
  603TIP3    H123300   2.999   5.024   3.956 -0.1997  0.0887 -0.5379
  603TIP3    H223301   3.125   4.955   4.003 -0.0365  0.4904 -0.3834
  604TIP3   OH223302   3.934   0.545  14.807  0.3251  0.2063  0.5389
  604TIP3    H123303   3.959   0.562  14.897 -0.9285  1.3257  0.7146
  604TIP3    H223304   3.893   0.626  14.778 -0.2832 -0.5030 -0.6767
  605TIP3   OH223305   2.448   4.757   5.989  0.4259 -0.0457 -0.1562
  605TIP3    H123306   2.360   4.752   5.951  0.1821 -0.9371  0.4889
  605TIP3    H223307   2.460   4.849   6.009 -0.1395  0.1694 -0.7709
  606TIP3   OH223308   1.206   5.429  11.972  0.2671  0.4482  0.1536
  606TIP3    H123309   1.244   5.341  11.976  0.3645  0.5185  1.1425
  606TIP3    H223310   1.191   5.445  11.879  1.2794 -0.1764 -0.1329
  607TIP3   OH223311   2.375   2.404   2.043  0.2315  0.3036 -0.5300
  607TIP3    H123312   2.429   2.381   2.118 -0.3102 -1.1372 -0.5479
  607TIP3    H223313   2.360   2.321   1.998  1.2404  1.2464 -2.7346
  608TIP3   OH223314   4.745   5.977   6.125  0.1590 -0.4693  0.0178
  608TIP3    H123315   4.734   5.945   6.214  1.1236 -1.1414 -0.0909
  608TIP3    H223316   4.837   5.960   6.104 -0.3557 -1.5447 -1.5638
  609TIP3   OH223317   5.467   4.317  15.420  0.0960 -0.1113  0.3081
  609TIP3    H123318   5.407   4.337  15.349  2.4167  0.6418 -1.5680
  609TIP3    H223319   5.429   4.240  15.462 -2.3111  0.5185 -0.5349
  610TIP3   OH223320   2.078   5.191  16.993  0.7193 -0.0256 -0.3220
  610TIP3    H123321   2.028   5.235  16.923  1.5846  1.3578 -0.1198
  610TIP3    H223322   2.161   5.168  16.952  1.1831  0.6796  0.1824
  611TIP3   OH223323   1.660   5.168  12.593  0.5070 -0.3931  0.1661
  611TIP3    H123324   1.661   5.264  12.598  0.8546 -0.4034  0.3651
  611TIP3    H223325   1.739   5.147  12.542 -0.6039 -0.4900 -1.5833
  612TIP3   OH223326   6.645   0.698   2.304  0.4686 -0.2174 -0.8261
  612TIP3    H123327   6.687   0.633   2.247 -1.2283 -1.9353 -0.2385
  612TIP3    H223328   6.627   0.772   2.246 -0.2586 -1.4866 -2.3224
  613TIP3   OH223329   5.168   2.286  14.415  0.4822  0.5682 -0.0233
  613TIP3    H123330   5.134   2.290  14.504  3.6033  2.4740  1.2230
  613TIP3    H223331   5.210   2.200  14.409 -3.3946 -1.4848 -1.3305
  614TIP3   OH223332   2.445   4.583   1.268 -0.7286 -0.1068  0.1844
  614TIP3    H123333   2.371   4.579   1.207 -1.3015 -0.1519  0.8706
  614TIP3    H223334   2.450   4.495   1.305  1.0586 -0.7605 -1.4387
  615TIP3   OH223335   4.431   2.772   5.540 -0.2389 -0.2377  0.2134
  615TIP3    H123336   4.427   2.838   5.470  2.2423 -0.1135  0.1099
  615TIP3    H223337   4.483   2.813   5.609  1.7426 -2.1771 -0.0227
  616TIP3   OH223338   3.966   3.065  13.206 -0.8440  0.1181 -0.2966
  616TIP3    H123339   4.007   3.151  13.215 -1.0966  0.2985 -0.8043
  616TIP3    H223340   3.988   3.036  13.117 -0.0452 -0.7304  0.1653
  617TIP3   OH223341   3.096   6.340   4.962 -0.0006  0.4995  0.7358
  617TIP3    H123342   3.077   6.266   4.903  0.3675 -0.5588  1.9078
  617TIP3    H223343   3.036   6.328   5.036  0.0701  1.3860  0.9441
  618TIP3   OH223344   2.136   3.557   5.922 -0.0465  0.2894  0.7732
  618TIP3    H123345   2.204   3.489   5.920 -0.2900  0.0350  1.0163
  618TIP3    H223346   2.078   3.535   5.850  1.4896  1.9602 -1.1054
  619TIP3   OH223347   4.716   5.916  13.559  0.0239  0.1041  0.2554
  619TIP3    H123348   4.622   5.910  13.539 -0.3149  0.1941  1.7123
  619TIP3    H223349   4.721   5.974  13.635  1.1531 -0.8509  0.9412
  620TIP3   OH223350   6.771   4.548   2.854  0.2646 -0.4249  0.3767
  620TIP3    H123351   6.769   4.580   2.944  0.6240  0.1855  0.1693
  620TIP3    H223352   6.864   4.531   2.836  0.5874  2.0338 -0.7606
  621TIP3   OH223353   3.887   4.303  11.446 -0.0393  0.6210  0.0851
  621TIP3    H123354   3.914   4.284  11.356 -1.7391 -0.3461 -0.2706
  621TIP3    H223355   3.905   4.222  11.493  1.0089  1.1833  0.6944
  622TIP3   OH223356   0.774   0.681  12.742 -0.2662  0.4365  0.2543
  622TIP3    H123357   0.816   0.701  12.826 -1.8246  1.4953  0.8238
  622TIP3    H223358   0.828   0.612  12.704  1.6446  1.3457  1.1999
  623TIP3   OH223359   1.395   4.824  13.672  0.1255  0.1234 -0.5097
  623TIP3    H123360   1.319   4.818  13.730  1.8302 -1.0148  1.7508
  623TIP3    H223361   1.470   4.817  13.730  1.9876 -3.1912 -2.9477
  624TIP3   OH223362   1.351   1.364  12.010  0.3794 -0.2708 -0.0268
  624TIP3    H123363   1.312   1.442  12.049 -0.5001 -0.8270  0.2332
  624TIP3    H223364   1.441   1.390  11.989  0.3350  0.5720  0.7567
  625TIP3   OH223365   4.710   4.427  12.810 -0.4614 -0.5982 -0.1299
  625TIP3    H123366   4.664   4.510  12.824 -0.6093 -0.8744  1.1371
  625TIP3    H223367   4.646   4.361  12.837  0.1040 -1.0623  0.0757
  626TIP3   OH223368   6.612   2.653  11.211 -0.4014  0.3935  0.0814
  626TIP3    H123369   6.637   2.615  11.126 -1.3287 -1.1940  0.4753
  626TIP3    H223370   6.631   2.584  11.274 -1.8751  0.6915  0.8793
  627TIP3   OH223371   6.114   2.381   1.661 -0.2171 -0.1649 -0.1216
  627TIP3    H123372   6.127   2.472   1.637 -0.4462 -0.1459 -0.1751
  627TIP3    H223373   6.147   2.331   1.587  0.8527 -0.1545  0.3262
  628TIP3   OH223374   5.492   5.650   2.880 -0.1913 -0.4880 -0.3814
  628TIP3    H123375   5.418   5.589   2.869 -1.3399  0.6223  0.7615
  628TIP3    H223376   5.466   5.727   2.830  1.7518 -1.2457 -2.7498
  629TIP3   OH223377   1.844   2.659  11.127  0.5991  0.4300  0.1841
  629TIP3    H123378   1.830   2.727  11.062  0.0205  0.2492  0.1144
  629TIP3    H223379   1.803   2.581  11.089  1.1433  0.0751  0.3163
  630TIP3   OH223380   1.045   3.567   4.488 -0.1741  0.0908 -0.2264
  630TIP3    H123381   1.084   3.655   4.483 -1.1882  0.7102  1.6212
  630TIP3    H223382   1.075   3.534   4.573 -0.8158 -0.8453 -0.3593
  631TIP3   OH223383   5.345   4.948   4.492  0.0021 -0.2159 -0.2074
  631TIP3    H123384   5.433   4.939   4.527  0.1467  1.5933  0.0164
  631TIP3    H223385   5.345   5.034   4.449 -1.3344 -0.6511 -1.1541
  632TIP3   OH223386   0.922   5.185   4.733 -0.3438 -0.3918  0.1638
  632TIP3    H123387   0.899   5.140   4.814  0.6080 -0.4951  0.3881
  632TIP3    H223388   0.967   5.119   4.680  2.0343  0.5057  0.9303
  633TIP3   OH223389   2.196   1.202   4.454  0.3631 -0.1291 -0.1424
  633TIP3    H123390   2.264   1.211   4.388 -1.1564 -2.4375 -2.1767
  633TIP3    H223391   2.123   1.254   4.421 -0.1521 -0.6986  0.0783
  634TIP3   OH223392   5.186   1.486  15.195 -0.1583  0.3046  0.1338
  634TIP3    H123393   5.181   1.458  15.287  2.7169 -1.4583 -0.1266
  634TIP3    H223394   5.248   1.559  15.195 -1.6383  1.6193 -0.2264
  635TIP3   OH223395   4.616   6.562   5.688  0.0359 -0.3518  0.4649
  635TIP3    H123396   4.571   6.643   5.711  1.7036  0.5123  0.8499
  635TIP3    H223397   4.686   6.553   5.754  2.8238  0.4077 -2.1649
  636TIP3   OH223398   4.826   2.200  15.483 -0.3781 -0.4671 -0.1215
  636TIP3    H123399   4.921   2.207  15.491 -0.5187  1.8275  0.4283
  636TIP3    H223400   4.792   2.249  15.558 -1.9918 -0.3372 -0.8819
  637TIP3   OH223401   2.140   2.634   1.389  0.1322  0.3957  0.4011
  637TIP3    H123402   2.128   2.569   1.458 -0.5134 -0.5013 -0.5265
  637TIP3    H223403   2.070   2.616   1.327 -0.0218  1.9491  0.0816
  638TIP3   OH223404   5.822   2.508   2.502 -0.0502  0.1873  0.2656
  638TIP3    H123405   5.763   2.441   2.468  1.4096 -0.9233 -0.2220
  638TIP3    H223406   5.872   2.462   2.570  0.9197  0.7954 -0.0214
  639TIP3   OH223407   1.523   6.659   5.400 -0.5910  0.0987 -0.0094
  639TIP3    H123408   1.561   6.732   5.449 -1.9702 -0.4146  1.9174
  639TIP3    H223409   1.436   6.691   5.374 -0.2003  0.0537 -1.4428
  640TIP3   OH223410   3.426   3.999   1.373  0.5039 -0.1583  0.0405
  640TIP3    H123411   3.338   3.968   1.394  0.6107 -0.5517 -0.0709
  640TIP3    H223412   3.468   4.013   1.457  0.4757 -0.3887  0.0934
  641TIP3   OH223413   3.071   2.477  13.964 -0.0524 -0.6670  0.8557
  641TIP3    H123414   3.119   2.472  14.047  0.4669 -0.4381  0.5724
  641TIP3    H223415   3.049   2.569  13.954  0.4534 -0.5902  0.4225
  642TIP3   OH223416   0.817   6.424  14.325  0.8784  0.1542  0.3919
  642TIP3    H123417   0.895   6.452  14.373  0.9007  1.3942 -0.3054
  642TIP3    H223418   0.842   6.431  14.233  0.2243 -0.2802  0.1747
  643TIP3   OH223419   4.666   4.667   7.020  0.4342 -0.5112  0.2403
  643TIP3    H123420   4.725   4.626   6.957 -0.3416 -1.2134 -0.0561
  643TIP3    H223421   4.704   4.647   7.105  0.5793 -1.0354  0.0563
  644TIP3   OH223422   6.518   6.291   2.133 -0.1920 -0.0456 -0.4099
  644TIP3    H123423   6.551   6.332   2.213 -0.4692 -0.6565  0.0233
  644TIP3    H223424   6.425   6.276   2.150 -0.1304 -0.7134 -0.6169
  645TIP3   OH223425   2.421   2.830   0.509 -0.4125  0.1602 -0.6013
  645TIP3    H123426   2.443   2.758   0.450  0.7156  1.1535 -1.4552
  645TIP3    H223427   2.355   2.794   0.569  0.3677 -1.6522 -0.7870
  646TIP3   OH223428   5.120   4.860   2.250  0.6031  0.1297 -0.1412
  646TIP3    H123429   5.163   4.923   2.308  0.9867 -2.1460  2.2247
  646TIP3    H223430   5.053   4.818   2.305 -0.9161 -0.2713 -2.1661
  647TIP3   OH223431   5.861   0.456  15.663  0.2033  0.6647  0.4486
  647TIP3    H123432   5.820   0.496  15.586  0.2904 -0.9700 -0.4813
  647TIP3    H223433   5.912   0.527  15.702  1.5236  1.1553 -1.9663
  648TIP3   OH223434   2.022   6.539   4.051  0.1608  0.6921 -0.0776
  648TIP3    H123435   2.076   6.462   4.061  3.1440  2.6112 -0.2487
  648TIP3    H223436   1.953   6.513   3.989  1.3132 -1.6381 -0.4791
  649TIP3   OH223437   6.717   4.970   4.923  0.4037  0.8098 -0.0196
  649TIP3    H123438   6.753   4.920   4.997 -1.5813 -1.7152 -0.6038
  649TIP3    H223439   6.645   5.020   4.962  1.1577  1.7438  0.2145
  650TIP3   OH223440   2.020   5.385  12.535  0.5742 -0.2953  0.1092
  650TIP3    H123441   1.997   5.292  12.536  1.4372 -0.5226  1.1448
  650TIP3    H223442   2.042   5.403  12.444  0.5286 -1.1417 -0.0798
  651TIP3   OH223443   3.870   0.060   3.631 -0.4913 -0.6253  0.7411
  651TIP3    H123444   3.883   0.125   3.701  0.2944  0.3760 -0.3029
  651TIP3    H223445   3.775   0.061   3.616 -0.3485  1.7808 -0.5757
  652TIP3   OH223446   5.318   1.205  12.614  0.3205  0.1381  0.6402
  652TIP3    H123447   5.263   1.197  12.692  0.2229 -0.7528  0.4913
  652TIP3    H223448   5.356   1.292  12.620 -0.6950  0.5751  1.0221
  653TIP3   OH223449   3.486   5.935  12.457  0.2999  0.5519 -0.1255
  653TIP3    H123450   3.448   5.851  12.433  1.0759 -0.3380  1.5205
  653TIP3    H223451   3.422   5.975  12.516 -0.6267  1.7284 -1.8533
  654TIP3   OH223452   3.065   1.785  13.310 -0.3018 -0.2888 -0.8430
  654TIP3    H123453   3.006   1.746  13.245 -1.7370  0.8431 -0.2867
  654TIP3    H223454   3.073   1.719  13.379 -0.2747 -0.7625 -1.2960
  655TIP3   OH223455   6.663   6.042  10.611  0.1755 -0.7508  0.3864
  655TIP3    H123456   6.587   5.984  10.604  1.0527 -2.1237  1.6940
  655TIP3    H223457   6.632   6.126  10.576 -1.2623 -1.8593 -1.1531
  656TIP3   OH223458   2.059   3.659   1.273 -0.0116 -0.1018 -0.0803
  656TIP3    H123459   2.107   3.577   1.275  2.6576  1.3376  0.2707
  656TIP3    H223460   1.979   3.642   1.322  0.8528 -2.2773  0.6819
  657TIP3   OH223461   2.198   0.760   5.009 -0.0938  0.3231 -0.2079
  657TIP3    H123462   2.283   0.729   5.041 -0.1866 -1.1723 -1.3032
  657TIP3    H223463   2.218   0.841   4.962  0.8050 -0.2264 -0.7989
  658TIP3   OH223464   5.847   3.340  10.707  0.1091 -0.1615 -0.3256
  658TIP3    H123465   5.916   3.276  10.689  0.2463  0.0371 -0.5081
  658TIP3    H223466   5.775   3.289  10.743  1.2021 -0.1127  2.1539
  659TIP3   OH223467   0.250   0.403  10.971  0.4700  0.5753  0.4182
  659TIP3    H123468   0.296   0.420  10.889  0.0991  1.1733  0.3285
  659TIP3    H223469   0.247   0.308  10.977 -1.5385  0.4349 -1.4372
  660TIP3   OH223470   6.269   0.548  14.856 -0.3010 -0.7490  0.9727
  660TIP3    H123471   6.220   0.598  14.790  2.1323 -0.7020 -0.9326
  660TIP3    H223472   6.307   0.615  14.913  0.9527 -0.5047 -0.1099
  661TIP3   OH223473   4.334   2.020  12.444  0.5483  0.2435 -0.2452
  661TIP3    H123474   4.394   1.983  12.379 -0.0664  0.2563 -0.8280
  661TIP3    H223475   4.255   1.966  12.437  0.3315  0.5029  0.2024
  662TIP3   OH223476   2.138   4.067   4.204 -0.0758 -0.3280 -0.6735
  662TIP3    H123477   2.050   4.068   4.242  0.0721  0.1085 -0.3260
  662TIP3    H223478   2.175   4.152   4.229  0.3713 -0.4302 -0.9869
  663TIP3   OH223479   3.842   0.368   0.244 -0.0706  0.2561  0.7171
  663TIP3    H123480   3.817   0.461   0.236  2.2445  0.7812 -1.7782
  663TIP3    H223481   3.766   0.321   0.209 -0.4481  1.3350 -0.0004
  664TIP3   OH223482   5.451   5.464   0.557 -0.1628 -0.8740  0.3555
  664TIP3    H123483   5.513   5.430   0.492  0.4807  0.9885 -0.0795
  664TIP3    H223484   5.400   5.529   0.510 -1.4708 -1.3219  1.0994
  665TIP3   OH223485   4.456   1.637   1.548 -0.2587 -0.0373 -0.5122
  665TIP3    H123486   4.366   1.641   1.516 -0.4076  2.5366  0.0387
  665TIP3    H223487   4.447   1.636   1.643  0.2833  0.8550 -0.4419
  666TIP3   OH223488   1.240   3.616  17.205 -0.2861  0.3542  0.5007
  666TIP3    H123489   1.184   3.668  17.262 -2.7767 -0.9164 -0.6225
  666TIP3    H223490   1.196   3.531  17.198  1.3273 -0.4457 -1.1759
  667TIP3   OH223491   3.450   2.922   0.419 -0.1063  0.1490  0.2336
  667TIP3    H123492   3.415   3.008   0.395  1.3660  1.1993  1.5833
  667TIP3    H223493   3.387   2.888   0.483  1.0881  1.9445  2.5205
  668TIP3   OH223494   4.172   1.406  15.471  0.2714  0.1703  0.3364
  668TIP3    H123495   4.081   1.434  15.464  0.2385 -0.2832 -1.3706
  668TIP3    H223496   4.199   1.389  15.381  1.7335 -0.7156  0.9122
  669TIP3   OH223497   1.181   3.006  11.585 -0.1462  0.0233  0.3417
  669TIP3    H123498   1.212   3.085  11.541  1.1198  0.6633  2.2624
  669TIP3    H223499   1.101   3.033  11.629  1.1583  0.7944  2.3878
  670TIP3   OH223500   6.762   6.342   1.979 -0.2873  0.1957  0.3799
  670TIP3    H123501   6.729   6.276   1.918  0.0580 -0.2645  0.6812
  670TIP3    H223502   6.687   6.362   2.036 -0.0288 -0.9668  1.1685
  671TIP3   OH223503   6.152   1.512  10.809  0.1395  0.0861  0.7187
  671TIP3    H123504   6.181   1.490  10.720 -1.5405  0.7803 -0.0493
  671TIP3    H223505   6.195   1.595  10.828 -0.0007  0.2636  0.2838
  672TIP3   OH223506   5.757   5.479  12.179 -0.2821 -0.0917  0.4994
  672TIP3    H123507   5.711   5.563  12.186 -0.4487 -0.2676  1.7385
  672TIP3    H223508   5.691   5.413  12.199 -0.8178 -0.7728 -2.9223
  673TIP3   OH223509   6.694   5.390   1.068  0.2263  0.3877  0.0109
  673TIP3    H123510   6.724   5.419   0.982 -2.4609  0.8105 -0.8936
  673TIP3    H223511   6.617   5.444   1.086 -0.7951 -1.4209  1.5043
  674TIP3   OH223512   5.148   4.552  17.493  0.0418 -0.2966  0.0051
  674TIP3    H123513   5.068   4.587  17.455  1.1044  1.0380 -1.1288
  674TIP3    H223514   5.218   4.581  17.433  1.2419 -2.5132  0.2337
  675TIP3   OH223515   6.191   3.451   3.987 -0.5882  0.1978 -0.4386
  675TIP3    H123516   6.248   3.498   4.048  1.5604  0.6690 -2.6767
  675TIP3    H223517   6.185   3.362   4.023  1.2078  0.2680  0.1027
  676TIP3   OH223518   0.718   1.317  12.073 -0.8246  0.0376 -0.0880
  676TIP3    H123519   0.796   1.278  12.033  1.4481  1.9927  2.0827
  676TIP3    H223520   0.709   1.402  12.030 -0.4292  0.6988  1.0847
  677TIP3   OH223521   1.182   4.781   5.449 -0.1619  0.1255  0.2551
  677TIP3    H123522   1.098   4.738   5.433  0.0388 -0.0220 -0.4820
  677TIP3    H223523   1.212   4.746   5.532 -0.8743  0.2493  0.5692
  678TIP3   OH223524   2.337   0.520   5.762  0.2674  0.1957 -0.4431
  678TIP3    H123525   2.290   0.590   5.718  0.3824  1.2006  0.9684
  678TIP3    H223526   2.294   0.512   5.848  0.5582 -1.1400 -0.3948
  679TIP3   OH223527   2.595   5.384   4.972  0.1890 -0.1381  0.4052
  679TIP3    H123528   2.678   5.336   4.969 -0.5427 -1.3895 -1.4885
  679TIP3    H223529   2.620   5.474   4.995  2.3747  0.0912 -2.3635
  680TIP3   OH223530   3.006   4.439   1.407 -0.1308  0.5740 -0.1741
  680TIP3    H123531   3.090   4.481   1.426  0.3998 -1.0390  1.3428
  680TIP3    H223532   2.947   4.471   1.475 -0.0358 -0.2162  0.2912
  681TIP3   OH223533   5.601   2.134   5.935  0.6165  0.6749  0.0084
  681TIP3    H123534   5.526   2.185   5.904 -0.3115 -0.6211  0.0008
  681TIP3    H223535   5.644   2.104   5.855 -0.2400 -0.4785 -0.0627
  682TIP3   OH223536   2.553   4.083   5.848  0.1692  0.0870  0.4156
  682TIP3    H123537   2.517   4.114   5.932  2.0712  0.5798  1.0965
  682TIP3    H223538   2.527   4.151   5.785  0.3918  0.7329  0.9993
  683TIP3   OH223539   1.103   2.468  13.208 -0.2838 -0.5622 -0.6539
  683TIP3    H123540   1.178   2.527  13.200 -1.1877  0.7619  0.2093
  683TIP3    H223541   1.037   2.520  13.254 -2.5748 -0.8754 -3.2900
  684TIP3   OH223542   3.958   4.595   4.833 -0.7444 -0.3151  0.1751
  684TIP3    H123543   4.050   4.596   4.859 -0.9086  0.3633  0.7826
  684TIP3    H223544   3.943   4.681   4.795 -1.1505 -0.3781  0.1887
  685TIP3   OH223545   3.981   0.446  12.511  0.1896  0.4701 -0.2002
  685TIP3    H123546   3.922   0.474  12.441  0.6746 -0.2833 -0.9275
  685TIP3    H223547   3.976   0.516  12.576  0.0501  1.4027 -1.1791
  686TIP3   OH223548   3.040   0.809   5.145  0.0338 -0.0445 -0.6669
  686TIP3    H123549   3.071   0.757   5.071 -0.9875 -2.8184  0.7258
  686TIP3    H223550   3.120   0.836   5.190  0.6195 -2.1146 -0.3669
  687TIP3   OH223551   1.952   1.441  15.808 -0.3043  0.3184 -0.5448
  687TIP3    H123552   1.912   1.430  15.722 -0.6437  0.5061 -0.4128
  687TIP3    H223553   1.947   1.355  15.849 -0.8703  0.4180 -0.4014
  688TIP3   OH223554   4.291   4.811  12.245 -0.4424  0.2089 -0.0572
  688TIP3    H123555   4.295   4.880  12.311 -1.1961  0.4247 -0.2283
  688TIP3    H223556   4.382   4.785  12.231 -0.0367  1.9602 -0.8399
  689TIP3   OH223557   2.397   0.151  13.860  0.2384 -0.5039 -0.9417
  689TIP3    H123558   2.442   0.104  13.790  1.9874  0.5877 -0.6126
  689TIP3    H223559   2.463   0.211  13.895 -1.1658  0.3651  0.3458
  690TIP3   OH223560   6.597   2.768  16.729 -0.2950 -0.0896 -0.0290
  690TIP3    H123561   6.628   2.859  16.735  0.3515 -0.2520 -0.7660
  690TIP3    H223562   6.596   2.750  16.636 -0.1537 -0.9319  0.1313
  691TIP3   OH223563   2.818   3.947   6.780 -1.3835  0.2957 -0.6963
  691TIP3    H123564   2.898   3.951   6.832 -0.2360 -1.8757 -2.1500
  691TIP3    H223565   2.763   4.017   6.816 -0.3577 -0.5012  2.7988
  692TIP3   OH223566   5.985   0.747   3.861  0.0696 -0.6472 -0.3056
  692TIP3    H123567   5.915   0.757   3.926 -0.3975 -0.8427 -0.7712
  692TIP3    H223568   6.013   0.837   3.843  0.7955 -0.6305  0.7835
  693TIP3   OH223569   2.598   0.986   4.975 -0.4561 -0.1875  0.1640
  693TIP3    H123570   2.554   0.926   4.916 -3.1942 -0.3355  2.1980
  693TIP3    H223571   2.626   0.932   5.048  0.2189  0.4743  0.4109
  694TIP3   OH223572   4.913   4.354   3.241  0.1302  0.1817  0.2658
  694TIP3    H123573   5.007   4.366   3.231  0.1096  0.3892  0.3087
  694TIP3    H223574   4.876   4.442   3.226 -0.3558 -0.4644 -3.1575
  695TIP3   OH223575   2.899   2.373   4.210  0.0012  0.1495 -0.2956
  695TIP3    H123576   2.885   2.321   4.131 -0.1593  0.1393 -0.2611
  695TIP3    H223577   2.992   2.398   4.207  0.4211 -1.2476  0.3644
  696TIP3   OH223578   0.775   6.453   5.066 -0.0726 -0.3783  0.3507
  696TIP3    H123579   0.867   6.445   5.091  0.3311  1.9289 -0.1077
  696TIP3    H223580   0.771   6.419   4.977 -0.0007 -1.8341  0.8785
  697TIP3   OH223581   2.568   3.797   5.107  0.4039  0.4077  0.1895
  697TIP3    H123582   2.493   3.738   5.099  0.7592 -0.0707  0.3305
  697TIP3    H223583   2.641   3.748   5.069  0.3678  1.4134 -1.2391
  698TIP3   OH223584   4.904   2.139  13.014 -0.2976  0.4005 -0.4400
  698TIP3    H123585   4.908   2.146  12.918 -0.4978 -0.1594 -0.4914
  698TIP3    H223586   4.823   2.183  13.038 -0.0870  0.8225 -0.5005
  699TIP3   OH223587   6.380   6.770  16.581  0.0468 -0.0199 -0.2890
  699TIP3    H123588   6.305   6.830  16.581 -0.4835 -0.6502  0.6666
  699TIP3    H223589   6.394   6.750  16.673  2.0155  0.8078 -0.3569
  700TIP3   OH223590   6.552   5.103  17.041 -0.3030  0.0098  0.0481
  700TIP3    H123591   6.511   5.057  16.968 -0.6582 -1.0448  0.8860
  700TIP3    H223592   6.530   5.195  17.027 -0.0415 -0.1172 -1.3627
  701TIP3   OH223593   5.985   5.020  16.406 -0.3973 -0.5410  0.8341
  701TIP3    H123594   5.911   4.959  16.403  0.1833 -1.2333  0.1641
  701TIP3    H223595   6.050   4.982  16.347 -0.3549  1.1947 -0.3154
  702TIP3   OH223596   6.393   0.317  11.838  0.5079  0.2687  0.6820
  702TIP3    H123597   6.316   0.361  11.803  0.4346  0.4761  1.0956
  702TIP3    H223598   6.440   0.385  11.887  0.9837  0.1586  0.3850
  703TIP3   OH223599   4.708   2.604   2.838  0.5668 -0.4606  0.1146
  703TIP3    H123600   4.662   2.520   2.833  0.9134 -0.8553  2.4839
  703TIP3    H223601   4.685   2.648   2.756 -2.2148 -1.5651  0.1816
  704TIP3   OH223602   0.555   5.099   1.470  0.7326  0.5256  0.0979
  704TIP3    H123603   0.521   5.029   1.414  0.6416  1.3488 -0.8956
  704TIP3    H223604   0.478   5.131   1.517  0.9086 -0.5865  1.2179
  705TIP3   OH223605   5.879   1.105  14.720 -0.2904  0.3364 -0.0442
  705TIP3    H123606   5.908   1.015  14.731 -2.0402 -0.2586 -0.0816
  705TIP3    H223607   5.901   1.126  14.629 -0.3595 -0.2383 -0.1944
  706TIP3   OH223608   5.372   4.207   5.699  0.1630 -0.4234 -0.0732
  706TIP3    H123609   5.367   4.165   5.613 -0.0709 -0.3527 -0.0970
  706TIP3    H223610   5.462   4.193   5.728 -0.4640 -2.9049  0.9172
  707TIP3   OH223611   6.027   6.524   5.889  0.0963 -0.5457  0.1160
  707TIP3    H123612   6.009   6.517   5.795 -0.1902 -1.2059  0.2125
  707TIP3    H223613   6.019   6.435   5.921  0.2922 -0.3353  0.7539
  708TIP3   OH223614   2.402   5.327   4.159  0.1540  0.1400  0.4913
  708TIP3    H123615   2.410   5.269   4.235  2.1936 -0.2650  0.0337
  708TIP3    H223616   2.320   5.300   4.117  1.3781 -3.0690 -0.1574
  709TIP3   OH223617   1.684   3.579   2.684 -1.0043  0.4138 -0.3981
  709TIP3    H123618   1.615   3.541   2.739 -0.9296  0.1503 -0.4888
  709TIP3    H223619   1.712   3.657   2.732 -0.8370  0.1075  0.0119
  710TIP3   OH223620   5.690   3.341   2.142  0.2801 -0.4071  0.7711
  710TIP3    H123621   5.756   3.272   2.135  1.5289  0.7888  0.1920
  710TIP3    H223622   5.623   3.318   2.077  0.0507 -1.7006  1.4457
  711TIP3   OH223623   5.473   1.906  17.330  0.1365 -0.6042  0.3701
  711TIP3    H123624   5.501   1.815  17.322 -0.6913 -0.9193  0.9146
  711TIP3    H223625   5.426   1.924  17.249 -1.7415 -1.4306  1.2034
  712TIP3   OH223626   5.793   2.752  16.481 -0.0827 -0.2075  0.0114
  712TIP3    H123627   5.750   2.682  16.529 -0.2730  1.1074  1.8915
  712TIP3    H223628   5.727   2.821  16.475  1.1550  1.2037  1.4821
  713TIP3   OH223629   3.054   6.634  10.485 -0.0023  0.5458  0.2352
  713TIP3    H123630   3.113   6.571  10.526 -1.7330 -1.0251  0.4249
  713TIP3    H223631   3.112   6.687  10.429  1.5172 -1.3136 -0.0802
  714TIP3   OH223632   0.414   2.380   4.700  0.5247 -0.3225  0.1340
  714TIP3    H123633   0.504   2.349   4.708  0.4287 -0.5123  0.4516
  714TIP3    H223634   0.361   2.315   4.745  0.4023  0.6926  1.5029
  715TIP3   OH223635   2.103   1.799  16.754 -0.1204 -0.1809 -0.1397
  715TIP3    H123636   2.103   1.878  16.701 -0.2207 -1.1591 -1.6754
  715TIP3    H223637   2.030   1.810  16.815 -0.7348  0.4936 -0.9845
  716TIP3   OH223638   5.611   3.996   3.984 -0.0025  0.4896  0.3001
  716TIP3    H123639   5.646   4.074   3.941  0.9447  1.2591  2.3587
  716TIP3    H223640   5.619   4.014   4.078  0.4628 -2.1710  0.8505
  717TIP3   OH223641   5.314   3.140   0.656 -0.3676  0.4556  0.0967
  717TIP3    H123642   5.387   3.079   0.666 -0.0552  1.0503  1.9393
  717TIP3    H223643   5.346   3.206   0.594  0.5129  0.4531  0.5280
  718TIP3   OH223644   5.532   6.249   2.801  0.7369 -0.3495 -0.2923
  718TIP3    H123645   5.498   6.235   2.713 -0.6975 -0.3108  0.2297
  718TIP3    H223646   5.567   6.164   2.828  1.6007 -0.2514 -1.0418
  719TIP3   OH223647   3.120   3.788   0.235  0.5205 -0.7969  0.0954
  719TIP3    H123648   3.060   3.849   0.194  2.1150 -0.5349 -2.0076
  719TIP3    H223649   3.089   3.701   0.209 -0.3229 -0.8063  1.0629
  720TIP3   OH223650   4.017   4.981  13.525 -0.0549 -0.0070  0.1982
  720TIP3    H123651   4.016   4.991  13.430 -0.1483  0.9178  0.2808
  720TIP3    H223652   3.969   5.058  13.557  0.3005 -0.1113  1.0018
  721TIP3   OH223653   0.661   4.882  16.837 -0.1904 -0.2696  0.0842
  721TIP3    H123654   0.603   4.806  16.829 -0.0771 -0.5551  1.6386
  721TIP3    H223655   0.658   4.905  16.930  1.4969  0.2551  0.0398
  722TIP3   OH223656   3.285   3.638  11.507 -0.4558  0.8473 -0.3034
  722TIP3    H123657   3.206   3.652  11.455 -0.6613 -0.0566 -0.2444
  722TIP3    H223658   3.351   3.610  11.444 -0.2500  1.3416 -0.3131
  723TIP3   OH223659   2.186   3.230   2.747 -0.3441 -0.2279 -0.3251
  723TIP3    H123660   2.187   3.167   2.674  1.5470  0.1126 -0.6523
  723TIP3    H223661   2.097   3.265   2.747 -0.5172 -0.5582 -2.2002
  724TIP3   OH223662   0.419   1.289  14.872  0.1713  0.0427  0.0487
  724TIP3    H123663   0.476   1.234  14.819  0.8838 -1.1839  1.9800
  724TIP3    H223664   0.354   1.229  14.907 -2.3069  1.3692 -1.9228
  725TIP3   OH223665   2.446   2.457  13.603  0.3472 -0.5194 -0.5052
  725TIP3    H123666   2.485   2.393  13.544  1.8699 -0.9706  0.9273
  725TIP3    H223667   2.467   2.425  13.691  2.4187  2.5836  0.3093
  726TIP3   OH223668   2.818   2.355  13.848 -0.3173 -0.0309  0.3675
  726TIP3    H123669   2.741   2.406  13.873  0.4965  0.8459  1.1518
  726TIP3    H223670   2.891   2.416  13.856  0.5002 -0.9232 -0.1065
  727TIP3   OH223671   5.948   6.689  16.275 -0.2636  0.0680 -0.6183
  727TIP3    H123672   6.042   6.699  16.263 -0.1634  0.9192  0.6694
  727TIP3    H223673   5.910   6.719  16.193  0.5357  1.3230 -0.5618
  728TIP3   OH223674   0.038   4.881   1.698 -0.8063  0.6760 -0.2802
  728TIP3    H123675   0.007   4.948   1.638  0.0544  1.3014 -0.0416
  728TIP3    H223676   0.112   4.841   1.654 -0.9090  0.3219 -0.1375
  729TIP3   OH223677   1.005   2.738   1.792  0.3311  0.4188  0.0190
  729TIP3    H123678   0.948   2.685   1.846 -0.6092 -0.3060 -1.6029
  729TIP3    H223679   1.035   2.679   1.722 -0.9803  2.0128 -2.0117
  730TIP3   OH223680   6.744   4.431  13.347  0.3702 -0.0882  0.0031
  730TIP3    H123681   6.679   4.500  13.361  0.4440 -0.3173  1.6208
  730TIP3    H223682   6.696   4.361  13.302 -0.3223  0.0367  0.5396
  731TIP3   OH223683   5.223   6.593   4.160  0.3257  0.3220 -0.4898
  731TIP3    H123684   5.168   6.516   4.177  1.9566 -0.5159  1.3376
  731TIP3    H223685   5.301   6.580   4.213  0.4789  3.4782  0.2913
  732TIP3   OH223686   5.848   3.770  14.666  1.0463  0.7618  0.2295
  732TIP3    H123687   5.792   3.771  14.744 -0.3886  0.7979 -0.7704
  732TIP3    H223688   5.892   3.855  14.667  1.0234  0.7737  0.9770
  733TIP3   OH223689   3.779   4.343  16.529  0.5994 -0.0206 -0.3184
  733TIP3    H123690   3.861   4.388  16.549 -0.2368  0.3668  2.7211
  733TIP3    H223691   3.770   4.278  16.599 -0.7614 -1.4315 -1.7106
  734TIP3   OH223692   0.785   3.455  14.041 -0.0725 -0.8964 -0.2809
  734TIP3    H123693   0.745   3.437  13.956  2.9497  2.6242 -2.7955
  734TIP3    H223694   0.741   3.534  14.071 -0.1359 -1.3127  0.7427
  735TIP3   OH223695   4.074   2.142   4.462 -0.2893  0.2549  0.1380
  735TIP3    H123696   4.005   2.112   4.402  0.8541 -0.1007 -1.0388
  735TIP3    H223697   4.032   2.210   4.514 -1.2213  0.8407 -1.3137
  736TIP3   OH223698   0.685   1.330   3.248 -0.2908  0.5170 -0.2492
  736TIP3    H123699   0.611   1.273   3.269  0.2645  0.2021  0.9535
  736TIP3    H223700   0.761   1.283   3.281  0.4798  0.7746 -1.5795
  737TIP3   OH223701   0.103   5.181   4.457 -0.9363  0.5593  0.6237
  737TIP3    H123702   0.139   5.246   4.517  0.0812  2.0555 -1.4762
  737TIP3    H223703   0.012   5.172   4.484 -1.6915  4.3188 -0.0684
  738TIP3   OH223704   1.037   3.189  12.490 -0.1041 -0.1629 -0.1376
  738TIP3    H123705   1.124   3.227  12.488 -0.1570  0.3452  2.8933
  738TIP3    H223706   1.051   3.095  12.475  0.8880 -0.0147 -0.1699
  739TIP3   OH223707   1.887   3.049  14.652  0.3721 -0.5679 -0.2537
  739TIP3    H123708   1.794   3.032  14.639  0.1378  1.1294 -0.9686
  739TIP3    H223709   1.898   3.051  14.747 -0.2125 -1.2502 -0.1645
  740TIP3   OH223710   4.203   5.328   4.075 -0.5203 -0.0791 -0.0296
  740TIP3    H123711   4.120   5.340   4.029 -0.2687  1.2677 -0.1769
  740TIP3    H223712   4.227   5.416   4.105  0.7558 -0.4719  0.1797
  741TIP3   OH223713   4.531   5.596   4.048  0.1050 -0.4310 -0.2775
  741TIP3    H123714   4.451   5.616   3.999 -0.6080  1.8311  1.6199
  741TIP3    H223715   4.599   5.586   3.981 -1.1716  0.6910 -1.8073
  742TIP3   OH223716   4.432   6.727   2.347 -0.0118 -0.1529 -0.0985
  742TIP3    H123717   4.347   6.730   2.303 -0.3215 -0.4172  0.4710
  742TIP3    H223718   4.467   6.641   2.326 -0.7301 -0.7865  1.1973
  743TIP3   OH223719   3.409   0.051  11.731  0.1999 -0.4125 -0.0357
  743TIP3    H123720   3.427   0.145  11.724 -1.5028 -0.0773 -0.4918
  743TIP3    H223721   3.424   0.031  11.823  1.2037  0.1494 -0.0622
  744TIP3   OH223722   4.826   3.869   5.022  0.1665 -0.0812  0.3617
  744TIP3    H123723   4.781   3.938   4.973  0.3179 -0.2565 -0.0347
  744TIP3    H223724   4.852   3.910   5.104  3.2379  1.3917 -1.1734
  745TIP3   OH223725   4.272   3.125  11.673 -0.3804  0.4387  0.4369
  745TIP3    H123726   4.295   3.034  11.657 -1.7801  0.1337 -0.0543
  745TIP3    H223727   4.300   3.143  11.763  0.8097 -0.1564  0.1953
  746TIP3   OH223728   0.719   3.177   4.999  0.0301  0.2288 -0.0724
  746TIP3    H123729   0.712   3.126   5.079 -1.8386  0.4346 -0.0578
  746TIP3    H223730   0.762   3.258   5.025  2.4261 -1.0108  0.0312
  747TIP3   OH223731   1.559   5.916   3.644 -0.3796 -0.0489 -0.2855
  747TIP3    H123732   1.584   5.931   3.553  1.3085 -1.9678 -0.2043
  747TIP3    H223733   1.469   5.948   3.650  0.0847  1.7969 -2.1308
  748TIP3   OH223734   3.815   0.924   1.299  0.1859  0.1502 -0.2790
  748TIP3    H123735   3.848   0.930   1.388 -0.8284 -0.3970  0.1499
  748TIP3    H223736   3.774   0.838   1.294 -1.7271  1.0183 -0.5552
  749TIP3   OH223737   1.283   3.853  12.440 -0.3767  0.1416  0.2639
  749TIP3    H123738   1.309   3.834  12.350 -0.3548 -1.3928  0.5649
  749TIP3    H223739   1.231   3.933  12.434 -2.9771 -1.5116 -1.5774
  750TIP3   OH223740   6.157   0.909   1.487  0.0758  0.7545  0.4439
  750TIP3    H123741   6.173   1.004   1.486  1.5900  0.5400  0.9767
  750TIP3    H223742   6.245   0.871   1.492 -0.4076 -0.7410 -1.5823
  751TIP3   OH223743   1.992   3.883  17.306  0.3942 -0.2542  0.2372
  751TIP3    H123744   1.938   3.961  17.298  3.1602  1.5878 -2.6920
  751TIP3    H223745   2.028   3.887  17.395 -1.3190  0.4579  0.9280
  752TIP3   OH223746   0.723   5.408  14.690 -0.0564  0.4956  0.0392
  752TIP3    H123747   0.734   5.340  14.756 -0.0920  1.9842  1.6373
  752TIP3    H223748   0.675   5.365  14.619  1.4489 -1.6026  0.2041
  753TIP3   OH223749   5.496   3.563  13.032 -0.1586  0.3654 -0.2008
  753TIP3    H123750   5.401   3.568  13.042 -0.2076  0.5633 -0.7579
  753TIP3    H223751   5.531   3.591  13.117 -0.5615  2.3187 -0.6433
  754TIP3   OH223752   4.658   3.129  12.058  0.5018  0.5615  0.1709
  754TIP3    H123753   4.624   3.215  12.082  0.9473  0.3945  1.5223
  754TIP3    H223754   4.746   3.126  12.096 -0.2867 -1.2677  2.1108
  755TIP3   OH223755   5.171   0.544  15.400 -0.1253  0.1561 -0.2011
  755TIP3    H123756   5.262   0.534  15.430  0.5830 -0.8272 -2.4069
  755TIP3    H223757   5.118   0.508  15.470  1.2468  0.1414  0.8642
  756TIP3   OH223758   1.491   2.968  11.457 -0.0649  1.0007  0.0655
  756TIP3    H123759   1.462   2.937  11.543  2.1380  0.1754  0.5803
  756TIP3    H223760   1.417   3.019  11.423 -2.0694 -1.0043  1.1986
  757TIP3   OH223761   3.064   1.525   6.034 -0.2589  0.0081  0.0374
  757TIP3    H123762   2.971   1.502   6.037  0.0925 -1.5580 -0.3698
  757TIP3    H223763   3.067   1.606   5.982 -1.5016  0.8253  1.1797
  758TIP3   OH223764   2.535   3.203  13.571 -0.7058  0.4310  0.4302
  758TIP3    H123765   2.596   3.237  13.638 -0.0994 -0.1177  0.1692
  758TIP3    H223766   2.451   3.199  13.616 -0.6836  1.7443  0.6394
  759TIP3   OH223767   6.298   4.751   4.521  0.5656  0.0495  0.3796
  759TIP3    H123768   6.253   4.766   4.438  0.0722 -1.3936  0.3556
  759TIP3    H223769   6.385   4.719   4.496  0.9087  0.9188  0.4298
  760TIP3   OH223770   3.494   4.557   4.382 -0.6783 -0.4845  0.1848
  760TIP3    H123771   3.483   4.541   4.476  1.6527 -2.5162  0.2236
  760TIP3    H223772   3.483   4.471   4.341  2.0530 -0.4306 -0.9068
  761TIP3   OH223773   4.307   5.251  11.146 -0.5044 -0.2903  0.5225
  761TIP3    H123774   4.227   5.225  11.192 -0.8897  0.2731  0.1855
  761TIP3    H223775   4.378   5.232  11.208 -0.7660 -1.9124  0.3769
  762TIP3   OH223776   3.825   5.877  17.364 -0.3110  0.2934 -0.1916
  762TIP3    H123777   3.846   5.787  17.339  2.8215 -0.0282  2.7732
  762TIP3    H223778   3.789   5.870  17.452 -0.4986  1.8913 -0.1061
  763TIP3   OH223779   2.947   5.573  14.358 -0.3565 -0.7449  0.1991
  763TIP3    H123780   3.040   5.555  14.370 -0.5435 -0.5008  2.3332
  763TIP3    H223781   2.912   5.580  14.447 -2.1987  0.3003 -0.5526
  764TIP3   OH223782   5.885   6.126   2.779  0.3341 -0.0706  0.4041
  764TIP3    H123783   5.916   6.095   2.864  0.2526  1.9045  1.2213
  764TIP3    H223784   5.883   6.222   2.788  0.6920  0.2121 -1.9608
  765TIP3   OH223785   2.657   3.313  16.195 -0.2513  0.0316 -0.3765
  765TIP3    H123786   2.694   3.398  16.172 -1.2619  0.5781 -0.0823
  765TIP3    H223787   2.732   3.254  16.199  0.4979  0.9549 -0.3868
  766TIP3   OH223788   3.105   4.665   1.016 -1.1063 -0.1872 -0.6623
  766TIP3    H123789   3.062   4.608   1.080  0.3450  0.8219  1.3108
  766TIP3    H223790   3.056   4.651   0.935 -1.0517 -3.9440 -0.2254
  767TIP3   OH223791   5.006   0.718  14.113  0.1830  0.0784  0.1316
  767TIP3    H123792   5.057   0.709  14.032 -0.4834 -1.4360 -0.1530
  767TIP3    H223793   4.939   0.784  14.092  0.7072  0.5147 -0.1798
  768TIP3   OH223794   3.523   5.655  15.005  0.4289 -0.2183 -0.3535
  768TIP3    H123795   3.566   5.600  14.939  0.6040 -0.1828 -0.2692
  768TIP3    H223796   3.536   5.608  15.087 -1.0846 -1.0324 -0.5418
  769TIP3   OH223797   4.858   1.477   0.333 -0.3972  0.7021  0.0610
  769TIP3    H123798   4.860   1.522   0.249 -1.3498  0.0196 -0.3402
  769TIP3    H223799   4.949   1.449   0.348 -0.1532  1.1587 -0.5480
  770TIP3   OH223800   5.507   1.649  17.291 -0.5688  0.0686  0.8154
  770TIP3    H123801   5.485   1.683  17.205 -2.6199  3.5957  2.5081
  770TIP3    H223802   5.436   1.587  17.311 -0.2754 -0.4952  0.1350
  771TIP3   OH223803   1.824   2.735   0.956  0.8040  0.2402  0.1030
  771TIP3    H123804   1.832   2.687   0.874 -0.0187  0.5156 -0.1497
  771TIP3    H223805   1.788   2.820   0.930 -1.5150 -0.4093  0.9558
  772TIP3   OH223806   6.378   5.028   3.333  0.6303  0.4666 -0.2021
  772TIP3    H123807   6.415   5.040   3.246 -0.6604  1.8026 -0.6015
  772TIP3    H223808   6.425   4.953   3.369  3.2456  1.6510 -0.9055
  773TIP3   OH223809   1.860   4.525  12.487  0.0968  0.1220  0.1681
  773TIP3    H123810   1.842   4.601  12.432 -1.2082 -0.7890 -0.7396
  773TIP3    H223811   1.812   4.453  12.445  0.3781 -0.9673  1.6145
  774TIP3   OH223812   6.300   4.725   0.692 -0.2621  0.0027 -0.6671
  774TIP3    H123813   6.230   4.719   0.757 -0.4364 -0.4783 -0.8926
  774TIP3    H223814   6.256   4.708   0.608  0.1062 -0.2317 -0.8164
  775TIP3   OH223815   0.948   0.906  11.965  0.0551  0.5112  0.3353
  775TIP3    H123816   1.039   0.896  11.991 -0.4622 -2.9796  1.2131
  775TIP3    H223817   0.898   0.899  12.047 -1.0973  1.3179 -0.2573
  776TIP3   OH223818   4.157   0.757  14.070  0.2129  0.1740  0.5127
  776TIP3    H123819   4.156   0.744  13.975  0.0957 -0.1380  0.5543
  776TIP3    H223820   4.211   0.835  14.083 -0.5736  0.7961  0.1238
  777TIP3   OH223821   3.345   2.235   0.665  0.8554 -0.2875  0.5119
  777TIP3    H123822   3.438   2.215   0.679  1.4955  0.6945 -1.8043
  777TIP3    H223823   3.324   2.301   0.730  1.9572 -0.1163  0.7166
  778TIP3   OH223824   6.232   3.261   1.444 -0.3296 -0.0053 -0.6038
  778TIP3    H123825   6.144   3.293   1.426 -1.9949 -2.3826  2.4442
  778TIP3    H223826   6.265   3.318   1.513 -0.2228 -0.1992 -0.4922
  779TIP3   OH223827   1.853   1.710   3.489  0.1523 -0.2237  0.1086
  779TIP3    H123828   1.796   1.769   3.539  3.0553  1.4249  1.7385
  779TIP3    H223829   1.913   1.769   3.443  1.2307 -1.8606 -0.6423
  780TIP3   OH223830   6.276   2.150  15.320 -0.1310 -0.0091 -0.5727
  780TIP3    H123831   6.214   2.217  15.351  0.2691  0.0959  0.0210
  780TIP3    H223832   6.223   2.092  15.266 -0.4222  0.9550 -1.3470
  781TIP3   OH223833   2.716   2.162  15.749 -0.2960  0.3704  0.6059
  781TIP3    H123834   2.716   2.079  15.796 -2.3134 -0.6109 -0.9893
  781TIP3    H223835   2.732   2.139  15.658  2.0907  2.0946  0.4923
  782TIP3   OH223836   4.294   2.678   3.626 -0.6723 -0.2983 -0.0623
  782TIP3    H123837   4.271   2.716   3.711 -0.8458 -1.5831  0.4801
  782TIP3    H223838   4.331   2.751   3.577 -1.2144  0.6271  0.8663
  783TIP3   OH223839   2.032   6.130   1.942  0.1714  0.8299 -0.0710
  783TIP3    H123840   1.970   6.201   1.961  2.1970  2.4828  0.7090
  783TIP3    H223841   2.069   6.108   2.027  0.5484 -0.2356 -0.5043
  784TIP3   OH223842   2.851   0.847  12.156  0.7626 -0.2756  0.0278
  784TIP3    H123843   2.872   0.839  12.249  2.6341  0.0521 -0.3204
  784TIP3    H223844   2.819   0.761  12.131  3.2082 -1.3705  0.3361
  785TIP3   OH223845   2.733   3.688   6.743  0.2922 -0.0857  0.1014
  785TIP3    H123846   2.659   3.713   6.687  0.1544 -1.5708 -0.4402
  785TIP3    H223847   2.762   3.769   6.783 -0.0364  0.9411 -1.6372
  786TIP3   OH223848   5.786   5.181   4.577 -0.5091 -0.2857 -0.1634
  786TIP3    H123849   5.729   5.258   4.581  0.6667  0.6955 -1.1953
  786TIP3    H223850   5.800   5.157   4.668  0.2072  1.6223  0.2774
  787TIP3   OH223851   3.869   2.629   2.832 -0.0608 -0.0839 -0.5837
  787TIP3    H123852   3.955   2.663   2.856 -0.2774 -0.3880  0.6535
  787TIP3    H223853   3.807   2.684   2.879 -0.5026 -0.6033 -0.5514
  788TIP3   OH223854   0.374   2.918  16.571 -0.6463  0.1728  0.4564
  788TIP3    H123855   0.362   2.850  16.505 -1.7878  0.9437 -0.1457
  788TIP3    H223856   0.363   3.000  16.524  1.6110  0.8521  0.9828
  789TIP3   OH223857   3.477   6.465   0.595 -0.2899  0.1224 -0.1575
  789TIP3    H123858   3.417   6.454   0.521 -0.6384 -0.0990  0.1572
  789TIP3    H223859   3.559   6.494   0.555 -0.2127 -0.8468 -0.7216
  790TIP3   OH223860   2.186   4.016  12.515 -0.1550  0.2500  0.0022
  790TIP3    H123861   2.180   3.921  12.526  1.9864  0.1499  0.6698
  790TIP3    H223862   2.136   4.033  12.435 -3.4677 -0.9399  1.6149
  791TIP3   OH223863   4.327   4.547  14.774 -0.3838 -0.2743  0.2149
  791TIP3    H123864   4.393   4.478  14.771 -1.2885 -1.1552  0.1533
  791TIP3    H223865   4.245   4.504  14.749 -0.8649  0.9469 -0.4031
  792TIP3   OH223866   2.908   3.611   5.334  0.1838  0.5551  0.0333
  792TIP3    H123867   2.964   3.603   5.256  0.5222  1.9356  0.1053
  792TIP3    H223868   2.928   3.534   5.386  1.3051  0.5256 -0.4157
  793TIP3   OH223869   2.003   3.855   3.083 -0.6085 -0.1899 -0.0297
  793TIP3    H123870   2.020   3.869   2.990 -1.0050  1.7508  0.1427
  793TIP3    H223871   1.913   3.886   3.096 -0.9954 -1.5664  0.7913
  794TIP3   OH223872   3.002   3.785   1.817  0.0014  0.5046  0.0474
  794TIP3    H123873   2.943   3.848   1.858  0.3394  0.9302 -0.1113
  794TIP3    H223874   2.962   3.699   1.834 -0.5855  0.7772  0.0620
  795TIP3   OH223875   1.282   0.985  11.880  0.0823  0.1204 -0.7427
  795TIP3    H123876   1.369   0.986  11.920 -0.0145  0.0658 -0.5236
  795TIP3    H223877   1.276   1.067  11.832  0.4352 -0.0929 -1.1565
  796TIP3   OH223878   2.756   6.344   4.223  0.2003  0.1672 -0.1936
  796TIP3    H123879   2.825   6.308   4.279  0.1065  0.3048  0.0130
  796TIP3    H223880   2.677   6.340   4.277  0.1063  0.2864 -0.3215
  797TIP3   OH223881   4.322   5.336  11.768  0.1735  0.0298 -0.4283
  797TIP3    H123882   4.274   5.305  11.691 -0.4455 -1.2681  0.4482
  797TIP3    H223883   4.408   5.296  11.760  0.4047  0.5971 -0.8736
  798TIP3   OH223884   6.114   2.835  16.111  0.0544 -0.4371 -0.3612
  798TIP3    H123885   6.041   2.864  16.056 -1.3767 -0.9195  1.2144
  798TIP3    H223886   6.091   2.864  16.199  3.7662  3.1896 -0.2430
  799TIP3   OH223887   0.339   1.619   1.647 -0.2824  0.0509  0.0277
  799TIP3    H123888   0.333   1.683   1.718  0.0620  0.7169 -0.5300
  799TIP3    H223889   0.337   1.534   1.691 -0.6942  0.4405  0.7852
  800TIP3   OH223890   0.255   1.462  14.133 -0.2275 -0.2637  0.2117
  800TIP3    H123891   0.196   1.533  14.105 -0.4747 -0.7940 -0.6396
  800TIP3    H223892   0.266   1.477  14.227  0.9143  1.7906 -0.1819
  801TIP3   OH223893   1.691   1.673  12.931  0.2265  0.2744  0.0048
  801TIP3    H123894   1.679   1.616  13.006 -0.5123  0.7850  0.2853
  801TIP3    H223895   1.698   1.614  12.856  1.1428 -0.2439  0.4869
  802TIP3   OH223896   0.297   3.503  12.167 -0.4337 -0.5554  0.3820
  802TIP3    H123897   0.329   3.435  12.226  2.4695 -1.3780 -1.9017
  802TIP3    H223898   0.289   3.460  12.082 -1.0121  1.3702 -0.6126
  803TIP3   OH223899   1.427   1.556   1.035  0.2832  0.0553 -0.2086
  803TIP3    H123900   1.501   1.545   1.095  0.8136 -2.3446 -1.2035
  803TIP3    H223901   1.465   1.601   0.959  0.7398 -1.0372 -0.6547
  804TIP3   OH223902   0.833   5.674   4.499 -0.4128  0.2992 -0.2556
  804TIP3    H123903   0.915   5.625   4.499  0.2600  1.4030 -0.3970
  804TIP3    H223904   0.771   5.616   4.455 -0.6176 -1.9857  2.7567
  805TIP3   OH223905   5.111   4.251   5.768  0.5192  0.2175  0.2354
  805TIP3    H123906   5.079   4.221   5.853  1.0445  0.8638  0.6720
  805TIP3    H223907   5.206   4.262   5.780  0.2981  2.7109  0.3446
  806TIP3   OH223908   6.246   3.259  13.355 -0.4672 -0.1783 -0.5149
  806TIP3    H123909   6.206   3.263  13.441 -3.9907  1.0988 -2.0343
  806TIP3    H223910   6.212   3.178  13.316 -2.0384  1.0729 -1.9435
  807TIP3   OH223911   5.209   5.894   1.620  0.0276  0.1325 -0.0351
  807TIP3    H123912   5.285   5.952   1.611 -0.7717  1.2557  0.2742
  807TIP3    H223913   5.244   5.816   1.664  0.7133  1.2508  1.5144
  808TIP3   OH223914   4.714   2.080  12.723  0.0292  0.2935  0.1090
  808TIP3    H123915   4.634   2.131  12.735  0.4181  0.7709  0.7636
  808TIP3    H223916   4.684   1.996  12.688 -0.5149  1.3151 -2.0057
  809TIP3   OH223917   5.117   5.538   6.594 -0.2802 -0.0675  0.3829
  809TIP3    H123918   5.125   5.613   6.654 -1.5359 -0.0465  0.5399
  809TIP3    H223919   5.034   5.553   6.549 -0.6945 -1.5233  0.6317
  810TIP3   OH223920   1.985   2.015  12.140 -0.3677  0.2828 -0.0357
  810TIP3    H123921   2.009   1.923  12.154 -0.7882 -0.3650 -3.0288
  810TIP3    H223922   1.890   2.016  12.149 -0.2191  0.9730  2.2651
  811TIP3   OH223923   5.405   1.141   2.710  0.4169 -0.0701 -0.2992
  811TIP3    H123924   5.437   1.168   2.624  2.5891 -0.2702  0.3843
  811TIP3    H223925   5.387   1.047   2.701 -0.5874  0.1630 -0.8491
  812TIP3   OH223926   0.190   6.126  17.432 -0.3221  0.4069 -0.2964
  812TIP3    H123927   0.118   6.170  17.476 -0.0765  1.3618 -0.8187
  812TIP3    H223928   0.174   6.033  17.446 -1.1501  0.6424  0.3667
  813TIP3   OH223929   6.296   6.616  14.454  0.3807 -0.5190 -0.0920
  813TIP3    H123930   6.245   6.643  14.530 -0.0941 -1.1572 -0.1781
  813TIP3    H223931   6.317   6.698  14.409  0.5277 -0.1532  0.6312
  814TIP3   OH223932   4.612   5.600   0.040 -0.5690 -0.0574 -0.1033
  814TIP3    H123933   4.642   5.634   0.125 -0.2715  0.0506 -0.2510
  814TIP3    H223934   4.516   5.595   0.049 -0.4742 -0.8700  0.5380
  815TIP3   OH223935   1.964   5.160  12.149 -0.5158  0.3117 -0.1670
  815TIP3    H123936   1.957   5.090  12.084 -0.1295  2.1327 -2.2956
  815TIP3    H223937   2.056   5.162  12.173 -0.3766  0.5733 -0.7045
  816TIP3   OH223938   2.514   5.351  11.861  0.4940  0.1089 -0.5041
  816TIP3    H123939   2.568   5.367  11.784  0.7661 -0.3361 -0.4116
  816TIP3    H223940   2.425   5.346  11.827  0.5086  0.8367 -0.6586
  817TIP3   OH223941   5.021   1.431  12.027 -0.2623  0.3349  0.0526
  817TIP3    H123942   5.056   1.445  12.115  0.0019  0.2279 -0.0336
  817TIP3    H223943   5.082   1.370  11.986  0.0367  0.9710 -0.4651
  818TIP3   OH223944   6.287   3.722   0.705 -0.6742  0.0624 -0.0873
  818TIP3    H123945   6.300   3.661   0.632 -1.1610  1.4569 -1.3985
  818TIP3    H223946   6.197   3.754   0.694 -0.7199  0.3729  1.0697
  819TIP3   OH223947   0.830   0.776   0.856  0.1798 -0.0415  0.2318
  819TIP3    H123948   0.767   0.841   0.884 -0.0745 -0.9916  2.0537
  819TIP3    H223949   0.838   0.788   0.761 -1.5662  1.0866  0.1936
  820TIP3   OH223950   2.586   1.504   3.388 -0.9661 -0.1732 -0.0296
  820TIP3    H123951   2.528   1.480   3.461  0.0137 -0.9977  0.5133
  820TIP3    H223952   2.538   1.480   3.310 -1.6591 -0.1552  0.3822
  821TIP3   OH223953   0.754   5.785  13.403  0.1583 -0.1908  0.0166
  821TIP3    H123954   0.819   5.741  13.459  0.5841  0.3975 -0.0086
  821TIP3    H223955   0.744   5.872  13.441  1.2255  0.5891 -1.4133
  822TIP3   OH223956   4.132   4.855   0.557 -0.4046  0.0416 -0.2350
  822TIP3    H123957   4.119   4.922   0.490  2.2516 -0.1075 -1.0051
  822TIP3    H223958   4.073   4.880   0.628  0.0679  2.8771 -0.7277
  823TIP3   OH223959   6.287   3.970   4.226  0.1178  0.2121 -0.0050
  823TIP3    H123960   6.356   3.907   4.242  0.3038  0.4712  0.2186
  823TIP3    H223961   6.235   3.932   4.155 -1.3642 -1.4681  1.8761
  824TIP3   OH223962   2.691   4.639  17.423  0.6214 -0.2732 -0.1556
  824TIP3    H123963   2.690   4.556  17.374  0.0535  0.0890 -0.7746
  824TIP3    H223964   2.721   4.614  17.510 -0.4386 -1.3011 -0.0594
  825TIP3   OH223965   2.779   3.735  14.255  0.3727  0.1301 -0.1313
  825TIP3    H123966   2.860   3.712  14.301  0.8069  0.3395 -0.7742
  825TIP3    H223967   2.775   3.674  14.181 -1.2770 -1.4448  1.1785
  826TIP3   OH223968   3.734   4.819  15.335  0.3802  0.0740 -0.0693
  826TIP3    H123969   3.662   4.803  15.274  0.3655 -1.4555  0.3257
  826TIP3    H223970   3.697   4.805  15.422  1.6973 -3.5512  0.0920
  827TIP3   OH223971   5.705   4.937   1.871  0.5061 -0.4327 -0.1484
  827TIP3    H123972   5.753   4.873   1.924 -0.0720  0.4154  1.4595
  827TIP3    H223973   5.631   4.962   1.925 -1.0296 -0.6815 -2.0166
  828TIP3   OH223974   0.840   2.074  17.361  0.2294  0.0985  0.1177
  828TIP3    H123975   0.919   2.124  17.340  0.5617 -1.0839 -1.6352
  828TIP3    H223976   0.872   2.001  17.414  0.2594 -0.1520 -0.2432
  829TIP3   OH223977   5.963   1.176   3.243 -0.0773 -0.4752 -0.2758
  829TIP3    H123978   5.929   1.207   3.159 -2.0920  1.8394  1.2699
  829TIP3    H223979   5.887   1.173   3.300  1.5315 -0.1125  2.0142
  830TIP3   OH223980   6.363   0.005   5.581  0.3845  0.3051 -0.0112
  830TIP3    H123981   6.314  -0.049   5.643 -0.3006 -1.2505 -1.8010
  830TIP3    H223982   6.423  -0.057   5.538 -0.5275  0.8670 -2.2388
  831TIP3   OH223983   4.318   5.137  16.575  0.3508  0.2409 -0.0247
  831TIP3    H123984   4.328   5.082  16.497  0.6005  2.1896 -1.4339
  831TIP3    H223985   4.398   5.123  16.625  1.1132  0.4671 -1.1441
  832TIP3   OH223986   0.466   0.754  16.562 -0.4275  0.0662  0.6909
  832TIP3    H123987   0.558   0.777  16.572  0.0935 -1.8718  0.6733
  832TIP3    H223988   0.445   0.777  16.471  0.9825 -2.3518 -0.3499
  833TIP3   OH223989   4.877   6.066  11.647 -0.4482  0.1656 -0.0100
  833TIP3    H123990   4.904   6.003  11.714  2.1603  1.0865 -0.0619
  833TIP3    H223991   4.898   6.024  11.564 -0.6052  0.2962 -0.1176
  834TIP3   OH223992   0.178   6.530   2.322  0.1722  0.6195 -0.1906
  834TIP3    H123993   0.238   6.465   2.358 -0.8974 -0.4578 -0.2662
  834TIP3    H223994   0.093   6.506   2.359 -0.1910  2.1882  0.0263
  835TIP3   OH223995   3.738   1.620   2.333  0.8563 -0.2433  0.1418
  835TIP3    H123996   3.767   1.704   2.298 -0.2066  0.2483  0.4293
  835TIP3    H223997   3.725   1.565   2.255  0.4403  0.2166 -0.1118
  836TIP3   OH223998   5.969   1.560   0.047 -0.1697  0.1773  0.8757
  836TIP3    H123999   6.004   1.628  -0.011 -3.1897  2.3976  1.3804
  836TIP3    H224000   6.016   1.572   0.130  1.5192 -0.5220  0.0662
  837TIP3   OH224001   6.715   1.744   3.203 -0.1885 -0.0870  0.8008
  837TIP3    H124002   6.806   1.773   3.209 -0.1235 -0.4092  1.4907
  837TIP3    H224003   6.665   1.813   3.246 -0.3206  0.2742  0.0891
  838TIP3   OH224004   1.173   0.549  15.225 -0.3697  0.2778  0.0933
  838TIP3    H124005   1.148   0.462  15.194  0.9008  0.8034 -2.6529
  838TIP3    H224006   1.119   0.609  15.173 -0.1136  1.1711  0.8392
  839TIP3   OH224007   5.118   2.684  10.886 -0.6295 -0.2717 -0.0401
  839TIP3    H124008   5.095   2.776  10.874 -1.3281 -0.2590  1.2110
  839TIP3    H224009   5.204   2.686  10.929 -0.5815 -0.2121 -0.1387
  840TIP3   OH224010   6.057   0.459  14.627 -0.1345  0.0051 -0.1458
  840TIP3    H124011   5.991   0.526  14.644 -1.7470 -1.1768 -1.4153
  840TIP3    H224012   6.105   0.491  14.551  1.1943  1.1141  1.0867
  841TIP3   OH224013   0.558   1.505  16.713 -0.2516 -0.5997 -0.1627
  841TIP3    H124014   0.526   1.533  16.799 -0.4718 -1.7235  0.1361
  841TIP3    H224015   0.608   1.580  16.681  0.0361 -0.2458  1.0543
  842TIP3   OH224016   1.482   4.727   1.561 -0.1145 -0.0382 -0.9123
  842TIP3    H124017   1.422   4.794   1.594 -0.0086  0.3502 -1.4831
  842TIP3    H224018   1.540   4.709   1.634 -1.8893 -1.6057  0.1965
  843TIP3   OH224019   3.008   6.755  12.241  0.6363  0.5074  0.3671
  843TIP3    H124020   3.063   6.695  12.191 -0.6314  0.4500 -1.0182
  843TIP3    H224021   3.003   6.834  12.187 -2.1315 -0.1661 -0.5095
  844TIP3   OH224022   2.256   0.065   4.476  0.6300 -0.0830  0.5762
  844TIP3    H124023   2.262   0.141   4.534  0.7258  0.1881  0.2150
  844TIP3    H224024   2.317   0.084   4.405 -0.4173  0.1830 -0.2831
  845TIP3   OH224025   2.710   4.431   1.962  0.8437  0.1186  0.2640
  845TIP3    H124026   2.714   4.420   2.057 -0.8567 -1.2043  0.2323
  845TIP3    H224027   2.651   4.506   1.949 -1.2908 -1.4487  0.2868
  846TIP3   OH224028   3.111   2.149  14.208  0.4277 -0.0355  0.0852
  846TIP3    H124029   3.196   2.153  14.251  0.0435 -0.4978  0.9171
  846TIP3    H224030   3.130   2.120  14.119  0.9535 -2.2354  0.8599
  847TIP3   OH224031   5.771   3.890  16.265 -0.6658 -0.2650  0.1222
  847TIP3    H124032   5.787   3.901  16.359  1.4363 -3.0732  0.2192
  847TIP3    H224033   5.694   3.834  16.261 -1.3140  0.6008  0.0913
  848TIP3   OH224034   2.087   6.390   2.671 -0.1056  0.0301 -0.2082
  848TIP3    H124035   2.055   6.305   2.701  0.1677 -0.2725 -0.7568
  848TIP3    H224036   2.014   6.428   2.622 -0.4248  0.3646  0.5191
  849TIP3   OH224037   1.873   2.781   4.139 -0.2197 -0.3941 -0.1244
  849TIP3    H124038   1.799   2.747   4.189  1.7610 -2.1347  1.8670
  849TIP3    H224039   1.892   2.713   4.074 -1.1425  0.6736 -1.5819
  850TIP3   OH224040   3.889   0.603   3.709  0.0627 -0.7205 -0.1613
  850TIP3    H124041   3.859   0.682   3.755  0.7587 -0.2331 -0.5300
  850TIP3    H224042   3.984   0.614   3.702  0.2308 -1.7975  0.1610
  851TIP3   OH224043   3.099   3.138   4.048  0.3148 -0.4584  0.0159
  851TIP3    H124044   3.113   3.160   4.140  2.4624 -1.4715 -0.0166
  851TIP3    H224045   3.151   3.203   4.000  1.2160 -1.4141 -0.3423
  852TIP3   OH224046   4.400   2.027   5.135 -0.0599  0.3386  0.3995
  852TIP3    H124047   4.406   2.044   5.229 -1.9384 -0.4121  0.7036
  852TIP3    H224048   4.307   2.009   5.119  0.1415  0.7903 -1.6721
  853TIP3   OH224049   2.493   5.411   6.237  0.2167 -0.0031  0.1767
  853TIP3    H124050   2.548   5.389   6.313  1.1064 -0.3052 -0.5465
  853TIP3    H224051   2.553   5.453   6.176  0.3943 -3.0454 -1.9399
  854TIP3   OH224052   4.679   6.343  14.747  0.1304  0.1735  0.3314
  854TIP3    H124053   4.634   6.264  14.778 -1.0412  0.0061 -1.6358
  854TIP3    H224054   4.725   6.376  14.824 -0.9328 -1.3493  1.6853
  855TIP3   OH224055   1.495   1.492   5.565 -0.1963  0.6767 -0.0561
  855TIP3    H124056   1.469   1.573   5.608  0.1872  1.1299 -0.6595
  855TIP3    H224057   1.488   1.425   5.633 -1.2136  1.0835  0.2519
  856TIP3   OH224058   1.644   5.089  13.491 -0.5446 -0.0491 -0.5869
  856TIP3    H124059   1.696   5.163  13.523 -1.0701  0.4897 -0.9543
  856TIP3    H224060   1.708   5.021  13.473 -0.1692 -0.2064  1.1231
  857TIP3   OH224061   5.816   3.062  16.820  0.3985 -0.3275 -0.0032
  857TIP3    H124062   5.727   3.026  16.818 -0.7584  2.0897  2.0190
  857TIP3    H224063   5.868   2.994  16.862 -1.6193 -0.0423  3.3771
  858TIP3   OH224064   2.803   6.203  14.323  0.0217  0.5367  0.2802
  858TIP3    H124065   2.824   6.202  14.417  0.4896 -0.1260  0.1782
  858TIP3    H224066   2.800   6.110  14.299 -1.7314  0.6374 -0.0105
  859TIP3   OH224067   2.586   2.261   1.860 -0.1781  0.3142  0.0345
  859TIP3    H124068   2.574   2.245   1.766 -1.2395  0.0748  0.1963
  859TIP3    H224069   2.619   2.350   1.865  1.1229 -0.1055 -0.6257
  860TIP3   OH224070   5.662   2.136   0.354  0.3992 -0.1991  0.2357
  860TIP3    H124071   5.647   2.168   0.265  0.5367 -0.1230  0.2405
  860TIP3    H224072   5.631   2.208   0.410 -1.0118 -0.7882  0.2746
  861TIP3   OH224073   5.852   2.772  11.952  0.1957  0.6077 -0.0396
  861TIP3    H124074   5.933   2.821  11.943  0.7177 -0.3089 -0.4060
  861TIP3    H224075   5.834   2.739  11.865  0.0020 -0.0850  0.2583
  862TIP3   OH224076   5.288   4.843   3.095 -0.1532  0.2533  0.6973
  862TIP3    H124077   5.220   4.803   3.040 -0.3765 -0.4962  1.4934
  862TIP3    H224078   5.364   4.851   3.037 -0.8504  0.9189 -0.1545
  863TIP3   OH224079   3.819   5.822  12.784  0.0661  0.4182  0.6945
  863TIP3    H124080   3.818   5.794  12.693 -0.6455 -0.1310  0.8579
  863TIP3    H224081   3.909   5.811  12.812  0.4516  1.2949 -0.1476
  864TIP3   OH224082   4.976   6.713  12.930 -0.1364  0.2357 -0.5891
  864TIP3    H124083   4.892   6.674  12.952  0.3924 -0.6268 -0.0470
  864TIP3    H224084   5.033   6.694  13.005  1.0328 -0.7110 -1.6693
  865TIP3   OH224085   6.737   5.031   1.491 -0.1861  0.4387  0.3115
  865TIP3    H124086   6.694   4.949   1.468  3.2779 -1.2892 -0.8275
  865TIP3    H224087   6.717   5.090   1.419 -1.4641  0.0556  0.3395
  866TIP3   OH224088   2.502   1.034  10.970 -0.3412 -0.8992  0.5809
  866TIP3    H124089   2.586   1.079  10.964 -0.5501 -0.1243  2.6046
  866TIP3    H224090   2.449   1.072  10.900  0.8902 -1.2285 -0.5616
  867TIP3   OH224091   4.897   1.342   0.615 -0.4294 -0.0090  0.6201
  867TIP3    H124092   4.926   1.425   0.578 -0.4224 -0.2068  0.1728
  867TIP3    H224093   4.851   1.298   0.543 -2.5076  0.6013  1.4895
  868TIP3   OH224094   5.033   3.248  14.827  0.4539  0.4788 -0.7963
  868TIP3    H124095   4.979   3.211  14.897 -0.5552  1.2935 -1.1122
  868TIP3    H224096   4.982   3.322  14.794  0.7853 -0.0070 -2.5451
  869TIP3   OH224097   1.314   4.874   0.530  0.2177 -0.0564  0.3768
  869TIP3    H124098   1.378   4.811   0.497 -0.0117 -0.5619  0.8881
  869TIP3    H224099   1.230   4.833   0.515  0.0686  0.0955  0.7914
  870TIP3   OH224100   4.066   6.769  16.643 -0.1189 -0.0059 -0.1487
  870TIP3    H124101   4.012   6.719  16.582 -1.0286  1.3456 -0.4661
  870TIP3    H224102   4.019   6.850  16.657  1.9379  1.3461 -0.6414
  871TIP3   OH224103   4.021   5.381   3.491 -0.0261  0.0159  0.3788
  871TIP3    H124104   4.096   5.399   3.548  1.1052  2.2138 -1.6386
  871TIP3    H224105   4.043   5.299   3.447  1.3600  0.7272 -0.3310
  872TIP3   OH224106   4.772   3.180   0.685 -0.0221  0.3121 -0.7412
  872TIP3    H124107   4.743   3.110   0.743  0.5253  0.8146  0.1556
  872TIP3    H224108   4.850   3.145   0.642  0.8709  0.7258  0.4868
  873TIP3   OH224109   3.816   3.843   1.070  0.2167 -0.7727 -0.1891
  873TIP3    H124110   3.847   3.889   0.992 -0.3577  0.3368  0.2261
  873TIP3    H224111   3.752   3.902   1.110 -2.1865 -2.7789 -0.7869
  874TIP3   OH224112   5.835   6.362  13.027  0.1130 -0.1198 -0.7259
  874TIP3    H124113   5.774   6.329  12.961  0.9113 -0.0455 -1.5222
  874TIP3    H224114   5.791   6.437  13.066  0.1381  0.6032 -2.0482
  875TIP3   OH224115   1.372   3.026  17.492  0.0618 -0.0523  0.1393
  875TIP3    H124116   1.391   3.117  17.468 -0.7691  0.2435  0.5649
  875TIP3    H224117   1.290   3.006  17.448 -1.8631  0.7044  3.0547
  876TIP3   OH224118   0.525   6.661  13.625  1.0031  0.0722 -0.7062
  876TIP3    H124119   0.465   6.592  13.596 -0.1964  0.6925  0.2104
  876TIP3    H224120   0.473   6.714  13.685  2.8070 -0.0083  1.0304
  877TIP3   OH224121   3.145   6.737   1.972  0.0752 -0.0616  0.0555
  877TIP3    H124122   3.109   6.679   1.906  1.8033 -2.3402  0.9565
  877TIP3    H224123   3.239   6.722   1.968  0.6176  2.7029  0.4100
  878TIP3   OH224124   2.899   3.892  13.276 -0.4477 -0.5180 -0.3648
  878TIP3    H124125   2.807   3.881  13.299 -0.0685 -0.3654  1.3395
  878TIP3    H224126   2.947   3.880  13.358  1.0259 -0.1509 -1.1225
  879TIP3   OH224127   0.635   4.256  12.636 -0.2925  0.0647  0.2033
  879TIP3    H124128   0.694   4.302  12.696 -1.7979  1.3844  0.7416
  879TIP3    H224129   0.551   4.301  12.645 -0.9238 -0.5541 -1.9229
  880TIP3   OH224130   0.286   0.632  14.588 -0.5059 -0.7844 -0.2880
  880TIP3    H124131   0.275   0.656  14.496 -1.5837 -1.0432 -0.2395
  880TIP3    H224132   0.252   0.543  14.594  4.2325 -2.9073 -0.6405
  881TIP3   OH224133   2.353   2.669   2.714 -0.1010 -0.1921  0.2499
  881TIP3    H124134   2.443   2.689   2.690  0.0772 -1.0545  0.1795
  881TIP3    H224135   2.359   2.590   2.767 -0.8681 -0.6249 -0.2883
  882TIP3   OH224136   2.319   2.436   0.399 -0.3714 -0.2340  0.1219
  882TIP3    H124137   2.336   2.521   0.358 -0.5458  0.4922  1.5051
  882TIP3    H224138   2.236   2.407   0.360 -0.3976  0.3023 -0.2406
  883TIP3   OH224139   1.028   4.122   3.518  0.2373  0.0991  0.4814
  883TIP3    H124140   1.092   4.138   3.448 -1.2833 -0.2104 -1.0409
  883TIP3    H224141   1.080   4.123   3.598  1.9285  1.2928 -0.5561
  884TIP3   OH224142   6.250   3.948   4.507 -0.0241  0.3593 -1.0754
  884TIP3    H124143   6.242   3.978   4.416 -0.8845  0.1385 -1.0807
  884TIP3    H224144   6.344   3.944   4.523  0.1281  0.9588 -1.7747
  885TIP3   OH224145   6.419   4.268  10.906  0.5740  0.2171 -0.4085
  885TIP3    H124146   6.497   4.316  10.933  0.7186  1.3977 -2.6816
  885TIP3    H224147   6.349   4.334  10.907  0.3835  0.0557 -1.7842
  886TIP3   OH224148   5.953   2.508  15.785 -0.2027  0.1484 -0.2935
  886TIP3    H124149   5.907   2.533  15.865  0.9660  1.0989  0.1297
  886TIP3    H224150   5.924   2.419  15.766 -1.4416  0.3678  0.4806
  887TIP3   OH224151   4.010   3.763  11.754  0.8480  0.0361  0.3844
  887TIP3    H124152   4.075   3.798  11.692  0.5972 -1.0572 -0.5323
  887TIP3    H224153   4.061   3.712  11.816  0.9859  0.2222  0.4273
  888TIP3   OH224154   3.152   0.809  12.961 -0.1827  0.0948 -0.4239
  888TIP3    H124155   3.136   0.820  12.867  0.2944 -0.3649 -0.5664
  888TIP3    H224156   3.140   0.715  12.976 -0.8358  0.2506  0.0948
  889TIP3   OH224157   3.561   1.667  14.552 -0.1716 -0.4535 -0.0063
  889TIP3    H124158   3.556   1.727  14.478  0.5233  0.2992  0.5516
  889TIP3    H224159   3.649   1.630  14.549 -0.5836 -1.4465 -0.3350
  890TIP3   OH224160   5.166   5.511  15.399 -0.2816  0.6542 -0.2132
  890TIP3    H124161   5.165   5.479  15.309 -2.2314  1.5069 -0.5397
  890TIP3    H224162   5.257   5.539  15.413 -0.0910  1.1623 -2.1461
  891TIP3   OH224163   0.361   0.547   0.632 -0.9076 -0.3414  0.0733
  891TIP3    H124164   0.421   0.508   0.696 -2.0305 -1.1932  0.6479
  891TIP3    H224165   0.297   0.478   0.614 -0.8947  0.0538 -1.6254
  892TIP3   OH224166   2.726   4.392  13.278  0.0508  0.5882 -0.0505
  892TIP3    H124167   2.763   4.389  13.366  1.2703  0.4945 -0.5538
  892TIP3    H224168   2.718   4.300  13.252 -1.0911  0.5791  0.2595
  893TIP3   OH224169   6.404   2.429  12.864  0.1737  0.1402 -0.2931
  893TIP3    H124170   6.416   2.480  12.944  0.0381  0.3875 -0.4306
  893TIP3    H224171   6.483   2.375  12.858 -0.0652 -0.2914  0.3046
  894TIP3   OH224172   1.796   3.792  11.122  0.5098  0.3416  0.0107
  894TIP3    H124173   1.754   3.811  11.205 -1.4970  1.8073 -1.2329
  894TIP3    H224174   1.799   3.696  11.118 -0.5150  0.2383  1.2136
  895TIP3   OH224175   2.119   5.535  16.548 -0.5328 -0.1000  0.2680
  895TIP3    H124176   2.175   5.466  16.582 -0.6538 -0.9270 -1.1122
  895TIP3    H224177   2.175   5.584  16.488 -1.0644 -0.4925 -0.5743
  896TIP3   OH224178   1.326   5.246  11.461  0.2262 -0.0041  0.0230
  896TIP3    H124179   1.272   5.245  11.383  1.2523  0.8393 -0.7189
  896TIP3    H224180   1.359   5.335  11.467 -0.0905  0.0407  1.6089
  897TIP3   OH224181   4.738   0.489  11.148  0.1376 -0.2991 -0.0441
  897TIP3    H124182   4.705   0.410  11.106 -1.9543  0.8780 -0.7964
  897TIP3    H224183   4.802   0.524  11.087 -0.8189 -0.0927 -0.9576
  898TIP3   OH224184   1.070   6.490  11.257 -0.3384  0.1756  0.1762
  898TIP3    H124185   1.116   6.526  11.332 -1.7392  0.2304  1.0363
  898TIP3    H224186   1.008   6.428  11.294 -2.3854  1.5782 -0.7194
  899TIP3   OH224187   3.153   3.016   3.708 -0.1055  0.2547 -0.6760
  899TIP3    H124188   3.132   3.013   3.801  1.0880  1.4971 -0.3263
  899TIP3    H224189   3.204   2.937   3.693 -0.4264 -0.0278 -0.3048
  900TIP3   OH224190   6.389   3.226   2.552  0.1580  0.1565  0.5721
  900TIP3    H124191   6.334   3.301   2.577  0.0272  0.3491 -0.2589
  900TIP3    H224192   6.476   3.264   2.538 -0.1421  0.3766 -0.9230
  901TIP3   OH224193   2.825   2.038  11.752  0.4464  0.3030  0.5647
  901TIP3    H124194   2.889   1.972  11.724 -0.7190  0.3765 -2.6708
  901TIP3    H224195   2.740   1.995  11.744 -0.1450  1.2926  1.2789
  902TIP3   OH224196   1.462   4.455   5.339  0.0802  0.4054  0.7710
  902TIP3    H124197   1.383   4.430   5.291 -1.0666  2.6820  1.3437
  902TIP3    H224198   1.504   4.521   5.283  2.3130 -1.6112 -0.1040
  903TIP3   OH224199   4.098   2.524   3.334  0.6728 -0.5942  0.2457
  903TIP3    H124200   4.031   2.551   3.397  1.5972 -0.9211  1.4129
  903TIP3    H224201   4.062   2.548   3.249  0.1802  1.6356  1.0115
  904TIP3   OH224202   2.526   5.862   3.344 -0.1020 -0.1109 -0.2405
  904TIP3    H124203   2.562   5.860   3.255  0.7950 -0.5379  0.1153
  904TIP3    H224204   2.522   5.770   3.371 -0.1062  0.0315  0.2581
  905TIP3   OH224205   6.058   5.082   2.046  0.2608  0.3145  0.4626
  905TIP3    H124206   6.031   5.111   2.133 -0.8399 -0.1296  0.2779
  905TIP3    H224207   5.992   5.117   1.987  1.4918  1.4049 -0.3391
  906TIP3   OH224208   1.461   1.168  17.201  0.4302  0.0867 -0.1503
  906TIP3    H124209   1.436   1.206  17.117  0.1511 -1.7518 -0.9613
  906TIP3    H224210   1.481   1.243  17.257  1.6342  1.3640 -2.1503
  907TIP3   OH224211   2.052   1.140  13.381 -0.3111  0.0010 -0.0470
  907TIP3    H124212   2.064   1.056  13.336 -1.0032 -0.1683  0.0613
  907TIP3    H224213   2.104   1.132  13.461  0.5916  0.1448 -0.6147
  908TIP3   OH224214   4.824   1.859  15.230 -0.5520  0.1764 -0.2234
  908TIP3    H124215   4.761   1.915  15.275  0.3379  0.3933  0.7802
  908TIP3    H224216   4.886   1.919  15.189 -0.8959 -0.0396 -1.0783
  909TIP3   OH224217   6.621   5.303   2.297  0.6008  0.0451 -0.5748
  909TIP3    H124218   6.564   5.291   2.373  1.7626 -0.4200  0.2467
  909TIP3    H224219   6.631   5.215   2.260  1.5996 -0.0497 -0.1024
  910TIP3   OH224220   3.400   0.484  11.927  0.4278  0.0330  0.4431
  910TIP3    H124221   3.388   0.578  11.942  2.0850  0.5417 -1.0812
  910TIP3    H224222   3.381   0.444  12.011  1.0541  1.8864  1.5297
  911TIP3   OH224223   0.503   0.044  16.445  0.6134 -0.1366  0.3905
  911TIP3    H124224   0.440   0.115  16.430 -1.7295 -2.0756  0.2615
  911TIP3    H224225   0.482   0.013  16.533  2.9226  0.4878  1.2290
  912TIP3   OH224226   2.557   2.702  13.457  0.2682 -0.3785 -0.1153
  912TIP3    H124227   2.614   2.721  13.383 -0.3480  1.1136 -0.2384
  912TIP3    H224228   2.563   2.780  13.513 -0.5919 -0.7688  0.5495
  913TIP3   OH224229   3.832   5.574  11.741 -0.7027  0.1707 -0.2196
  913TIP3    H124230   3.904   5.515  11.764  1.7551  2.0591 -2.3873
  913TIP3    H224231   3.779   5.523  11.679 -0.3204 -0.7073  0.1518
  914TIP3   OH224232   1.745   2.311   3.006 -0.5527  0.4906 -0.1352
  914TIP3    H124233   1.721   2.371   3.077  0.4052 -0.6019  1.1717
  914TIP3    H224234   1.840   2.305   3.011 -0.6427 -1.3384 -0.0402
  915TIP3   OH224235   1.869   6.154  15.822 -0.1531 -0.0446  0.2197
  915TIP3    H124236   1.936   6.086  15.825  3.9837  3.6294  0.4561
  915TIP3    H224237   1.816   6.139  15.900  0.3253 -3.0583  0.0846
  916TIP3   OH224238   2.468   6.487   4.601 -0.1980 -1.1010 -0.0024
  916TIP3    H124239   2.514   6.410   4.569  2.4297 -0.2606  1.4359
  916TIP3    H224240   2.516   6.561   4.563  0.2949 -0.1708  2.2378
  917TIP3   OH224241   3.112   4.472  17.233  0.1938  0.6636 -0.2034
  917TIP3    H124242   3.096   4.461  17.327  2.4425  0.3802  0.2043
  917TIP3    H224243   3.180   4.409  17.213 -0.7963  0.1800 -2.2381
  918TIP3   OH224244   1.869   4.764  12.698  0.3775 -0.4799  0.4729
  918TIP3    H124245   1.931   4.823  12.741  0.8726 -0.1057 -0.7267
  918TIP3    H224246   1.903   4.753  12.610 -0.4981 -1.4252  0.2315
  919TIP3   OH224247   0.743   5.087   6.808  0.3402 -0.4712 -0.0621
  919TIP3    H124248   0.787   5.172   6.807  0.3221 -0.4613 -0.0065
  919TIP3    H224249   0.684   5.091   6.883 -0.4507 -0.1327 -0.6944
  920TIP3   OH224250   4.069   5.626  14.947 -0.0806  0.1215 -0.6686
  920TIP3    H124251   4.023   5.543  14.944  0.9273 -0.4981  0.1021
  920TIP3    H224252   4.151   5.606  14.993  0.3729  1.4443 -0.8539
  921TIP3   OH224253   6.402   1.363  12.814 -0.9234 -0.3966  0.0515
  921TIP3    H124254   6.489   1.366  12.774 -0.1597 -0.6463  1.6470
  921TIP3    H224255   6.357   1.440  12.777  0.7214  1.0168  0.8364
  922TIP3   OH224256   4.541   1.325  13.843  0.6430 -0.0572  0.3801
  922TIP3    H124257   4.503   1.321  13.755  1.2960 -0.2188  0.0972
  922TIP3    H224258   4.623   1.275  13.836  0.2225 -0.9226  1.3267
  923TIP3   OH224259   3.306   6.316   6.125 -0.0903 -0.6737 -0.3059
  923TIP3    H124260   3.305   6.223   6.144 -1.1045 -0.6877 -0.4008
  923TIP3    H224261   3.277   6.358   6.206 -3.2153 -0.6652 -1.3114
  924TIP3   OH224262   3.409   5.294  11.561  0.4444 -0.4139  0.2086
  924TIP3    H124263   3.323   5.263  11.590  0.2812  2.2038  3.1440
  924TIP3    H224264   3.390   5.365  11.500  0.3166  1.5121  2.3642
  925TIP3   OH224265   0.129   0.563  14.294  0.7792 -0.8950 -0.3287
  925TIP3    H124266   0.078   0.482  14.286  1.7565 -1.3441 -2.6293
  925TIP3    H224267   0.201   0.553  14.232  2.9493  0.3123  1.7986
  926TIP3   OH224268   1.770   5.547  14.004 -0.4920  0.8860 -0.2798
  926TIP3    H124269   1.801   5.600  14.077 -0.8720 -1.8901  2.0356
  926TIP3    H224270   1.677   5.532  14.022 -0.7488  0.6006 -1.6722
  927TIP3   OH224271   3.058   5.562   0.056 -0.3363  0.0128 -0.4113
  927TIP3    H124272   3.093   5.587  -0.029 -1.0987 -0.8876 -1.0038
  927TIP3    H224273   2.971   5.526   0.037 -0.9378  0.7201  0.8492
  928TIP3   OH224274   3.134   0.570  14.787 -0.3300 -0.0417  0.0162
  928TIP3    H124275   3.067   0.522  14.738 -0.7168  0.9949 -0.5004
  928TIP3    H224276   3.189   0.610  14.720 -0.7498  1.2402  0.4044
  929TIP3   OH224277   0.675   2.532   4.948 -0.2524 -0.2165  0.4093
  929TIP3    H124278   0.659   2.449   4.994 -0.2283  0.0602  0.9272
  929TIP3    H224279   0.592   2.552   4.905 -0.3689 -0.3335  0.5765
  930TIP3   OH224280   6.451   3.852  13.743 -0.3074 -0.0110 -0.3527
  930TIP3    H124281   6.429   3.858  13.837  0.4246 -0.5903 -0.1363
  930TIP3    H224282   6.545   3.870  13.740 -0.2062 -0.6431 -0.9087
  931TIP3   OH224283   6.309   3.533   1.965 -0.1350 -0.1528 -0.6090
  931TIP3    H124284   6.349   3.505   2.047  0.4460  0.4503 -0.6788
  931TIP3    H224285   6.245   3.465   1.945  0.8546 -1.1394 -0.4932
  932TIP3   OH224286   5.699   4.020  13.820 -0.2655  0.1483  0.4220
  932TIP3    H124287   5.724   4.096  13.873  0.6925  0.2850 -0.2021
  932TIP3    H224288   5.642   4.055  13.752  0.7290  0.4454 -0.2803
  933TIP3   OH224289   2.404   0.360   5.531 -1.4131 -0.0913  0.1419
  933TIP3    H124290   2.412   0.406   5.614 -1.4527 -0.1470  0.1761
  933TIP3    H224291   2.349   0.418   5.477 -2.0852 -0.4516  0.4359
  934TIP3   OH224292   4.143   6.363  16.607  0.1227  0.0598 -0.3154
  934TIP3    H124293   4.097   6.383  16.689  0.3026 -0.2185 -0.1455
  934TIP3    H224294   4.075   6.364  16.540 -0.1389 -0.3665 -0.0631
  935TIP3   OH224295   0.528   3.299   0.014 -0.0920 -0.2467  0.0025
  935TIP3    H124296   0.479   3.361   0.068 -1.8495 -1.4369 -0.1309
  935TIP3    H224297   0.562   3.235   0.076  2.1185  1.0119  0.1986
  936TIP3   OH224298   1.341   0.541   5.819 -0.8245  0.0167 -0.1779
  936TIP3    H124299   1.402   0.610   5.845 -0.2867 -0.6060  0.2559
  936TIP3    H224300   1.356   0.529   5.726  0.7819 -1.1350  0.1962
  937TIP3   OH224301   0.370   4.718   4.077 -0.0058  0.3993  0.4328
  937TIP3    H124302   0.375   4.812   4.066 -0.2231  0.3201 -0.3709
  937TIP3    H224303   0.383   4.682   3.989  0.1040 -0.3196  0.7326
  938TIP3   OH224304   5.414   6.252  14.677  0.7465 -0.2008  0.1792
  938TIP3    H124305   5.377   6.328  14.632  0.0084 -1.0160 -0.6052
  938TIP3    H224306   5.348   6.226  14.740  0.6776 -0.6502 -0.0756
  939TIP3   OH224307   5.728   0.053   2.345  0.5481  1.2354 -0.0888
  939TIP3    H124308   5.634   0.066   2.358  0.2135 -1.8868  1.4659
  939TIP3    H224309   5.760   0.028   2.431  2.1177 -1.2117 -1.2980
  940TIP3   OH224310   6.384   3.065  15.687 -0.1672 -0.1697  0.0173
  940TIP3    H124311   6.438   3.053  15.765  0.9232 -1.3517 -0.8968
  940TIP3    H224312   6.364   3.159  15.687 -1.4810 -0.3547  2.5163
  941TIP3   OH224313   6.354   2.091   5.583 -0.1805  1.0597 -0.3240
  941TIP3    H124314   6.332   2.006   5.545  3.3812 -0.3018  0.3080
  941TIP3    H224315   6.393   2.140   5.510 -1.8224  2.0583 -0.5775
  942TIP3   OH224316   0.081   5.554   5.045  0.2109  0.0843 -0.3826
  942TIP3    H124317   0.054   5.645   5.049  1.4694  0.4848 -0.6239
  942TIP3    H224318   0.038   5.512   5.120 -1.3525  0.5891 -0.9751
  943TIP3   OH224319   6.319   4.543   3.626  0.0745 -0.0672  0.1741
  943TIP3    H124320   6.281   4.473   3.678 -0.6179 -2.9512 -3.6969
  943TIP3    H224321   6.414   4.535   3.640  0.1270 -2.8822 -1.1836
  944TIP3   OH224322   1.931   5.451   1.824  0.0460  0.0917  0.4632
  944TIP3    H124323   2.017   5.436   1.787 -0.5603 -0.3455 -0.8336
  944TIP3    H224324   1.873   5.462   1.748 -1.3307 -1.3603  1.2169
  945TIP3   OH224325   3.849   2.980   1.381  0.1352  0.9782  0.2241
  945TIP3    H124326   3.831   2.932   1.462 -0.6119 -2.1954 -1.6304
  945TIP3    H224327   3.936   3.018   1.395 -0.0135  0.6645  2.5275
  946TIP3   OH224328   6.085   3.809  13.537  1.0541 -0.3329  0.0848
  946TIP3    H124329   6.074   3.828  13.444 -0.9278  1.7269  0.6526
  946TIP3    H224330   6.034   3.876  13.582  1.9910 -1.2230  2.6901
  947TIP3   OH224331   3.538   6.141   2.847 -0.2342 -0.4152  0.2865
  947TIP3    H124332   3.594   6.088   2.903  2.0482 -1.0799 -2.4199
  947TIP3    H224333   3.450   6.127   2.881  0.8999 -1.4008  3.1181
  948TIP3   OH224334   3.671   1.992  12.422 -0.0580 -0.4682  0.0912
  948TIP3    H124335   3.630   1.942  12.352 -0.1991 -0.2914  0.0466
  948TIP3    H224336   3.759   1.955  12.430  0.2899  0.1354 -0.8191
  949TIP3   OH224337   5.019   1.701   6.072 -0.2575  0.5023 -0.2310
  949TIP3    H124338   5.057   1.718   5.985 -1.5092 -0.0881 -0.9162
  949TIP3    H224339   4.957   1.773   6.085 -0.3614  0.3692  0.0095
  950TIP3   OH224340   3.175   0.393   3.177  0.2449  0.2578  1.0407
  950TIP3    H124341   3.161   0.483   3.208 -0.0344  0.8793 -0.8062
  950TIP3    H224342   3.087   0.361   3.159  0.4224  0.0010  0.6358
  951TIP3   OH224343   1.859   6.374  11.496  0.3272  0.0951  0.1239
  951TIP3    H124344   1.782   6.321  11.479 -0.3691  0.8452  0.8672
  951TIP3    H224345   1.909   6.325  11.561  2.1154 -1.9265 -2.5321
  952TIP3   OH224346   1.056   2.805  16.163 -0.2978 -0.0861  0.1300
  952TIP3    H124347   0.980   2.749  16.177 -0.3237  0.5340  3.4695
  952TIP3    H224348   1.130   2.755  16.199  0.2062  0.7225  0.2497
  953TIP3   OH224349   4.893   2.007  17.234 -0.1902 -0.2160 -0.3487
  953TIP3    H124350   4.879   1.915  17.254 -1.2542  0.0244  0.0580
  953TIP3    H224351   4.889   2.012  17.138 -1.5590 -0.3780 -0.3120
  954TIP3   OH224352   5.952   1.281  14.896  0.1520  0.4747 -0.2006
  954TIP3    H124353   5.925   1.230  14.820  3.2069 -1.5572 -0.0476
  954TIP3    H224354   6.007   1.351  14.860 -0.7504  1.2986 -0.0418
  955TIP3   OH224355   2.185   4.156  13.577 -0.2402  0.2331  0.7396
  955TIP3    H124356   2.209   4.068  13.546 -0.8759 -0.0034  0.9042
  955TIP3    H224357   2.101   4.143  13.621 -0.1355  0.8543  1.1261
  956TIP3   OH224358   5.488   5.007  12.537 -0.1609 -0.0835  0.0213
  956TIP3    H124359   5.437   4.999  12.456 -1.8110  0.9687  0.8954
  956TIP3    H224360   5.476   4.923  12.581 -2.4995  0.6223  0.9032
  957TIP3   OH224361   6.175   3.693   4.496 -0.2987  0.4751 -0.1104
  957TIP3    H124362   6.092   3.689   4.543  0.3895  1.8358  1.3271
  957TIP3    H224363   6.191   3.787   4.484 -0.2307  0.2104 -2.7609
  958TIP3   OH224364   6.701   5.710   6.816  0.5942 -0.0952 -0.4331
  958TIP3    H124365   6.676   5.618   6.827  0.4894 -0.0046  0.0893
  958TIP3    H224366   6.638   5.759   6.869  1.4143  0.1872  0.2957
  959TIP3   OH224367   3.409   6.530  11.936 -0.1823  0.0121 -0.0504
  959TIP3    H124368   3.463   6.547  11.859  0.0401  1.3503  0.3701
  959TIP3    H224369   3.333   6.483  11.902 -0.6546  1.5840 -1.2851
  960TIP3   OH224370   2.082   5.852  16.186  0.2832  0.1049  0.2027
  960TIP3    H124371   2.119   5.865  16.273  1.1515 -1.8093  0.1805
  960TIP3    H224372   2.001   5.803  16.202 -0.1880  0.8013 -0.0064
  961TIP3   OH224373   5.261   4.010   6.250  0.4075 -0.4106  0.9292
  961TIP3    H124374   5.220   3.980   6.331 -1.3603  1.8627  0.9989
  961TIP3    H224375   5.299   4.095   6.273  0.0076  0.2034 -0.5333
  962TIP3   OH224376   4.505   4.487  17.489 -0.8614 -0.1515  0.0696
  962TIP3    H124377   4.422   4.464  17.447 -1.4962  1.2137  0.5181
  962TIP3    H224378   4.543   4.554  17.433 -0.7732  0.2919  0.6541
  963TIP3   OH224379   0.865   5.651  15.334  0.2461 -0.4353  0.6689
  963TIP3    H124380   0.797   5.626  15.272  1.0453  0.7210 -0.7319
  963TIP3    H224381   0.944   5.608  15.302  1.3066  2.4254 -0.8947
  964TIP3   OH224382   1.768   3.118   3.172  0.0289  0.4262 -1.2410
  964TIP3    H124383   1.753   3.189   3.110 -1.2287 -1.3475 -3.1258
  964TIP3    H224384   1.861   3.099   3.165  0.1228  1.0122 -1.7010
  965TIP3   OH224385   4.275   1.648   4.240 -0.7989  0.4927  0.0305
  965TIP3    H124386   4.331   1.699   4.181 -0.7353  0.3279 -0.0520
  965TIP3    H224387   4.299   1.677   4.327  0.2724 -0.4298  0.0694
  966TIP3   OH224388   6.351   4.198  14.454  0.2986  0.2779 -0.4197
  966TIP3    H124389   6.266   4.234  14.427  0.1531 -0.1653 -0.5580
  966TIP3    H224390   6.374   4.248  14.532 -0.6746 -0.4206  0.3490
  967TIP3   OH224391   2.538   6.483  11.120 -0.1718 -0.3519 -0.0244
  967TIP3    H124392   2.595   6.437  11.059  0.1023 -1.7285  1.2273
  967TIP3    H224393   2.525   6.569  11.080 -0.0813 -1.2308 -2.0527
  968TIP3   OH224394   0.172   5.124   5.311 -0.3885  0.3632 -0.3784
  968TIP3    H124395   0.233   5.147   5.241  0.3201 -0.5082 -0.0613
  968TIP3    H224396   0.114   5.200   5.318  1.0990  1.5472 -0.1973
  969TIP3   OH224397   6.511   5.411  11.800  0.6207  0.1773 -0.0286
  969TIP3    H124398   6.421   5.406  11.833  0.3484 -1.6827 -0.9322
  969TIP3    H224399   6.542   5.497  11.828 -2.3341  2.0411 -2.0240
  970TIP3   OH224400   5.824   4.223  14.453 -0.1988  0.5802 -0.1651
  970TIP3    H124401   5.802   4.241  14.544  0.1245  0.3953 -0.0478
  970TIP3    H224402   5.807   4.305  14.407  0.1085  0.8221  0.1473
  971TIP3   OH224403   2.548   2.208  15.146 -0.2728 -0.5838 -0.3015
  971TIP3    H124404   2.479   2.231  15.083  1.1439  2.6250 -0.8863
  971TIP3    H224405   2.512   2.232  15.231 -0.5630 -0.6784 -0.3977
  972TIP3   OH224406   1.485   2.673   3.829 -0.4105  0.4832 -0.0855
  972TIP3    H124407   1.519   2.585   3.812  1.2712  0.7587  1.5326
  972TIP3    H224408   1.501   2.722   3.749  1.0349 -0.0148 -0.1266
  973TIP3   OH224409   5.573   5.082   2.126 -0.0811  0.4192  0.0444
  973TIP3    H124410   5.555   5.079   2.220  1.0645  0.2207  0.2790
  973TIP3    H224411   5.508   5.024   2.087  0.4253 -0.7939  0.9119
  974TIP3   OH224412   4.100   6.727   0.249 -0.0343 -0.0596 -0.1811
  974TIP3    H124413   4.044   6.796   0.285 -0.9481 -0.5762 -0.5673
  974TIP3    H224414   4.188   6.763   0.253 -0.4757  1.0753 -0.2431
  975TIP3   OH224415   0.219   0.633   3.413  0.1179 -0.1884 -0.2875
  975TIP3    H124416   0.139   0.630   3.360  0.2635 -0.1452 -0.5094
  975TIP3    H224417   0.206   0.565   3.479 -0.3584  0.2124  0.0459
  976TIP3   OH224418   0.954   6.078  14.742  0.3304 -0.2540 -0.1115
  976TIP3    H124419   0.877   6.128  14.716  0.5294 -0.7382 -1.7185
  976TIP3    H224420   0.922   6.017  14.808 -0.5586 -0.1021 -0.3963
  977TIP3   OH224421   3.382   3.444  11.687  0.7493  0.4879  0.0685
  977TIP3    H124422   3.331   3.518  11.654 -1.2197 -0.8743 -0.0720
  977TIP3    H224423   3.398   3.390  11.610  0.2348 -0.3336  0.5281
  978TIP3   OH224424   5.976   3.021  11.559  0.4207 -0.5254 -0.0401
  978TIP3    H124425   6.066   2.986  11.562  1.3562  1.5575 -1.4874
  978TIP3    H224426   5.956   3.027  11.466 -0.7495  0.2292  0.2349
  979TIP3   OH224427   3.043   5.791  13.128 -0.1777  0.3268 -0.0052
  979TIP3    H124428   3.066   5.727  13.196 -1.4551 -1.6610 -1.3235
  979TIP3    H224429   2.977   5.846  13.170 -0.4819 -0.4647  0.5997
  980TIP3   OH224430   1.198   1.043  15.102  0.0867 -0.1560  0.4733
  980TIP3    H124431   1.265   0.975  15.093  1.3021  1.1850 -1.0955
  980TIP3    H224432   1.181   1.073  15.013 -1.9111  0.2376  0.9321
  981TIP3   OH224433   0.218   3.820  14.025  0.3052 -0.7691 -0.0716
  981TIP3    H124434   0.148   3.755  14.018 -1.6283  1.1560  0.5074
  981TIP3    H224435   0.227   3.837  14.118  2.8096 -2.1826  0.0450
  982TIP3   OH224436   3.379   2.902   1.168  0.0505  0.0449 -0.9470
  982TIP3    H124437   3.375   2.822   1.115  0.6390 -1.2997  0.9356
  982TIP3    H224438   3.469   2.903   1.201 -0.4096  0.6284  0.3189
  983TIP3   OH224439   4.508   1.861   0.220 -0.0241  0.4565  0.4564
  983TIP3    H124440   4.533   1.855   0.128 -1.4362  2.4055 -0.1318
  983TIP3    H224441   4.547   1.784   0.261  0.0418 -0.8721 -1.9103
  984TIP3   OH224442   6.373   3.341  12.943 -0.1545  0.0895  0.3354
  984TIP3    H124443   6.420   3.305  13.018  1.2326 -0.2871 -0.6847
  984TIP3    H224444   6.382   3.435  12.952 -1.4507  0.1422  1.5248
  985TIP3   OH224445   3.544   6.021   1.472  0.5517  0.3998 -0.5290
  985TIP3    H124446   3.568   5.980   1.555  0.7766 -0.2732 -0.9186
  985TIP3    H224447   3.492   5.954   1.426 -0.0426  0.9639 -0.7014
  986TIP3   OH224448   2.132   3.368  16.913 -0.1505  0.6276  0.1343
  986TIP3    H124449   2.046   3.336  16.885 -0.4043  2.0944 -0.8774
  986TIP3    H224450   2.173   3.292  16.954 -1.3629 -0.5051 -0.6508
  987TIP3   OH224451   0.421   3.059   1.762  0.1701  0.0989  0.0894
  987TIP3    H124452   0.499   3.012   1.734 -0.8239 -0.7320 -1.3878
  987TIP3    H224453   0.414   3.040   1.856  2.6367  1.5755  0.6836
  988TIP3   OH224454   3.170   2.848   1.957 -0.1581  0.7342 -0.0645
  988TIP3    H124455   3.217   2.901   1.892 -2.4082  0.0508 -2.4051
  988TIP3    H224456   3.144   2.911   2.023 -0.6696  2.1591 -1.5437
  989TIP3   OH224457   1.796   5.256   3.927  0.2471 -0.0126  0.6352
  989TIP3    H124458   1.765   5.344   3.948  0.0348  0.1396 -0.2547
  989TIP3    H224459   1.840   5.226   4.006 -0.2474  0.6403  1.1663
  990TIP3   OH224460   0.641   3.049   2.135 -0.1313  0.2430  0.2402
  990TIP3    H124461   0.552   3.016   2.125  0.7317 -2.5247  0.7068
  990TIP3    H224462   0.674   3.056   2.045 -0.3293 -0.2632  0.1243
  991TIP3   OH224463   1.976   3.113   6.488 -0.1041 -0.3360  0.3749
  991TIP3    H124464   1.921   3.190   6.503  1.0244  0.7903 -0.8959
  991TIP3    H224465   2.039   3.114   6.559 -1.1145 -1.1026  1.3176
  992TIP3   OH224466   5.136   5.821   0.005 -0.2694 -0.0735 -0.3620
  992TIP3    H124467   5.222   5.848   0.035  1.1179  0.2808 -4.1241
  992TIP3    H224468   5.082   5.900   0.011  0.5458  0.5186 -0.7630
  993TIP3   OH224469   3.141   4.244  12.527 -0.3752  0.0902 -0.1147
  993TIP3    H124470   3.150   4.253  12.432  1.5186  1.7505  0.1573
  993TIP3    H224471   3.217   4.194  12.554  0.1659  1.3138  0.7142
  994TIP3   OH224472   6.102   4.836   0.017  0.4914  0.7516  0.6435
  994TIP3    H124473   6.097   4.873  -0.071 -0.1032  1.6208  1.0246
  994TIP3    H224474   6.017   4.792   0.029  0.1405  1.5537  1.1672
  995TIP3   OH224475   0.540   4.744  12.260  0.0899 -0.0320  0.2068
  995TIP3    H124476   0.590   4.803  12.317  0.0017  1.1122 -0.8574
  995TIP3    H224477   0.606   4.697  12.210  0.1683  1.6029 -1.3213
  996TIP3   OH224478   6.322   4.193   2.140 -0.1004  0.0811 -0.0128
  996TIP3    H124479   6.245   4.172   2.193 -0.4412  1.4377  0.0831
  996TIP3    H224480   6.286   4.244   2.067  0.6952  0.7007  0.0158
  997TIP3   OH224481   3.158   4.351   0.409 -0.1760  0.4574  0.1424
  997TIP3    H124482   3.066   4.373   0.399 -1.2989 -3.2465  0.8925
  997TIP3    H224483   3.179   4.374   0.500 -1.1719 -1.0121  0.7784
  998TIP3   OH224484   3.022   4.492  11.824 -0.1706 -0.2336  0.0857
  998TIP3    H124485   3.042   4.422  11.761  0.1177 -1.7094  1.7429
  998TIP3    H224486   3.107   4.529  11.847 -0.4802  2.9090 -3.0898
  999TIP3   OH224487   2.929   2.802  16.161  0.0909  0.2835 -0.1696
  999TIP3    H124488   2.988   2.752  16.218  1.6348  0.3361 -1.6428
  999TIP3    H224489   2.964   2.891  16.162  2.0655 -0.2751 -3.4215
 1000TIP3   OH224490   4.948   0.702  15.999  0.2627 -0.2143 -0.6066
 1000TIP3    H124491   5.011   0.663  15.938 -0.0842 -0.1456 -1.0094
 1000TIP3    H224492   4.959   0.796  15.987 -0.0407 -0.2045 -0.8018
 1001TIP3   OH224493   5.118   5.570  13.373  0.5636 -0.5846 -0.2291
 1001TIP3    H124494   5.067   5.586  13.453 -1.3320  0.1046 -1.5124
 1001TIP3    H224495   5.120   5.654  13.328 -1.6664 -1.6945 -2.6805
 1002TIP3   OH224496   5.059   6.648  14.163 -0.2874  0.1917 -0.0025
 1002TIP3    H124497   4.966   6.667  14.164 -0.4293 -0.3077 -1.5028
 1002TIP3    H224498   5.064   6.553  14.177  0.1334  0.4670  2.0813
 1003TIP3   OH224499   3.102   6.626  16.240 -0.1560  0.1621  0.2534
 1003TIP3    H124500   3.087   6.535  16.213  0.9255 -0.4752  1.6902
 1003TIP3    H224501   3.080   6.628  16.333  2.3778  0.6627  0.9372
 1004TIP3   OH224502   0.064   3.985  15.768  0.0537 -0.2912  0.1552
 1004TIP3    H124503   0.088   3.951  15.854  0.1440 -1.0114 -0.1566
 1004TIP3    H224504   0.021   3.912  15.724  0.9972 -0.2734 -0.8277
 1005TIP3   OH224505   1.647   2.513  12.456  0.0356 -0.1196  0.3791
 1005TIP3    H124506   1.572   2.525  12.398  0.9117 -0.7687 -0.9438
 1005TIP3    H224507   1.685   2.601  12.464 -0.2124  0.0099  0.1359
 1006TIP3   OH224508   3.615   6.586  10.672  0.3288  0.4652  0.4608
 1006TIP3    H124509   3.534   6.563  10.717  0.0617  0.7483  0.1335
 1006TIP3    H224510   3.595   6.574  10.579  1.1799 -1.0984  0.4477
 1007TIP3   OH224511   0.024   2.901  14.247  0.0281 -0.0814  0.0421
 1007TIP3    H124512   0.094   2.955  14.211  0.3355  0.6052  1.5809
 1007TIP3    H224513   0.046   2.812  14.220  0.2933  0.3733 -1.3190
 1008TIP3   OH224514   1.211   0.595   2.841  0.1977 -0.1336  0.0034
 1008TIP3    H124515   1.259   0.661   2.891 -1.3508  1.2078 -0.1990
 1008TIP3    H224516   1.212   0.517   2.896  2.2530 -0.0532  0.1625
 1009TIP3   OH224517   2.872   3.954  14.595 -0.4350  0.4463  0.5560
 1009TIP3    H124518   2.920   4.036  14.583 -0.4096  0.2758 -0.5397
 1009TIP3    H224519   2.914   3.893  14.535 -0.5261 -0.3469  1.2899
 1010TIP3   OH224520   6.347   1.829   5.502 -0.1483 -0.8997 -0.0208
 1010TIP3    H124521   6.255   1.854   5.505 -0.2702 -1.2580 -0.7033
 1010TIP3    H224522   6.351   1.746   5.549 -0.2009 -0.9688 -0.1387
 1011TIP3   OH224523   5.033   5.192   6.123  0.3429 -0.0553  0.0316
 1011TIP3    H124524   5.089   5.269   6.136 -1.4640  1.5908 -1.3972
 1011TIP3    H224525   5.056   5.160   6.036 -0.2096  0.0274 -0.1498
 1012TIP3   OH224526   1.258   3.365  16.704  0.1193  0.3138 -0.4139
 1012TIP3    H124527   1.296   3.332  16.786 -0.2518 -1.2888 -0.8411
 1012TIP3    H224528   1.192   3.428  16.732  0.5274  0.3500  0.4960
 1013TIP3   OH224529   2.075   4.997   2.522 -0.0522  0.1251  0.2709
 1013TIP3    H124530   2.004   4.971   2.580  1.0089  0.7356  1.9309
 1013TIP3    H224531   2.155   4.977   2.571  0.9681 -0.8290 -1.6565
 1014TIP3   OH224532   4.017   3.414  16.043 -0.1666 -0.8718 -0.8349
 1014TIP3    H124533   4.018   3.475  15.969  0.4269  0.6715  0.3939
 1014TIP3    H224534   3.960   3.342  16.014 -0.2654 -0.1279 -2.6209
 1015TIP3   OH224535   2.805   5.205   4.915 -0.1921 -0.0823  0.0938
 1015TIP3    H124536   2.751   5.126   4.913 -0.2047 -0.0686 -1.6913
 1015TIP3    H224537   2.865   5.195   4.841  0.0939  1.3675  0.1050
 1016TIP3   OH224538   0.901   5.910  11.392 -0.4035 -0.8042 -0.2311
 1016TIP3    H124539   0.969   5.959  11.439 -1.1304  0.0972 -0.0814
 1016TIP3    H224540   0.864   5.974  11.330 -2.4319 -0.6402  1.0360
 1017TIP3   OH224541   6.308   2.956   0.923  0.4206 -0.2311 -0.0790
 1017TIP3    H124542   6.355   3.039   0.930 -0.6372  0.4848 -1.1590
 1017TIP3    H224543   6.304   2.923   1.013  0.7284  0.9604  0.3815
 1018TIP3   OH224544   2.969   5.268   2.524 -0.1510 -0.0328 -0.0662
 1018TIP3    H124545   2.876   5.250   2.539 -0.4963  0.4325 -1.4646
 1018TIP3    H224546   2.996   5.201   2.460 -0.1022  1.1092 -1.2983
 1019TIP3   OH224547   4.934   4.684  12.815  0.2141 -0.4443 -0.1178
 1019TIP3    H124548   4.887   4.758  12.852  0.8588 -0.5185  0.8730
 1019TIP3    H224549   4.974   4.640  12.890 -0.9325 -2.3687 -0.5587
 1020TIP3   OH224550   4.987   5.627   4.584  0.2831  0.0910 -0.4399
 1020TIP3    H124551   5.012   5.543   4.622 -0.5701  0.0788  0.1217
 1020TIP3    H224552   5.047   5.639   4.510 -1.7121 -2.6148 -2.7050
 1021TIP3   OH224553   1.282   6.550   3.661 -0.3422  0.4780  0.2249
 1021TIP3    H124554   1.351   6.485   3.652 -0.2053  0.5368  0.8394
 1021TIP3    H224555   1.328   6.633   3.672 -0.4805  0.3736  1.7692
 1022TIP3   OH224556   0.431   5.362   6.458 -0.1804 -0.0436 -0.1556
 1022TIP3    H124557   0.469   5.440   6.498  1.2682 -0.3454 -0.8837
 1022TIP3    H224558   0.340   5.386   6.440  0.3218  1.5834 -0.6661
 1023TIP3   OH224559   1.897   0.576  15.842  0.2409 -0.0027  0.0725
 1023TIP3    H124560   1.862   0.621  15.919  0.4232  0.4362 -0.0976
 1023TIP3    H224561   1.982   0.544  15.870  0.4329  0.4093 -0.0320
 1024TIP3   OH224562   5.049   6.377   3.756  0.2898  0.6682 -0.6097
 1024TIP3    H124563   5.003   6.459   3.740  0.6356  1.0396  0.2692
 1024TIP3    H224564   5.141   6.401   3.761  0.3155  0.3712  0.5467
 1025TIP3   OH224565   4.065   6.593  15.163  0.4292 -0.0205 -0.4547
 1025TIP3    H124566   4.125   6.577  15.235  0.7563 -0.9502 -0.9113
 1025TIP3    H224567   3.979   6.570  15.197  0.0674  2.6676  0.6578
 1026TIP3   OH224568   6.457   5.243  12.464  0.2046 -0.5582 -0.1106
 1026TIP3    H124569   6.365   5.269  12.456  0.3798  0.4449  0.9063
 1026TIP3    H224570   6.468   5.174  12.399 -1.5267 -1.3863  0.4117
 1027TIP3   OH224571   3.658   2.243  15.653 -0.2298 -0.1437 -0.4122
 1027TIP3    H124572   3.635   2.162  15.608 -1.4886  0.1627 -0.3523
 1027TIP3    H224573   3.628   2.229  15.743 -1.2081  0.6927 -0.6001
 1028TIP3   OH224574   2.624   3.783   1.440  0.5312  0.5738 -0.4419
 1028TIP3    H124575   2.546   3.838   1.429 -0.2069 -0.4664 -0.6128
 1028TIP3    H224576   2.642   3.784   1.534 -1.3871 -1.3513  0.0344
 1029TIP3   OH224577   1.687   3.338  14.626  0.8264 -0.0683 -0.4327
 1029TIP3    H124578   1.609   3.373  14.583  0.8987  0.2837 -0.2748
 1029TIP3    H224579   1.760   3.382  14.583  0.9115  0.0922 -0.1257
 1030TIP3   OH224580   1.099   4.198  13.584 -0.2923  0.4977 -0.2389
 1030TIP3    H124581   1.022   4.250  13.607  0.2923  0.1412  2.9243
 1030TIP3    H224582   1.166   4.224  13.647  1.3801 -1.0588 -1.2679
 1031TIP3   OH224583   0.049   2.456  13.289 -0.8245  0.0400  0.2059
 1031TIP3    H124584  -0.006   2.487  13.360 -0.1092 -0.4672  0.9990
 1031TIP3    H224585  -0.007   2.460  13.211 -1.8476 -0.0901  0.9191
 1032TIP3   OH224586   0.370   5.517  15.164 -0.0238 -0.3898  0.6782
 1032TIP3    H124587   0.378   5.596  15.112 -0.4983  0.2228  1.5115
 1032TIP3    H224588   0.448   5.465  15.141  0.8737  0.8002  0.9409
 1033TIP3   OH224589   5.888   0.236  15.148  0.2795 -0.6794 -0.8768
 1033TIP3    H124590   5.914   0.289  15.072  1.7871 -1.3950 -0.8956
 1033TIP3    H224591   5.964   0.240  15.206  0.0529 -2.0391 -0.4573
 1034TIP3   OH224592   6.079   4.978   3.848  0.4601 -0.4080  0.0755
 1034TIP3    H124593   6.073   4.981   3.752  3.1959 -2.9655 -0.3019
 1034TIP3    H224594   6.117   5.063   3.872 -0.1652  0.2316 -1.0776
 1035TIP3   OH224595   1.189   6.390   2.777 -0.0045  0.3433 -0.0114
 1035TIP3    H124596   1.211   6.353   2.862 -2.3808  0.3838  0.6972
 1035TIP3    H224597   1.245   6.343   2.715  1.3469 -0.1066  1.4802
 1036TIP3   OH224598   4.596   0.302   5.635 -0.2042  0.0853 -0.0899
 1036TIP3    H124599   4.596   0.224   5.690 -0.1508  0.8718  1.0482
 1036TIP3    H224600   4.688   0.313   5.609 -0.3866 -0.8715 -1.2160
 1037TIP3   OH224601   0.894   2.826  11.934  0.0684  0.0408  0.2848
 1037TIP3    H124602   0.836   2.850  11.862 -0.6241 -2.3924 -0.0799
 1037TIP3    H224603   0.952   2.760  11.897 -1.9220 -3.2027  2.4185
 1038TIP3   OH224604   0.973   5.703  13.530 -0.1342  0.3862 -0.8902
 1038TIP3    H124605   0.986   5.689  13.436 -0.2127  1.5012 -1.0807
 1038TIP3    H224606   1.052   5.748  13.559  1.0658 -2.1510  0.1392
 1039TIP3   OH224607   2.571   3.191  11.861  0.9525  0.1083  0.2353
 1039TIP3    H124608   2.551   3.107  11.902  0.5489  0.2626  0.3649
 1039TIP3    H224609   2.660   3.181  11.828  1.1487 -0.1472  0.8256
 1040TIP3   OH224610   1.406   5.380  14.362  0.2027 -0.6299 -0.4981
 1040TIP3    H124611   1.430   5.364  14.453 -0.4238  1.4815  0.0962
 1040TIP3    H224612   1.311   5.397  14.365  0.0259 -1.2937 -1.6609
 1041TIP3   OH224613   0.349   0.128  13.489 -0.3756  0.0368  0.2341
 1041TIP3    H124614   0.333   0.107  13.581  0.7473  0.0983  0.4511
 1041TIP3    H224615   0.383   0.047  13.451 -0.5037  0.1131 -0.0449
 1042TIP3   OH224616   5.976   6.261   5.977  0.2664 -0.6628  0.2606
 1042TIP3    H124617   5.920   6.204   6.031 -0.3962 -0.1997  0.0621
 1042TIP3    H224618   6.047   6.203   5.949  0.8465 -0.8360  1.9404
 1043TIP3   OH224619   2.053   1.985   1.391  0.0362 -0.0946 -0.4777
 1043TIP3    H124620   2.084   2.065   1.348 -0.5336  1.1696  1.3493
 1043TIP3    H224621   2.011   1.936   1.321 -0.9377  1.9104 -1.4023
 1044TIP3   OH224622   0.317   3.175  16.503  0.1245 -0.0090  0.3110
 1044TIP3    H124623   0.341   3.242  16.439 -2.8221 -0.2848 -1.2823
 1044TIP3    H224624   0.245   3.213  16.553 -0.0251 -1.1046  0.9732
 1045TIP3   OH224625   5.108   3.816  15.129  0.4597  0.4765  0.1332
 1045TIP3    H124626   5.196   3.853  15.124  0.9282 -0.7850 -2.5088
 1045TIP3    H224627   5.049   3.890  15.113  1.0259  1.2074  1.3050
 1046TIP3   OH224628   2.425   3.859   2.572  0.3063  0.3653 -0.1103
 1046TIP3    H124629   2.358   3.919   2.540 -1.2338 -0.9094  0.6272
 1046TIP3    H224630   2.498   3.871   2.511 -1.4034  0.1515 -2.3379
 1047TIP3   OH224631   2.894   2.563  11.431  0.2841  0.0951  0.2010
 1047TIP3    H124632   2.851   2.568  11.516 -1.1341 -2.4386 -0.2502
 1047TIP3    H224633   2.832   2.605  11.370 -0.1774 -0.8260  0.0103
 1048TIP3   OH224634   2.430   2.082   0.287  0.2545 -0.7833 -0.7560
 1048TIP3    H124635   2.347   2.052   0.249  0.6742 -0.4204 -2.0199
 1048TIP3    H224636   2.497   2.048   0.228  0.9480 -0.2923 -0.2688
 1049TIP3   OH224637   4.890   2.690  12.912 -0.0421 -0.5749 -0.2292
 1049TIP3    H124638   4.801   2.694  12.947  0.2880 -0.4532  0.6110
 1049TIP3    H224639   4.945   2.727  12.981  0.6916 -0.8943 -0.6287
 1050TIP3   OH224640   3.757   5.372  15.887  0.2184  0.2270  0.5579
 1050TIP3    H124641   3.780   5.388  15.979 -3.0495 -0.5133  1.6303
 1050TIP3    H224642   3.668   5.407  15.879 -0.7558 -2.4439 -1.4726
 1051TIP3   OH224643   4.364   4.362   2.501  0.0256 -0.4364  0.7972
 1051TIP3    H124644   4.302   4.290   2.515  0.2091 -1.0928 -1.3839
 1051TIP3    H224645   4.311   4.434   2.470  0.1017 -0.3360  0.9007
 1052TIP3   OH224646   2.842   5.968   5.195  0.3044 -0.0989  0.4049
 1052TIP3    H124647   2.879   5.881   5.180 -2.5368 -1.7313  1.8991
 1052TIP3    H224648   2.780   5.981   5.124  0.9371  0.8978  0.0106
 1053TIP3   OH224649   3.615   5.226   2.355  0.8011  0.5060  0.5195
 1053TIP3    H124650   3.585   5.239   2.445 -2.0366 -0.5111 -0.1798
 1053TIP3    H224651   3.570   5.293   2.304 -2.0554 -2.1829 -0.8533
 1054TIP3   OH224652   2.454   4.529   5.313  0.2620  0.2629 -0.3388
 1054TIP3    H124653   2.460   4.589   5.387  0.6560  0.3081 -0.4066
 1054TIP3    H224654   2.535   4.478   5.317 -0.5559 -1.0122  0.3575
 1055TIP3   OH224655   6.290   4.925   2.600  0.0388 -0.1577  0.0530
 1055TIP3    H124656   6.275   4.977   2.521 -2.7126  1.1001  1.2657
 1055TIP3    H224657   6.380   4.945   2.625 -0.1599  2.2076 -0.8610
 1056TIP3   OH224658   4.468   0.780  13.460 -0.6368  0.0300 -0.4326
 1056TIP3    H124659   4.440   0.691  13.480 -0.0075 -0.3571 -1.2015
 1056TIP3    H224660   4.387   0.829  13.447 -0.9835 -0.6018 -0.6877
 1057TIP3   OH224661   6.340   5.701   2.662  0.5504 -0.1557  0.2857
 1057TIP3    H124662   6.298   5.717   2.578 -2.1475 -1.9677  1.1569
 1057TIP3    H224663   6.329   5.783   2.710  0.1441  0.1808 -0.3607
 1058TIP3   OH224664   6.777   6.267   0.188  0.7593  0.3970 -0.2695
 1058TIP3    H124665   6.839   6.311   0.245  3.2193 -0.8313 -1.8009
 1058TIP3    H224666   6.715   6.335   0.163  0.4420  1.3035  2.6005
 1059TIP3   OH224667   3.238   5.145  16.708  0.0225  0.1848  0.1582
 1059TIP3    H124668   3.179   5.156  16.634  0.4204 -0.8596 -0.3323
 1059TIP3    H224669   3.255   5.051  16.712 -0.7490  0.0760  2.1830
 1060TIP3   OH224670   3.643   2.470  17.489 -0.1712  0.0010  0.1959
 1060TIP3    H124671   3.649   2.555  17.532  0.3093  0.2514 -0.3522
 1060TIP3    H224672   3.719   2.422  17.520  0.0897  0.1254 -0.2379
 1061TIP3   OH224673   4.884   5.644   0.912  0.2585 -0.1269  0.2690
 1061TIP3    H124674   4.908   5.720   0.858  2.2232 -1.5370 -1.0172
 1061TIP3    H224675   4.851   5.580   0.849 -1.2179 -0.4374  1.3124
 1062TIP3   OH224676   1.543   5.843  13.593 -0.3317 -0.4591 -0.2952
 1062TIP3    H124677   1.495   5.918  13.557  2.7075  1.4608 -0.7373
 1062TIP3    H224678   1.539   5.856  13.687  1.3699  1.2078 -0.3882
 1063TIP3   OH224679   3.853   3.050   2.604  0.3485 -0.2697  0.4468
 1063TIP3    H124680   3.927   3.011   2.558 -0.4006 -3.8482  1.9554
 1063TIP3    H224681   3.886   3.070   2.691 -0.3013 -1.5429  1.0114
 1064TIP3   OH224682   5.522   1.587   3.368 -0.4469 -0.1391  0.1822
 1064TIP3    H124683   5.442   1.637   3.382  0.2931  1.1373 -0.0505
 1064TIP3    H224684   5.539   1.593   3.274 -0.7899 -1.5558 -0.0013
 1065TIP3   OH224685   4.858   4.646  11.039  0.0770 -0.0688 -0.3348
 1065TIP3    H124686   4.774   4.689  11.057  0.5765  0.3853  1.0605
 1065TIP3    H224687   4.856   4.627  10.945 -0.0900  3.2454 -1.1307
 1066TIP3   OH224688   1.722   0.945  15.884 -0.1601  0.1705  0.5578
 1066TIP3    H124689   1.668   1.016  15.851  0.5788  1.2911  1.6601
 1066TIP3    H224690   1.754   0.977  15.969  1.6559 -0.7280  0.2480
 1067TIP3   OH224691   0.329   3.971   2.435  0.1605  0.1430 -0.2806
 1067TIP3    H124692   0.312   3.969   2.341 -1.3605  0.8479 -0.0558
 1067TIP3    H224693   0.242   3.966   2.475  0.8485 -2.2384  1.1591
 1068TIP3   OH224694   5.926   5.443  15.133  0.4740  0.0439 -0.8832
 1068TIP3    H124695   5.839   5.483  15.132 -0.6179 -2.0420  0.7541
 1068TIP3    H224696   5.911   5.352  15.106  1.6532 -1.0107  1.6211
 1069TIP3   OH224697   1.994   4.780   3.896  0.3105 -0.0884  0.2250
 1069TIP3    H124698   1.927   4.713   3.910  0.0135  0.4771  1.7631
 1069TIP3    H224699   2.067   4.734   3.855 -1.5174 -0.4504 -2.9304
 1070TIP3   OH224700   4.729   2.665  12.370 -0.1855 -0.1585  0.0902
 1070TIP3    H124701   4.678   2.625  12.440  1.6139 -1.5482  0.6915
 1070TIP3    H224702   4.730   2.759  12.392 -0.3121 -0.4624  1.5020
 1071TIP3   OH224703   0.379   4.686   4.577 -0.1071  0.0678  0.1075
 1071TIP3    H124704   0.413   4.678   4.488 -0.5009 -2.0783  0.1070
 1071TIP3    H224705   0.331   4.769   4.577  1.5259  1.0708 -1.0846
 1072TIP3   OH224706   6.329   4.462  10.675 -0.4251 -0.5205 -0.7559
 1072TIP3    H124707   6.338   4.518  10.752  0.3787 -2.9700  1.0779
 1072TIP3    H224708   6.235   4.462  10.656 -0.8398 -0.9016  1.1201
 1073TIP3   OH224709   4.670   6.657  13.341 -0.6824 -0.5541  0.3653
 1073TIP3    H124710   4.738   6.594  13.362  0.3636  0.0372 -1.0695
 1073TIP3    H224711   4.592   6.605  13.327 -0.4993 -1.2687  1.7930
 1074TIP3   OH224712   2.941   1.029   3.803 -0.4200 -0.3333  0.5997
 1074TIP3    H124713   3.005   1.098   3.819 -1.3172  0.9796 -1.1431
 1074TIP3    H224714   2.993   0.948   3.802  1.5355  0.8014 -2.0706
 1075TIP3   OH224715   4.397   6.150  13.326  0.4216 -0.5632  0.5349
 1075TIP3    H124716   4.484   6.139  13.289 -0.2629 -2.1494 -0.6796
 1075TIP3    H224717   4.384   6.072  13.380 -1.0469 -1.4562 -1.0245
 1076TIP3   OH224718   5.399   4.960  15.498  0.0916  0.5906 -0.0762
 1076TIP3    H124719   5.438   5.030  15.550  0.3075  1.5411 -1.4560
 1076TIP3    H224720   5.472   4.902  15.477 -0.3065 -0.8510  2.1783
 1077TIP3   OH224721   5.339   5.765   4.625 -0.1417  0.3168  0.1393
 1077TIP3    H124722   5.409   5.710   4.662  0.3876  2.0266  1.8360
 1077TIP3    H224723   5.366   5.781   4.534  0.5687 -0.7738  0.1427
 1078TIP3   OH224724   1.531   2.192   5.673 -0.2243 -0.0747  0.1549
 1078TIP3    H124725   1.462   2.126   5.663 -0.7292  0.6687 -1.8393
 1078TIP3    H224726   1.605   2.143   5.708 -0.9262 -1.4775 -0.2094
 1079TIP3   OH224727   0.928   2.660   0.204 -0.2685 -0.0264  0.1701
 1079TIP3    H124728   0.884   2.599   0.263  1.7749  0.9350  2.8612
 1079TIP3    H224729   1.018   2.629   0.200  0.2847  1.5490 -0.1722
 1080TIP3   OH224730   4.905   2.744   5.789 -0.0057  0.3454 -0.4435
 1080TIP3    H124731   4.848   2.708   5.857 -0.2426 -0.7263 -1.1837
 1080TIP3    H224732   4.846   2.795   5.733  0.3040  1.8143  0.5172
 1081TIP3   OH224733   6.110   2.640  15.252  0.4952 -0.1389  0.0362
 1081TIP3    H124734   6.088   2.652  15.345 -0.4602 -0.8296 -0.0818
 1081TIP3    H224735   6.039   2.685  15.206 -0.2911 -1.6911 -0.3567
 1082TIP3   OH224736   2.267   1.576   5.794  0.2397 -0.2750 -0.3732
 1082TIP3    H124737   2.278   1.670   5.777  1.1761 -0.4391 -0.7053
 1082TIP3    H224738   2.226   1.543   5.714 -0.5838 -0.0605 -0.0452
 1083TIP3   OH224739   3.584   6.419   2.799  0.2680 -0.1122  0.8198
 1083TIP3    H124740   3.545   6.336   2.827  0.3497  0.0885  1.5412
 1083TIP3    H224741   3.672   6.418   2.839  0.9564 -0.4809 -0.6281
 1084TIP3   OH224742   4.258   2.046  13.779 -0.3257 -0.3597  0.1206
 1084TIP3    H124743   4.334   1.991  13.799 -0.4530 -0.1608  1.2165
 1084TIP3    H224744   4.265   2.063  13.685  1.9902  1.1128  0.4752
 1085TIP3   OH224745   5.488   3.273   4.169  0.2653 -0.2188 -0.0638
 1085TIP3    H124746   5.482   3.189   4.212 -0.0121 -0.4973 -0.6367
 1085TIP3    H224747   5.423   3.328   4.213  0.1229 -0.4386  0.0019
 1086TIP3   OH224748   0.995   3.952  12.926 -0.0662  0.0619 -0.4971
 1086TIP3    H124749   0.956   3.993  12.849  0.8956  0.4669 -0.7835
 1086TIP3    H224750   1.082   3.991  12.933  0.3140 -0.8429  0.0985
 1087TIP3   OH224751   0.564   5.357   1.614 -0.2737  0.2725 -0.0960
 1087TIP3    H124752   0.481   5.310   1.606  0.5936 -1.5884  1.1705
 1087TIP3    H224753   0.613   5.309   1.681  1.4721  1.8646 -0.1385
 1088TIP3   OH224754   5.587   2.325  11.913 -0.2020  0.3680 -0.1528
 1088TIP3    H124755   5.580   2.262  11.985  0.1404 -0.5433 -0.8950
 1088TIP3    H224756   5.498   2.329  11.877 -0.1427 -0.0064 -0.3511
 1089TIP3   OH224757   6.739   2.976   4.949  0.1535 -0.4118  0.6991
 1089TIP3    H124758   6.778   2.903   4.902  1.7529  0.9012 -0.0874
 1089TIP3    H224759   6.647   2.976   4.921  0.6954 -0.6358 -1.2161
 1090TIP3   OH224760   3.765   2.432  13.413  0.2644 -0.4320 -0.1747
 1090TIP3    H124761   3.687   2.378  13.398 -0.6167  0.3238  1.3948
 1090TIP3    H224762   3.735   2.521  13.397  0.5533 -0.0537  1.3126
 1091TIP3   OH224763   1.680   6.661  16.248  0.3499  0.0174  0.0028
 1091TIP3    H124764   1.710   6.619  16.167  1.2500 -2.6674  1.5798
 1091TIP3    H224765   1.595   6.621  16.266  0.8785 -0.6347  1.1713
 1092TIP3   OH224766   4.002   5.574  11.430 -0.5920 -0.0523  0.0278
 1092TIP3    H124767   4.029   5.627  11.505  0.2738 -0.2573 -0.1292
 1092TIP3    H224768   3.920   5.613  11.402 -0.5231  0.5226  0.5957
 1093TIP3   OH224769   4.798   6.185   3.369  0.1181 -0.0723 -0.4799
 1093TIP3    H124770   4.860   6.117   3.394  0.0654  0.2505  0.5739
 1093TIP3    H224771   4.727   6.137   3.325  0.8152 -0.5082 -1.1424
 1094TIP3   OH224772   0.089   6.328  10.906  0.2070  0.3905  0.3542
 1094TIP3    H124773  -0.002   6.355  10.919 -0.3269 -1.1478  0.1114
 1094TIP3    H224774   0.118   6.377  10.829 -1.0445 -0.4136 -0.6816
 1095TIP3   OH224775   2.631   2.133   3.013  0.2141  0.1392 -0.4972
 1095TIP3    H124776   2.642   2.219   3.054 -1.9957  1.7428 -2.9185
 1095TIP3    H224777   2.581   2.082   3.077 -0.4469  1.4765  0.0973
 1096TIP3   OH224778   1.648   0.376   5.807  0.8850  0.2879 -0.0572
 1096TIP3    H124779   1.671   0.464   5.778 -1.5503 -0.0418 -3.4704
 1096TIP3    H224780   1.571   0.388   5.863 -0.6320  0.3214 -2.0448
 1097TIP3   OH224781   5.498   0.691   4.107 -0.0262 -0.2485 -0.2628
 1097TIP3    H124782   5.445   0.613   4.096 -0.2798 -0.0279 -0.6527
 1097TIP3    H224783   5.452   0.759   4.056 -0.5083  0.4882  1.1020
 1098TIP3   OH224784   5.029   6.490  17.330  0.2119 -0.0478  0.3425
 1098TIP3    H124785   5.099   6.518  17.271  0.2330  2.3388  1.4040
 1098TIP3    H224786   4.983   6.570  17.353 -1.0514 -1.1721  1.9895
 1099TIP3   OH224787   2.858   4.897  16.560  0.4677 -0.7012  0.5168
 1099TIP3    H124788   2.882   4.804  16.560  0.7091 -0.6370  0.3966
 1099TIP3    H224789   2.843   4.917  16.653  0.5164 -0.8336  0.5542
 1100TIP3   OH224790   3.983   0.709   2.143 -0.1307 -0.2376  0.6757
 1100TIP3    H124791   4.010   0.700   2.052  0.3999 -0.2329  0.8314
 1100TIP3    H224792   3.890   0.685   2.142  0.0491 -0.9844  0.2554
 1101TIP3   OH224793   3.891   2.589   2.489 -0.4559 -0.6484 -0.1899
 1101TIP3    H124794   3.904   2.511   2.542  0.9179  0.1899  0.7835
 1101TIP3    H224795   3.977   2.630   2.485 -1.4819  1.8799  1.1016
 1102TIP3   OH224796   1.966   1.141  14.253 -0.1328  0.6294  0.1531
 1102TIP3    H124797   1.916   1.063  14.278 -1.9912  1.3147 -1.2218
 1102TIP3    H224798   1.977   1.189  14.335 -2.7545  0.9927  0.3852
 1103TIP3   OH224799   6.746   6.306  16.219  0.6927 -0.3083  0.3115
 1103TIP3    H124800   6.760   6.249  16.143 -0.9017  0.3948 -0.5552
 1103TIP3    H224801   6.705   6.249  16.284  2.2225 -0.9594  0.7583
 1104TIP3   OH224802   1.213   6.547  14.717 -0.5938  0.2867  0.2127
 1104TIP3    H124803   1.189   6.521  14.806 -0.3574 -0.2008  0.1385
 1104TIP3    H224804   1.220   6.465  14.669  0.8902  0.4203  0.1488
 1105TIP3   OH224805   5.273   4.730  17.308  0.2644 -0.2270  0.3436
 1105TIP3    H124806   5.228   4.798  17.258  1.1874  0.3774  0.3168
 1105TIP3    H224807   5.365   4.742  17.288  0.6230 -0.2485  1.8336
 1106TIP3   OH224808   3.166   1.215  11.774  0.4307 -0.1688 -0.0024
 1106TIP3    H124809   3.243   1.161  11.758  2.0106  1.8834  0.2482
 1106TIP3    H224810   3.177   1.249  11.863  0.5137  2.0051 -0.7659
 1107TIP3   OH224811   4.822   4.960  12.959  0.1114 -0.1000  0.6410
 1107TIP3    H124812   4.876   5.039  12.950  0.0070  0.0900  1.6335
 1107TIP3    H224813   4.751   4.972  12.896  0.0867  0.6122  0.8008
 1108TIP3   OH224814   1.114   5.264   3.125 -0.3343 -0.0697 -0.5986
 1108TIP3    H124815   1.146   5.202   3.060  0.1047 -0.1403 -0.3254
 1108TIP3    H224816   1.194   5.302   3.162 -0.5918  0.4316 -0.5460
 1109TIP3   OH224817   5.771   1.356   6.863  0.1853 -0.2589  0.5922
 1109TIP3    H124818   5.701   1.290   6.870  0.6539 -1.2047 -2.3888
 1109TIP3    H224819   5.802   1.349   6.773  1.3487  3.0246  0.6148
 1110TIP3   OH224820   0.575   0.225   5.259  0.2092  0.9398  0.3361
 1110TIP3    H124821   0.492   0.267   5.281 -1.0857 -2.1154  1.8124
 1110TIP3    H224822   0.594   0.168   5.334  0.7385 -2.5738 -2.2260
 1111TIP3   OH224823   2.286   5.610   2.229 -0.1217 -0.1170  0.3476
 1111TIP3    H124824   2.247   5.590   2.144 -3.0038  1.1199  1.2630
 1111TIP3    H224825   2.370   5.563   2.229  0.1297  0.1034 -3.2445
 1112TIP3   OH224826   3.917   0.065  12.807  0.1122  0.2974 -0.5200
 1112TIP3    H124827   4.003   0.053  12.767 -0.1962 -1.3477 -0.7445
 1112TIP3    H224828   3.872   0.126  12.748  0.6092 -0.0010 -1.2278
 1113TIP3   OH224829   1.296   5.974  17.437  0.1650  0.1246  0.5559
 1113TIP3    H124830   1.264   6.031  17.367 -1.1173 -1.2023  0.0036
 1113TIP3    H224831   1.371   5.929  17.400 -0.6169 -0.7035 -0.0605
 1114TIP3   OH224832   4.016   3.656   1.067 -0.2096  0.1791  0.0368
 1114TIP3    H124833   4.037   3.634   1.158 -0.5185  1.9578  0.5711
 1114TIP3    H224834   3.943   3.718   1.073 -0.3289  0.2244 -1.4346
 1115TIP3   OH224835   6.381   3.730   6.116 -0.2432 -0.6131  0.2603
 1115TIP3    H124836   6.291   3.708   6.140 -0.9410  1.6346 -0.0027
 1115TIP3    H224837   6.433   3.705   6.192 -1.7000  1.7380  2.1782
 1116TIP3   OH224838   6.180   0.522   4.409 -0.9099  0.4272  0.1260
 1116TIP3    H124839   6.244   0.546   4.475 -2.2319  1.9384  0.9345
 1116TIP3    H224840   6.122   0.599   4.402 -1.8581 -0.3617 -1.5045
 1117TIP3   OH224841   3.114   2.617  14.770  0.6418 -0.1509  0.5778
 1117TIP3    H124842   3.115   2.521  14.762  1.2485 -0.0424 -0.9868
 1117TIP3    H224843   3.034   2.644  14.727  1.1789  0.1153 -0.2846
 1118TIP3   OH224844   6.710   6.598   5.426  0.0488 -0.3468 -0.0407
 1118TIP3    H124845   6.620   6.608   5.395 -0.0010  0.0713  0.2230
 1118TIP3    H224846   6.708   6.632   5.515  0.4365 -0.4785  0.0205
 1119TIP3   OH224847   3.423   3.237   6.185  0.0933 -0.2985 -1.1552
 1119TIP3    H124848   3.369   3.255   6.108 -1.6261 -1.9445 -0.4155
 1119TIP3    H224849   3.378   3.165   6.230  1.8718 -0.4231  0.5796
 1120TIP3   OH224850   3.044   2.589   6.190  0.4039  0.0213 -0.6212
 1120TIP3    H124851   3.088   2.674   6.199  0.2764 -0.0925  1.6643
 1120TIP3    H224852   3.107   2.527   6.227 -0.5419 -0.5152  0.1168
 1121TIP3   OH224853   6.490   1.786   2.401 -0.2473 -0.0856 -0.2468
 1121TIP3    H124854   6.500   1.798   2.495  1.9547  1.1360 -0.5496
 1121TIP3    H224855   6.472   1.874   2.367  1.5552 -0.0053 -1.1535
 1122TIP3   OH224856   6.383   3.420   1.217  0.3587 -0.6042  0.2777
 1122TIP3    H124857   6.356   3.404   1.307 -1.8367 -0.4474 -0.2773
 1122TIP3    H224858   6.452   3.486   1.223  0.2890 -0.6545  1.8487
 1123TIP3   OH224859   5.651   4.329  13.837 -0.3232 -0.2866 -0.2201
 1123TIP3    H124860   5.679   4.299  13.750  2.8840 -0.6281  0.8072
 1123TIP3    H224861   5.678   4.420  13.840  0.1678 -0.4535  0.6274
 1124TIP3   OH224862   4.980   2.497   1.621 -0.2231  0.5006 -0.8016
 1124TIP3    H124863   5.047   2.434   1.647 -0.5638 -0.0789 -1.2936
 1124TIP3    H224864   4.974   2.487   1.526 -0.2655  1.2978 -0.8843
 1125TIP3   OH224865   2.799   3.564  15.901  0.2535 -0.5198  0.0901
 1125TIP3    H124866   2.735   3.494  15.891  2.5196 -2.9721  1.2130
 1125TIP3    H224867   2.795   3.586  15.994 -0.9885  1.5236 -0.3915
 1126TIP3   OH224868   1.852   5.036  16.309 -0.6708  0.4601 -0.1586
 1126TIP3    H124869   1.803   4.997  16.236 -0.4809 -3.9721  1.7371
 1126TIP3    H224870   1.907   4.964  16.341  0.7517  2.7689  3.1102
 1127TIP3   OH224871   5.425   6.651  13.408  0.5169  0.1833 -0.6624
 1127TIP3    H124872   5.367   6.581  13.438  0.3676  1.0218  1.1509
 1127TIP3    H224873   5.506   6.636  13.457  0.6676  0.9453 -0.6760
 1128TIP3   OH224874   1.127   5.314   6.185  0.6786 -0.3459  0.3825
 1128TIP3    H124875   1.205   5.320   6.240  1.5194 -1.7505 -0.6178
 1128TIP3    H224876   1.055   5.303   6.247  1.6027 -1.9072  1.2441
 1129TIP3   OH224877   6.588   4.417   0.706  0.2667 -0.0610  0.1031
 1129TIP3    H124878   6.609   4.418   0.612  0.3664  0.6776  0.1328
 1129TIP3    H224879   6.530   4.341   0.716 -1.5238  1.0806 -0.9519
 1130TIP3   OH224880   1.536   0.879  16.424 -0.3114 -0.1244  0.0653
 1130TIP3    H124881   1.474   0.919  16.485  0.7502 -1.2934  1.9991
 1130TIP3    H224882   1.506   0.788  16.416 -0.7870  0.1481 -1.7040
 1131TIP3   OH224883   4.445   4.128  12.183  0.5549  0.0295 -0.6624
 1131TIP3    H124884   4.529   4.167  12.158  1.3037 -0.5039  0.9317
 1131TIP3    H224885   4.468   4.050  12.232 -0.8949 -0.3646 -0.5692
 1132TIP3   OH224886   5.027   3.210   6.545  0.0995 -0.7992 -0.0779
 1132TIP3    H124887   4.948   3.260   6.525  0.4297 -0.1982  0.1110
 1132TIP3    H224888   5.039   3.220   6.639  1.5984  0.9160 -0.4079
 1133TIP3   OH224889   6.396   5.184   2.935  0.0652 -0.2034  0.3451
 1133TIP3    H124890   6.475   5.135   2.959  0.5026  0.3593  0.0781
 1133TIP3    H224891   6.427   5.272   2.913 -0.3801 -0.4660 -1.5557
 1134TIP3   OH224892   0.030   5.701  16.786  0.1806 -0.1645  0.4555
 1134TIP3    H124893   0.064   5.645  16.856 -0.0038  0.1935  0.8343
 1134TIP3    H224894   0.088   5.777  16.786 -0.7430  0.5561  1.2554
 1135TIP3   OH224895   4.226   5.150   5.260 -0.0450  0.0799 -0.2017
 1135TIP3    H124896   4.247   5.142   5.353  3.3718  0.5547 -0.8221
 1135TIP3    H224897   4.293   5.209   5.225 -0.6191 -0.8619 -3.1718
 1136TIP3   OH224898   3.244   4.487  12.580 -0.1985 -0.2644  0.2791
 1136TIP3    H124899   3.325   4.464  12.625  0.1301  0.3059 -0.0158
 1136TIP3    H224900   3.199   4.403  12.567  0.2817 -0.5669  0.5482
 1137TIP3   OH224901   3.496   4.936  15.613 -0.3107 -0.4066  0.2030
 1137TIP3    H124902   3.484   5.024  15.578  2.6904 -0.1398 -0.4758
 1137TIP3    H224903   3.445   4.935  15.694 -1.7075  1.3796 -0.5915
 1138TIP3   OH224904   6.259   4.764   2.257  0.4057 -0.0193  0.2137
 1138TIP3    H124905   6.220   4.778   2.171  0.0875 -0.3257  0.3054
 1138TIP3    H224906   6.187   4.733   2.311  1.1710 -2.8777 -0.1966
 1139TIP3   OH224907   3.606   0.888  12.620 -0.0829 -0.7411 -0.1232
 1139TIP3    H124908   3.676   0.824  12.607  0.7867 -0.0854  1.0545
 1139TIP3    H224909   3.533   0.836  12.654  0.9030 -1.0368  1.6882
 1140TIP3   OH224910   1.679   2.568  15.358  0.1695 -0.0642  0.3149
 1140TIP3    H124911   1.720   2.542  15.440  0.0823 -0.6672  0.1710
 1140TIP3    H224912   1.612   2.502  15.342  2.3163 -1.9657 -1.9028
 1141TIP3   OH224913   4.352   4.788   5.694  0.3849 -0.7885 -0.1978
 1141TIP3    H124914   4.405   4.748   5.625  1.5478 -0.4308  0.4581
 1141TIP3    H224915   4.265   4.751   5.682 -0.0394  0.8339 -3.2025
 1142TIP3   OH224916   2.996   4.489   6.197 -0.0983 -0.1701  0.0466
 1142TIP3    H124917   3.082   4.530   6.210  0.4690 -0.6720 -1.8230
 1142TIP3    H224918   2.944   4.555   6.152 -0.2871 -0.3056  0.0638
 1143TIP3   OH224919   4.475   6.019  17.491  0.4281  0.0190 -0.1662
 1143TIP3    H124920   4.516   5.938  17.461 -2.2550 -1.3497 -0.4093
 1143TIP3    H224921   4.443   5.998  17.579  1.9532  1.7102  0.8563
 1144TIP3   OH224922   0.608   4.144  15.328 -0.1796  0.2293 -0.2617
 1144TIP3    H124923   0.524   4.124  15.370  0.8970  1.6995  2.9743
 1144TIP3    H224924   0.584   4.175  15.241 -2.9108 -0.2520  0.2128
 1145TIP3   OH224925   2.321   2.814  12.413 -0.1885  0.0535 -0.0474
 1145TIP3    H124926   2.290   2.751  12.478 -1.4741 -0.8721 -1.4842
 1145TIP3    H224927   2.242   2.851  12.374  0.5427  1.4675 -0.2962
 1146TIP3   OH224928   1.509   2.352  15.282 -0.1701 -1.0053 -0.5454
 1146TIP3    H124929   1.420   2.364  15.315  0.9638 -2.2013  3.5866
 1146TIP3    H224930   1.537   2.268  15.319  3.1267  0.0025 -0.4419
 1147TIP3   OH224931   5.568   2.429   5.362 -0.5217  0.1801 -0.0832
 1147TIP3    H124932   5.569   2.437   5.267  0.2089  1.4168  0.0038
 1147TIP3    H224933   5.655   2.397   5.384 -0.4110  0.6791  0.2164
 1148TIP3   OH224934   5.974   3.105  13.337 -0.8317  0.0738 -0.3751
 1148TIP3    H124935   5.882   3.131  13.344 -1.1165  0.2612 -3.4887
 1148TIP3    H224936   5.997   3.075  13.425 -3.4073  1.4168  0.8796
 1149TIP3   OH224937   2.984   6.387  16.117 -0.1374 -0.3189  0.7256
 1149TIP3    H124938   2.987   6.313  16.178 -1.7485 -0.2790  0.8802
 1149TIP3    H224939   2.893   6.393  16.091  0.6153 -0.8521 -2.3788
 1150TIP3   OH224940   5.092   5.392   4.238  0.0778  0.0072  0.5144
 1150TIP3    H124941   5.183   5.419   4.227 -0.2296  0.5763 -0.8334
 1150TIP3    H224942   5.097   5.299   4.258  0.9209 -0.2083 -0.6295
 1151TIP3   OH224943   2.256   4.126   1.834  0.4162 -0.5054 -0.0931
 1151TIP3    H124944   2.349   4.120   1.812  0.5746 -0.9911  0.6553
 1151TIP3    H224945   2.238   4.045   1.882 -0.1753 -0.0030  0.5447
 1152TIP3   OH224946   0.441   5.401   4.115  0.3142  0.0703  0.1567
 1152TIP3    H124947   0.513   5.345   4.145  1.4240  1.6498  0.5552
 1152TIP3    H224948   0.481   5.486   4.100 -1.3244  0.7753 -0.4704
 1153TIP3   OH224949   0.149   1.782   5.408  0.4839 -0.7059 -0.4590
 1153TIP3    H124950   0.136   1.854   5.347  0.5390 -0.4006 -0.1171
 1153TIP3    H224951   0.212   1.725   5.365  0.6990 -0.3761 -0.5870
 1154TIP3   OH224952   3.786   1.012   6.550 -0.2595  0.5496 -0.7055
 1154TIP3    H124953   3.778   1.040   6.641  0.4444 -1.1532 -0.0925
 1154TIP3    H224954   3.726   1.070   6.502 -2.3278  0.0770  1.1312
 1155TIP3   OH224955   5.850   2.897   1.200  0.7293  0.6149  0.2944
 1155TIP3    H124956   5.879   2.956   1.270  0.6261  1.4086 -0.3161
 1155TIP3    H224957   5.898   2.927   1.122 -0.1612  0.6114 -0.2731
 1156TIP3   OH224958   6.239   1.302   4.041  0.0540 -0.4374 -0.2314
 1156TIP3    H124959   6.262   1.379   3.989  0.2601  1.1341  2.0547
 1156TIP3    H224960   6.149   1.320   4.070 -0.3097 -1.6200 -0.5718
 1157TIP3   OH224961   5.646   1.483  13.295 -0.0068  0.1258 -0.2466
 1157TIP3    H124962   5.632   1.409  13.355 -1.1922  0.5453  0.0154
 1157TIP3    H224963   5.573   1.478  13.233 -1.4103  2.3203  1.0826
 1158TIP3   OH224964   4.622   2.389  10.775  0.7529 -0.1117  0.5518
 1158TIP3    H124965   4.548   2.386  10.714  2.4543 -0.3950 -1.5993
 1158TIP3    H224966   4.581   2.385  10.862 -1.6754 -2.0775 -0.5522
 1159TIP3   OH224967   1.006   2.114  14.855 -0.4944 -0.0420  0.3424
 1159TIP3    H124968   1.039   2.133  14.767  1.2925  1.3114  1.2308
 1159TIP3    H224969   0.969   2.026  14.848  0.9967 -0.6057 -1.4077
 1160TIP3   OH224970   4.543   1.542   0.584  0.3351  0.3723 -0.5321
 1160TIP3    H124971   4.486   1.557   0.509 -0.9187  0.9660  0.4953
 1160TIP3    H224972   4.561   1.630   0.618 -0.6355  0.0470  0.9172
 1161TIP3   OH224973   6.219   2.172   2.370 -0.0698  0.1984  0.4797
 1161TIP3    H124974   6.124   2.175   2.382 -0.1438 -1.2309  0.3343
 1161TIP3    H224975   6.254   2.187   2.458 -0.3871  1.5700  0.4039
 1162TIP3   OH224976   6.592   5.406  16.934 -0.3360 -0.1507  0.1016
 1162TIP3    H124977   6.592   5.452  16.850  1.2422 -2.0896 -1.0483
 1162TIP3    H224978   6.648   5.458  16.991 -2.4680  1.9044  0.4773
 1163TIP3   OH224979   0.080   3.965   1.957  0.3803 -0.1167 -0.3265
 1163TIP3    H124980   0.022   4.026   1.912  0.1293  1.1788  1.6339
 1163TIP3    H224981   0.041   3.954   2.044  2.0240 -0.7656  0.3732
 1164TIP3   OH224982   6.664   1.010   2.469 -0.5090 -0.0026 -0.1556
 1164TIP3    H124983   6.662   1.059   2.387  0.7116  2.3999  1.1453
 1164TIP3    H224984   6.582   0.961   2.469 -0.7365  0.2494 -2.5968
 1165TIP3   OH224985   1.013   4.351  11.967 -0.1436 -0.3006  0.8121
 1165TIP3    H124986   0.924   4.322  11.947  0.6245 -1.8264 -0.6821
 1165TIP3    H224987   1.007   4.446  11.969 -1.3230 -0.1938 -2.1571
 1166TIP3   OH224988   0.990   1.621  15.885  0.0689  0.1876  0.1376
 1166TIP3    H124989   0.948   1.637  15.969  2.2750  0.0406  1.3347
 1166TIP3    H224990   0.962   1.532  15.861 -0.8161  0.3462  0.5423
 1167TIP3   OH224991   3.465   5.038   3.414 -0.0254 -0.7191  0.1033
 1167TIP3    H124992   3.392   5.023   3.354  0.0294  0.2465 -0.2157
 1167TIP3    H224993   3.441   5.116   3.464  0.8736 -0.2558 -0.1631
 1168TIP3   OH224994   0.142   5.905   3.058  0.0698 -0.1066 -0.3150
 1168TIP3    H124995   0.193   5.912   3.139  0.5807  0.7637 -0.6964
 1168TIP3    H224996   0.068   5.964   3.071 -0.7829 -1.2526  0.1753
 1169TIP3   OH224997   2.532   4.442  15.582 -0.1200 -0.2774  0.0832
 1169TIP3    H124998   2.525   4.352  15.553  0.4139  0.1630 -1.5262
 1169TIP3    H224999   2.620   4.448  15.620 -0.8244 -0.8567  1.9166
 1170TIP3   OH225000   3.269   1.555   3.414  0.5414 -0.7705 -0.1622
 1170TIP3    H125001   3.248   1.499   3.488 -1.1348  0.6382  0.4754
 1170TIP3    H225002   3.237   1.642   3.438 -0.7508 -0.3977 -2.7953
 1171TIP3   OH225003   3.397   1.111  12.351 -0.5424  0.0099 -0.2079
 1171TIP3    H125004   3.423   1.127  12.442 -1.2687  1.2805 -0.2052
 1171TIP3    H225005   3.401   1.197  12.309 -0.9897 -0.4300 -1.1854
 1172TIP3   OH225006   1.945   3.030   0.840 -0.0215 -0.9787  0.1511
 1172TIP3    H125007   1.978   2.993   0.922 -0.3129 -0.2546  0.6104
 1172TIP3    H225008   1.850   3.022   0.846 -0.1401  0.4282  0.5775
 1173TIP3   OH225009   4.083   5.825   0.471 -0.4009  0.0121  0.2914
 1173TIP3    H125010   4.108   5.822   0.379 -1.0630  0.5061  0.0923
 1173TIP3    H225011   3.988   5.815   0.471 -0.2406 -2.0863  1.0560
 1174TIP3   OH225012   5.673   3.961   0.316 -0.2376  0.1439 -0.6653
 1174TIP3    H125013   5.691   4.055   0.311  0.4441  0.4645  3.8659
 1174TIP3    H225014   5.624   3.950   0.398  1.5637 -3.6157  0.1338
 1175TIP3   OH225015   3.454   3.528  11.308 -0.6213 -0.5179  0.3917
 1175TIP3    H125016   3.480   3.490  11.224 -0.8142 -1.1449  0.6074
 1175TIP3    H225017   3.467   3.457  11.371  2.1331  0.7431  1.3658
 1176TIP3   OH225018   3.766   3.664  11.695 -0.4395 -0.3355 -0.0683
 1176TIP3    H125019   3.775   3.669  11.600  1.0026 -1.8768 -0.0454
 1176TIP3    H225020   3.848   3.700  11.728  0.3216 -2.4719  0.4959
 1177TIP3   OH225021   4.431   5.769  13.944  0.2797  0.2370 -0.2307
 1177TIP3    H125022   4.520   5.737  13.956 -0.0860  0.1319  3.0025
 1177TIP3    H225023   4.389   5.703  13.888  2.1413  0.2765 -1.7644
 1178TIP3   OH225024   5.951   0.350   6.084  0.2851 -0.0275  0.5364
 1178TIP3    H125025   5.897   0.334   6.006 -1.6064 -1.0928  1.9821
 1178TIP3    H225026   5.925   0.281   6.145  2.9046 -0.2097  1.5473
 1179TIP3   OH225027   4.212   5.146  14.038 -0.5456  0.9071  0.5274
 1179TIP3    H125028   4.227   5.217  14.101 -0.8886  0.1057  1.5430
 1179TIP3    H225029   4.160   5.082  14.086  2.2616 -1.4790  0.7056
 1180TIP3   OH225030   0.828   4.536  11.761 -0.5794  0.1027 -0.2016
 1180TIP3    H125031   0.866   4.461  11.715  1.1237  1.1044 -0.4788
 1180TIP3    H225032   0.735   4.535  11.736 -0.4555 -1.5353 -0.6815
 1181TIP3   OH225033   1.562   5.469   0.285  0.0843 -0.7333  0.2085
 1181TIP3    H125034   1.531   5.384   0.315 -0.4984 -0.9011 -0.8355
 1181TIP3    H225035   1.540   5.529   0.356 -1.4486 -1.0884  0.0651
 1182TIP3   OH225036   1.831   0.129   3.936 -0.0138  0.4500 -0.1585
 1182TIP3    H125037   1.858   0.064   3.871 -1.5566 -0.5095  0.1165
 1182TIP3    H225038   1.745   0.159   3.906 -0.6184  0.2114  1.2549
 1183TIP3   OH225039   3.250   5.707  15.775 -0.5406 -0.0620 -0.3901
 1183TIP3    H125040   3.207   5.792  15.771  1.0376  0.7686 -0.6267
 1183TIP3    H225041   3.217   5.668  15.856 -1.3856  0.7039 -0.3429
 1184TIP3   OH225042   1.688   2.931  11.661 -0.0746 -0.2583 -0.1351
 1184TIP3    H125043   1.648   2.986  11.729 -0.8593 -2.0251  0.8821
 1184TIP3    H225044   1.743   2.870  11.709 -0.3896 -1.3296 -1.0982
 1185TIP3   OH225045   2.544   4.003   2.343 -0.6428 -0.1959 -0.0565
 1185TIP3    H125046   2.457   3.995   2.305  0.2246 -0.5925 -2.1026
 1185TIP3    H225047   2.603   4.005   2.267  1.0845  0.7268  1.2349
 1186TIP3   OH225048   4.626   0.437   1.664 -0.0418  0.3333 -0.1831
 1186TIP3    H125049   4.590   0.508   1.716 -0.1834 -0.2011  0.4705
 1186TIP3    H225050   4.617   0.466   1.573 -3.0288 -0.1683 -0.1495
 1187TIP3   OH225051   5.244   5.848  12.832 -0.2444  0.6396  0.1219
 1187TIP3    H125052   5.233   5.753  12.821 -3.6065  0.9859 -0.6484
 1187TIP3    H225053   5.330   5.857  12.873 -0.4879 -2.8522  1.8292
 1188TIP3   OH225054   2.498   2.057   2.791  0.1483 -0.5574  0.3229
 1188TIP3    H125055   2.519   2.070   2.884 -0.7072 -0.2504  0.4791
 1188TIP3    H225056   2.424   1.997   2.791 -0.0093 -0.3673 -0.1505
 1189TIP3   OH225057   6.758   0.729  12.567  0.2463  0.0103  0.0217
 1189TIP3    H125058   6.788   0.749  12.655  1.1167 -1.2587  0.0497
 1189TIP3    H225059   6.730   0.637  12.572  0.4869 -0.1326 -1.0629
 1190TIP3   OH225060   4.763   0.690   3.343 -0.5106 -0.5469  0.3293
 1190TIP3    H125061   4.819   0.757   3.303 -2.5007  0.3002 -1.2452
 1190TIP3    H225062   4.795   0.682   3.432  1.2876  0.7954 -0.1356
 1191TIP3   OH225063   3.154   5.766  10.668 -0.2779  0.2352 -0.3011
 1191TIP3    H125064   3.153   5.830  10.597 -0.1308 -1.9772 -2.4229
 1191TIP3    H225065   3.227   5.792  10.723  0.8050  0.9937 -2.0183
 1192TIP3   OH225066   6.332   1.260   3.243  0.3627  0.3850 -0.7800
 1192TIP3    H125067   6.371   1.295   3.323 -1.8889  1.8427 -0.2245
 1192TIP3    H225068   6.301   1.173   3.269 -2.2980  1.6366  0.7442
 1193TIP3   OH225069   1.621   5.941   3.912 -0.3685  0.1733  0.5418
 1193TIP3    H125070   1.550   5.907   3.966  0.7155  0.8843  2.5320
 1193TIP3    H225071   1.615   5.892   3.830 -1.6616 -1.4688  1.5527
 1194TIP3   OH225072   4.243   5.349  14.805 -0.5598  0.2274 -0.6186
 1194TIP3    H125073   4.310   5.417  14.799  2.0452 -2.2778 -3.2552
 1194TIP3    H225074   4.268   5.298  14.883 -0.9874  0.7909 -0.1065
 1195TIP3   OH225075   2.588   5.301  11.608  0.3317 -0.2125  0.0073
 1195TIP3    H125076   2.534   5.222  11.598 -0.2306  0.2973 -1.0714
 1195TIP3    H225077   2.672   5.278  11.567 -0.2411  0.1402 -1.4109
 1196TIP3   OH225078   1.217   3.735   0.285 -0.7999 -0.3766 -0.5141
 1196TIP3    H125079   1.267   3.725   0.366 -0.3943  0.0095 -0.7118
 1196TIP3    H225080   1.202   3.829   0.277 -0.8984 -0.4187 -0.8532
 1197TIP3   OH225081   3.438   3.390  15.786 -0.5770  0.6453 -0.0453
 1197TIP3    H125082   3.369   3.406  15.850 -1.4027  1.1169 -1.0148
 1197TIP3    H225083   3.518   3.380  15.838 -1.5382 -1.0982  1.1951
 1198TIP3   OH225084   6.276   1.309  14.184  0.6650 -0.4531  0.6051
 1198TIP3    H125085   6.269   1.369  14.259 -1.0179 -1.1928  1.0931
 1198TIP3    H225086   6.212   1.240  14.202  1.0528 -1.2796 -0.9644
 1199TIP3   OH225087   5.799   6.563  10.245 -0.3360 -0.0566  0.8089
 1199TIP3    H125088   5.875   6.514  10.213  0.3729  1.3460  0.2233
 1199TIP3    H225089   5.724   6.523  10.201  0.3155 -0.0268 -0.3833
 1200TIP3   OH225090   3.316   6.138  11.810  0.1154 -0.3729 -0.1725
 1200TIP3    H125091   3.378   6.154  11.882  0.6634 -1.3421 -0.4078
 1200TIP3    H225092   3.284   6.049  11.825  0.8402 -0.9034 -1.5415
 1201TIP3   OH225093   3.764   3.674  16.931 -0.2190  0.5087 -0.1078
 1201TIP3    H125094   3.688   3.715  16.972 -1.1126  1.4306 -2.5055
 1201TIP3    H225095   3.802   3.743  16.875 -0.3967 -1.1788 -2.4828
 1202TIP3   OH225096   5.777   4.032  14.906 -0.0593 -0.1322 -0.2141
 1202TIP3    H125097   5.724   3.952  14.902 -0.4229  0.1251 -0.6808
 1202TIP3    H225098   5.859   4.005  14.947 -0.3781 -0.6376  0.0955
 1203TIP3   OH225099   3.028   3.436  11.382  0.0618  0.4791  0.2601
 1203TIP3    H125100   3.115   3.399  11.367 -0.4590  0.0588 -2.0774
 1203TIP3    H225101   3.030   3.520  11.335 -0.6630  0.6661  0.5599
 1204TIP3   OH225102   6.453   4.002   2.505 -0.6004 -0.2022 -0.4163
 1204TIP3    H125103   6.547   4.013   2.494 -0.5501 -0.7678 -0.5980
 1204TIP3    H225104   6.432   3.923   2.456 -0.7777 -1.3975  1.4675
 1205TIP3   OH225105   6.064   4.986   2.718  0.6315 -0.1280 -0.0622
 1205TIP3    H125106   6.153   4.953   2.710  0.2039 -1.2890 -0.2263
 1205TIP3    H225107   6.026   4.938   2.791 -0.3141 -0.7188 -0.9133
 1206TIP3   OH225108   2.256   1.514  12.549  0.2900  0.5955  0.0100
 1206TIP3    H125109   2.211   1.552  12.624 -1.6217  1.2977 -1.4016
 1206TIP3    H225110   2.200   1.442  12.521  1.7342 -0.6017  0.1242
 1207TIP3   OH225111   4.766   0.891   2.838  0.0371 -0.0356 -0.0760
 1207TIP3    H125112   4.817   0.810   2.843 -0.5187 -0.4050 -0.3058
 1207TIP3    H225113   4.790   0.939   2.917 -0.7210 -1.0815  0.8209
 1208TIP3   OH225114   4.371   1.399  15.665  0.3155  0.1309  0.0334
 1208TIP3    H125115   4.333   1.371  15.749  0.7083  1.2790  0.6106
 1208TIP3    H225116   4.298   1.395  15.603 -0.0866 -0.3006  0.5191
 1209TIP3   OH225117   1.952   6.012  17.130  0.0633  0.4186 -0.3050
 1209TIP3    H125118   2.000   5.934  17.101 -0.2298 -0.7685  2.1597
 1209TIP3    H225119   1.924   6.054  17.049  1.8078 -1.0219 -1.7503
 1210TIP3   OH225120   6.542   3.708  16.563  0.0690 -0.0885  0.1830
 1210TIP3    H125121   6.591   3.667  16.634 -0.0746  0.5688  0.6738
 1210TIP3    H225122   6.514   3.792  16.599 -0.6073 -0.0494 -0.4133
 1211TIP3   OH225123   3.917   2.336   1.032  0.7422  0.0321  0.1268
 1211TIP3    H125124   3.909   2.317   1.125 -0.7300 -1.3942 -0.2490
 1211TIP3    H225125   3.883   2.425   1.022  0.2797 -0.0632  0.8587
 1212TIP3   OH225126   3.293   0.411  17.028  0.0674 -0.0863 -0.2793
 1212TIP3    H125127   3.222   0.463  16.991  0.9554  0.3479 -1.4437
 1212TIP3    H225128   3.253   0.365  17.102 -1.2699  0.5896 -0.5444
 1213TIP3   OH225129   3.159   2.302  14.859  0.0287  0.2571  0.0783
 1213TIP3    H125130   3.227   2.236  14.871 -1.0336 -0.8479  0.1731
 1213TIP3    H225131   3.108   2.299  14.940 -0.3119  0.8641 -0.1090
 1214TIP3   OH225132   2.157   0.781   3.544 -0.2740 -0.0944  0.2328
 1214TIP3    H125133   2.218   0.707   3.550  0.1010  0.3138  3.3127
 1214TIP3    H225134   2.214   0.858   3.541 -0.6684  0.1726 -0.6659
 1215TIP3   OH225135   1.249   5.700   0.327 -0.7017  0.4884 -0.1889
 1215TIP3    H125136   1.183   5.735   0.387  0.6806  0.8013  1.2212
 1215TIP3    H225137   1.316   5.664   0.385 -0.1703 -0.8681 -1.5834
 1216TIP3   OH225138   1.502   6.715  15.421 -0.7027 -0.7840  0.3096
 1216TIP3    H125139   1.552   6.651  15.471  1.2272  0.3445 -0.0475
 1216TIP3    H225140   1.535   6.706  15.331 -3.3120 -2.0203 -0.6321
 1217TIP3   OH225141   1.235   3.404   0.772  0.1880 -0.3621  0.3155
 1217TIP3    H125142   1.169   3.448   0.718  1.4750 -0.1190 -1.1133
 1217TIP3    H225143   1.202   3.414   0.861 -0.2569  2.4053 -0.0470
 1218TIP3   OH225144   6.734   1.652  16.649 -0.2030  0.0932  0.5148
 1218TIP3    H125145   6.827   1.637  16.664  0.2260  1.0661 -1.0429
 1218TIP3    H225146   6.722   1.638  16.555 -2.1159 -2.3775  0.9999
 1219TIP3   OH225147   5.600   0.462  13.882 -0.3004 -0.2272  0.4957
 1219TIP3    H125148   5.586   0.461  13.787  0.0095 -3.5121  0.3830
 1219TIP3    H225149   5.528   0.408  13.917  0.8695 -0.9442  1.8777
 1220TIP3   OH225150   3.611   5.063  11.011  0.0465 -0.0629  0.0768
 1220TIP3    H125151   3.638   4.971  11.004  1.4711  0.3359  0.0718
 1220TIP3    H225152   3.656   5.095  11.089  0.8314  1.0478 -0.8058
 1221TIP3   OH225153   3.788   2.155   1.577  0.0089 -0.6800  0.1689
 1221TIP3    H125154   3.836   2.073   1.594 -0.2985 -0.5568  1.7230
 1221TIP3    H225155   3.751   2.179   1.662 -1.9749 -0.2273 -0.7734
 1222TIP3   OH225156   4.540   3.512  12.416  0.0202 -0.7681  0.0401
 1222TIP3    H125157   4.476   3.441  12.411 -0.2215 -0.6942  1.7309
 1222TIP3    H225158   4.622   3.469  12.440  0.5212 -0.7897 -1.5887
 1223TIP3   OH225159   4.704   5.836  14.546 -0.1936 -0.2812  0.3615
 1223TIP3    H125160   4.648   5.914  14.547  0.7201  0.3870  0.5975
 1223TIP3    H225161   4.656   5.772  14.599 -1.1100 -0.0008 -0.1034
 1224TIP3   OH225162   5.097   1.912   2.287  0.3168 -0.1893 -0.0235
 1224TIP3    H125163   5.114   1.987   2.344  0.8110 -0.3528  0.0488
 1224TIP3    H225164   5.016   1.934   2.242  0.0306  0.0302  0.5947
 1225TIP3   OH225165   0.456   1.720  14.164  0.4739  0.4512 -0.0344
 1225TIP3    H125166   0.400   1.691  14.236 -0.3733 -0.3146 -0.9796
 1225TIP3    H225167   0.423   1.807  14.141 -1.3310 -0.5584 -1.5271
 1226TIP3   OH225168   3.507   0.867  12.289  0.1183  0.2282  0.2480
 1226TIP3    H125169   3.435   0.804  12.284  0.3489 -0.4484  3.3343
 1226TIP3    H225170   3.466   0.948  12.319  0.0934  1.1056 -2.0018
 1227TIP3   OH225171   2.874   1.697  13.106 -0.3588 -0.3793  0.2263
 1227TIP3    H125172   2.871   1.601  13.104 -0.5847 -0.3954  0.9841
 1227TIP3    H225173   2.907   1.721  13.020  0.2251 -1.1604  0.2171
 1228TIP3   OH225174   6.336   2.748   5.619 -0.3358 -0.2663  0.0814
 1228TIP3    H125175   6.343   2.685   5.547  1.3390  1.7977 -1.7058
 1228TIP3    H225176   6.242   2.760   5.631 -0.6910 -2.4286 -0.0663
 1229TIP3   OH225177   6.016   4.019  13.034 -0.0413 -1.0746  0.1061
 1229TIP3    H125178   5.983   3.949  13.091  0.0180 -0.4647  0.9185
 1229TIP3    H225179   5.962   4.095  13.055 -0.6518 -1.0731 -1.3625
 1230TIP3   OH225180   1.371   1.367   5.253 -0.1882  0.4516  0.0226
 1230TIP3    H125181   1.462   1.337   5.258 -0.0977 -0.0342 -2.9595
 1230TIP3    H225182   1.337   1.355   5.341  3.0579  2.1615  1.7056
 1231TIP3   OH225183   0.443   1.296   1.452 -0.0216  0.1260  0.1636
 1231TIP3    H125184   0.488   1.260   1.529  0.2648 -1.8627 -0.8832
 1231TIP3    H225185   0.497   1.270   1.378 -1.0116  0.8419 -0.8420
 1232TIP3   OH225186   0.205   4.504  10.850 -0.0819  0.4962 -0.2601
 1232TIP3    H125187   0.127   4.470  10.895  1.5691 -1.4675  1.3503
 1232TIP3    H225188   0.220   4.443  10.778  0.8492 -0.1447  0.4430
 1233TIP3   OH225189   5.687   4.671  13.174  0.2112  0.8570  0.3436
 1233TIP3    H125190   5.657   4.762  13.170 -1.1249  0.4570  0.5597
 1233TIP3    H225191   5.721   4.653  13.086  0.2108  1.4853  0.2144
 1234TIP3   OH225192   4.477   6.417   2.292  0.1545  0.5229 -0.3293
 1234TIP3    H125193   4.535   6.471   2.238  1.5059 -0.9273 -0.3999
 1234TIP3    H225194   4.533   6.386   2.364 -0.7646 -0.1909  0.0996
 1235TIP3   OH225195   5.184   1.421   1.057 -0.2925 -0.0971  0.0700
 1235TIP3    H125196   5.136   1.435   0.975  1.0525 -0.3265 -0.7906
 1235TIP3    H225197   5.130   1.358   1.106 -0.6862 -0.6307 -1.0208
 1236TIP3   OH225198   3.124   3.777  15.599  0.3904 -0.0614  0.8628
 1236TIP3    H125199   3.117   3.723  15.678  0.5902 -3.3791 -1.1616
 1236TIP3    H225200   3.051   3.838  15.605 -0.3582 -1.0638  3.0001
 1237TIP3   OH225201   5.466   0.250   3.966 -0.2462 -0.0467 -0.3764
 1237TIP3    H125202   5.446   0.343   3.981  2.5166  0.3873  1.2294
 1237TIP3    H225203   5.449   0.209   4.051  0.0030 -0.7468 -0.6628
 1238TIP3   OH225204   6.011   2.202  13.698  0.2181 -0.5571  0.1942
 1238TIP3    H125205   6.015   2.254  13.779  1.4229 -0.1771 -0.0828
 1238TIP3    H225206   6.046   2.117  13.722  2.6969  0.2075 -0.3527
 1239TIP3   OH225207   6.367   5.567   0.687  0.2512 -0.7032 -0.1926
 1239TIP3    H125208   6.279   5.596   0.710  0.5311 -0.6224  0.7877
 1239TIP3    H225209   6.412   5.646   0.656  0.7366 -0.2214  1.6372
 1240TIP3   OH225210   4.255   4.871  13.839  0.6090  0.4459 -0.6819
 1240TIP3    H125211   4.162   4.893  13.843 -0.0079 -1.9599 -0.3194
 1240TIP3    H225212   4.283   4.866  13.931  0.1688 -2.0727 -0.5962
 1241TIP3   OH225213   5.061   1.028   6.042 -0.4922 -0.1264 -0.2173
 1241TIP3    H125214   4.972   1.055   6.020 -0.6937  0.4973  1.2402
 1241TIP3    H225215   5.071   1.051   6.134  0.1965 -2.8118  0.4633
 1242TIP3   OH225216   4.853   2.045  13.843 -0.3520  0.0017  0.4535
 1242TIP3    H125217   4.892   1.999  13.768 -2.5346 -0.0990 -0.7073
 1242TIP3    H225218   4.796   1.979  13.883  0.2010  0.2957  1.7721
 1243TIP3   OH225219   2.417   0.497   0.057 -0.3940 -0.0004 -0.4924
 1243TIP3    H125220   2.340   0.449   0.027 -1.7014  1.0334  1.0518
 1243TIP3    H225221   2.438   0.458   0.142 -0.4769  1.0524  0.0229
 1244TIP3   OH225222   0.615   2.965  12.874  0.2751  0.9655  0.8943
 1244TIP3    H125223   0.625   2.972  12.779 -0.5727  1.5155  0.8341
 1244TIP3    H225224   0.524   2.990  12.890  0.4657  1.0603  1.8742
 1245TIP3   OH225225   5.299   0.532  14.880  0.3617 -0.4065  0.0467
 1245TIP3    H125226   5.222   0.577  14.845  1.7613  2.3116  0.2325
 1245TIP3    H225227   5.278   0.520  14.973 -0.7056 -1.7586 -0.3327
 1246TIP3   OH225228   2.096   3.792   4.968 -0.0853 -0.3045 -0.1833
 1246TIP3    H125229   2.161   3.834   5.023 -2.0116  0.5570  1.5628
 1246TIP3    H225230   2.117   3.699   4.973  1.5122  0.0132 -0.4051
 1247TIP3   OH225231   3.252   2.699  15.022 -0.1542  0.1855 -0.0313
 1247TIP3    H125232   3.347   2.696  15.010 -0.4444 -0.4925 -2.4717
 1247TIP3    H225233   3.216   2.647  14.951 -2.4350  1.8020 -0.1775
 1248TIP3   OH225234   3.589   0.884  10.982 -0.4873 -0.2366  0.1605
 1248TIP3    H125235   3.584   0.972  11.021 -0.8387  0.4729 -1.3813
 1248TIP3    H225236   3.678   0.855  11.000 -0.5031  0.2371  1.0906
 1249TIP3   OH225237   2.003   6.674  12.015  0.1597  0.6468 -0.5348
 1249TIP3    H125238   1.935   6.624  12.060 -1.2450  1.9228 -1.1124
 1249TIP3    H225239   2.078   6.615  12.009 -1.0716 -1.0010 -0.2899
 1250TIP3   OH225240   5.535   0.336  16.332 -0.3630  0.0068  0.2192
 1250TIP3    H125241   5.584   0.287  16.266  0.2301 -0.9007  1.2910
 1250TIP3    H225242   5.481   0.397  16.282 -0.0328 -0.7453 -1.1008
 1251TIP3   OH225243   4.351   5.369   0.246 -0.1499 -0.1881 -0.6167
 1251TIP3    H125244   4.289   5.385   0.317 -0.9555  0.0625 -1.3639
 1251TIP3    H225245   4.346   5.448   0.192  1.8884  0.4754  0.0729
 1252TIP3   OH225246   2.943   0.613  13.277 -0.0285 -0.1418 -0.3990
 1252TIP3    H125247   2.946   0.675  13.350 -0.8827 -0.7124  0.1389
 1252TIP3    H225248   3.031   0.578  13.272  0.2593  0.5390 -0.2006
 1253TIP3   OH225249   0.695   4.795   5.185  0.1812  0.1277  0.3084
 1253TIP3    H125250   0.603   4.770   5.182  0.3296 -0.6265  1.5260
 1253TIP3    H225251   0.696   4.886   5.155 -0.8272 -0.1487 -0.6179
 1254TIP3   OH225252   0.661   6.176  16.847  0.3538  0.9699  0.5494
 1254TIP3    H125253   0.660   6.186  16.943  0.4790 -0.1084  0.6741
 1254TIP3    H225254   0.634   6.261  16.814  1.1696  1.6369  1.5272
 1255TIP3   OH225255   0.874   4.606   1.706  0.0444  0.1709 -0.0539
 1255TIP3    H125256   0.931   4.626   1.780  0.6868 -0.0904 -0.4677
 1255TIP3    H225257   0.813   4.541   1.740  0.9948 -0.7406 -0.0234
 1256TIP3   OH225258   3.404   0.660   0.984  0.6146  0.0600 -0.1628
 1256TIP3    H125259   3.466   0.661   0.911  2.1642  2.6158  1.0331
 1256TIP3    H225260   3.437   0.591   1.042 -0.0245 -1.2763 -1.3389
 1257TIP3   OH225261   0.316   5.533   4.339 -0.2614 -0.3397  0.1374
 1257TIP3    H125262   0.382   5.504   4.276  0.3574  0.5271  0.3673
 1257TIP3    H225263   0.235   5.541   4.287  0.2681  0.4791 -0.5897
 1258TIP3   OH225264   6.014   0.954  13.734  1.1917  0.5416 -0.0842
 1258TIP3    H125265   6.073   1.030  13.723 -0.2759  1.9232  1.1484
 1258TIP3    H225266   5.942   0.972  13.674  0.4335  0.5694  0.8147
 1259TIP3   OH225267   2.122   1.125   3.203  0.3515 -0.5555  0.5327
 1259TIP3    H125268   2.059   1.102   3.272 -1.0454 -0.6544 -0.7155
 1259TIP3    H225269   2.175   1.047   3.191 -1.1508 -1.5035 -0.2906
 1260TIP3   OH225270   4.979   3.974  16.044  0.3378  0.0334 -0.2095
 1260TIP3    H125271   4.950   3.975  15.952  2.3922 -1.9941 -0.9922
 1260TIP3    H225272   4.908   3.931  16.091 -0.8954  1.3895 -0.7252
 1261TIP3   OH225273   0.683   6.084  15.237  0.6727 -0.2187  0.5429
 1261TIP3    H125274   0.722   6.019  15.295 -0.5131 -0.8376  0.6658
 1261TIP3    H225275   0.710   6.168  15.274  1.9329 -0.6215  0.5823
 1262TIP3   OH225276   5.208   3.847   4.600 -0.3220  0.5816  0.0666
 1262TIP3    H125277   5.184   3.805   4.518  1.0372  0.9346 -0.5453
 1262TIP3    H225278   5.285   3.798   4.631  0.1176  1.4112  0.3187
 1263TIP3   OH225279   0.371   3.675  12.614 -0.3410  0.3494 -0.1927
 1263TIP3    H125280   0.379   3.714  12.527  2.6908 -2.6605 -1.5104
 1263TIP3    H225281   0.336   3.587  12.597 -0.7329  0.0611  1.8008
 1264TIP3   OH225282   6.162   6.551  10.070  0.1623  0.3150  0.0271
 1264TIP3    H125283   6.256   6.546  10.087  0.1407  1.5514  0.6480
 1264TIP3    H225284   6.141   6.644  10.081 -0.5031  0.7222 -3.5827
 1265TIP3   OH225285   4.357   1.699   1.824 -0.1673  0.0406 -0.5848
 1265TIP3    H125286   4.263   1.684   1.814 -0.4461  0.1012  1.5776
 1265TIP3    H225287   4.364   1.781   1.871  1.0803  1.0820 -2.4255
 1266TIP3   OH225288   6.769   3.943  13.358 -0.1197 -0.5153  0.1425
 1266TIP3    H125289   6.787   3.878  13.290  1.3371  0.9996 -0.9849
 1266TIP3    H225290   6.835   4.011  13.345 -1.5227  1.1682  1.3269
 1267TIP3   OH225291   4.596   6.227   4.526 -0.5620  0.0781  0.1502
 1267TIP3    H125292   4.587   6.257   4.617  1.3831 -0.0713  0.4426
 1267TIP3    H225293   4.604   6.132   4.534  1.2037  0.1725  0.0312
 1268TIP3   OH225294   0.572   4.855   0.358  0.3476  0.0485  0.1556
 1268TIP3    H125295   0.618   4.916   0.300 -1.9035  1.1515 -0.5803
 1268TIP3    H225296   0.628   4.849   0.435  3.9162 -2.1774 -2.3278
 1269TIP3   OH225297   4.748   4.233   4.156  0.5172  0.1104  0.1267
 1269TIP3    H125298   4.764   4.158   4.213 -0.8452  1.2411  2.1331
 1269TIP3    H225299   4.821   4.292   4.173 -0.2841  0.7856  1.3691
 1270TIP3   OH225300   0.802   6.626   4.600 -0.3690 -0.4118  0.0155
 1270TIP3    H125301   0.716   6.645   4.636 -0.1745 -0.3145  0.4333
 1270TIP3    H225302   0.791   6.544   4.551 -0.2683 -1.4452  1.6487
 1271TIP3   OH225303   5.642   4.683  14.268  0.5324 -0.1661  0.2975
 1271TIP3    H125304   5.634   4.756  14.207  3.3624  0.4015  0.4305
 1271TIP3    H225305   5.630   4.722  14.355 -1.8650 -0.6707  0.2553
 1272TIP3   OH225306   1.490   3.607  10.786  0.4058  0.0460  0.2635
 1272TIP3    H125307   1.552   3.539  10.758  0.9050  0.7654 -0.4155
 1272TIP3    H225308   1.420   3.559  10.831  0.2053 -1.0320 -1.1382
 1273TIP3   OH225309   6.097   2.907   3.928  0.0579 -0.3349  0.2973
 1273TIP3    H125310   6.145   2.868   3.856 -0.9907 -0.2937 -0.4505
 1273TIP3    H225311   6.135   2.867   4.007  0.8814 -0.7438 -0.2956
 1274TIP3   OH225312   6.642   3.242   0.081  0.0209 -0.0960 -0.1595
 1274TIP3    H125313   6.682   3.283   0.005 -0.2287 -0.9233 -0.7408
 1274TIP3    H225314   6.573   3.185   0.046  1.2680 -2.1266  0.4738
 1275TIP3   OH225315   2.836   1.274  11.519 -0.2033 -0.2284 -0.2997
 1275TIP3    H125316   2.849   1.337  11.590  1.1866 -0.9990  0.1658
 1275TIP3    H225317   2.765   1.312  11.466 -0.3316  1.0345  0.7181
 1276TIP3   OH225318   6.268   0.846   5.896  0.4413  0.1546 -0.0017
 1276TIP3    H125319   6.330   0.796   5.843 -1.5856 -1.4024 -1.0778
 1276TIP3    H225320   6.262   0.797   5.979 -2.4355 -2.4071 -1.4778
 1277TIP3   OH225321   4.609   3.037  11.600 -0.1648 -0.6971 -0.8191
 1277TIP3    H125322   4.555   3.114  11.582 -0.2410 -0.6982 -0.6021
 1277TIP3    H225323   4.547   2.970  11.629  0.1470 -0.0488  1.5460
 1278TIP3   OH225324   6.405   0.119  11.044  0.3373 -0.1849 -0.9229
 1278TIP3    H125325   6.409   0.214  11.041  0.7732 -0.2195 -1.8180
 1278TIP3    H225326   6.487   0.093  11.086  0.8650 -0.2068 -1.9437
 1279TIP3   OH225327   5.571   1.412  14.724  0.0507  0.3017 -0.4963
 1279TIP3    H125328   5.663   1.438  14.732  1.0076 -1.9277 -2.9473
 1279TIP3    H225329   5.564   1.333  14.778 -0.1115 -0.1705 -1.2002
 1280TIP3   OH225330   4.833   0.089   1.010 -0.7349 -0.0565  0.0355
 1280TIP3    H125331   4.903   0.024   1.002  0.1620  0.7633  0.8266
 1280TIP3    H225332   4.802   0.078   1.100 -0.4575  0.7097  0.2286
 1281TIP3   OH225333   3.538   6.673  17.033  0.2517  0.0900  0.1593
 1281TIP3    H125334   3.474   6.709  17.094 -0.8909 -0.2780 -0.7683
 1281TIP3    H225335   3.587   6.749  17.002 -1.8604  0.9255 -1.4608
 1282TIP3   OH225336   0.453   6.003   1.440  0.2669 -0.9695 -0.4666
 1282TIP3    H125337   0.375   6.032   1.393  1.2893  0.4714 -1.3545
 1282TIP3    H225338   0.459   5.909   1.421  0.2216 -0.5755 -2.6564
 1283TIP3   OH225339   6.179   5.500   0.325 -0.1284  0.1735  0.0844
 1283TIP3    H125340   6.092   5.495   0.365 -0.1872  1.8671  0.2569
 1283TIP3    H225341   6.240   5.505   0.399  0.2168 -1.7071 -0.0228
 1284TIP3   OH225342   6.443   1.178   4.471 -0.0277  0.4763  0.1214
 1284TIP3    H125343   6.370   1.230   4.503  0.9326  0.4913  2.4595
 1284TIP3    H225344   6.459   1.212   4.383  0.0711  3.6309  1.2314
 1285TIP3   OH225345   4.968   2.823  12.220  0.6684  0.1213  0.0636
 1285TIP3    H125346   5.021   2.902  12.234  0.6192 -0.0262  1.2091
 1285TIP3    H225347   4.954   2.788  12.308 -0.1541 -0.6181 -0.3451
 1286TIP3   OH225348   0.013   6.332  12.667 -0.1777  0.2812  0.4639
 1286TIP3    H125349  -0.032   6.378  12.596  0.9881  1.0686  0.1942
 1286TIP3    H225350   0.091   6.294  12.625 -0.0921 -0.2594  1.0910
 1287TIP3   OH225351   4.115   5.041  17.175  0.2367  0.5175 -0.1810
 1287TIP3    H125352   4.153   5.088  17.249  1.3838 -0.0024 -0.4248
 1287TIP3    H225353   4.171   5.063  17.101 -0.4130  0.3637 -0.7330
 1288TIP3   OH225354   1.749   3.594  15.176  0.0407 -0.7616  0.1566
 1288TIP3    H125355   1.835   3.555  15.161  0.5649  0.8916 -1.6556
 1288TIP3    H225356   1.767   3.682  15.210 -0.9205 -0.5295  0.1129
 1289TIP3   OH225357   4.236   3.288  15.611  0.4918 -0.2768  0.1037
 1289TIP3    H125358   4.279   3.350  15.669 -0.3412  0.6141 -0.2095
 1289TIP3    H225359   4.222   3.336  15.530 -1.1669 -0.4969  0.2241
 1290TIP3   OH225360   6.552   2.326  14.002  0.1703  0.3994 -0.4780
 1290TIP3    H125361   6.460   2.309  14.024  0.6075 -0.2681  0.9787
 1290TIP3    H225362   6.562   2.421  14.011 -0.1785  0.3759  0.2552
 1291TIP3   OH225363   6.662   3.130  12.376  0.0978 -0.0633  0.1171
 1291TIP3    H125364   6.725   3.165  12.314  0.8120 -1.9352 -0.2730
 1291TIP3    H225365   6.596   3.199  12.385  0.8333  0.8925 -1.4511
 1292TIP3   OH225366   6.053   1.645  14.078  0.5275 -0.2123  0.0624
 1292TIP3    H125367   5.997   1.570  14.098  0.6154  0.2358  2.2005
 1292TIP3    H225368   6.137   1.623  14.118  0.1389  1.5891  2.0740
 1293TIP3   OH225369   1.076   0.221   1.777  0.4406  0.0813 -0.0404
 1293TIP3    H125370   1.104   0.285   1.711 -0.3489  0.6749  0.1860
 1293TIP3    H225371   0.986   0.246   1.799  0.6328 -0.1874  1.1540
 1294TIP3   OH225372   1.759   5.501  12.803  0.0100  0.3068  0.1794
 1294TIP3    H125373   1.757   5.408  12.823 -0.4011  0.2058 -0.3404
 1294TIP3    H225374   1.751   5.506  12.708 -1.1130  0.9168  0.2922
 1295TIP3   OH225375   3.174   3.142   0.803  0.2465 -1.0001 -0.5563
 1295TIP3    H125376   3.090   3.182   0.782  0.0082 -0.4372  1.2992
 1295TIP3    H225377   3.239   3.205   0.772 -0.0940 -0.0474  0.6098
 1296TIP3   OH225378   6.151   4.258  14.702  0.4392  0.0532  0.4184
 1296TIP3    H125379   6.221   4.322  14.706  1.3652 -0.6708 -2.0753
 1296TIP3    H225380   6.171   4.195  14.771  0.9794  1.0231  1.1619
 1297TIP3   OH225381   0.477   3.967  13.997  0.4009  0.2572 -0.1699
 1297TIP3    H125382   0.468   4.047  14.050  1.6933 -0.0107  0.5036
 1297TIP3    H225383   0.394   3.921  14.008 -0.2875  1.4085 -0.4057
 1298TIP3   OH225384   4.797   5.412  14.748  0.7556 -0.1761 -0.4471
 1298TIP3    H125385   4.847   5.489  14.723  4.4925 -1.9989  0.6529
 1298TIP3    H225386   4.717   5.417  14.697  2.0130  3.0426 -2.3518
 1299TIP3   OH225387   2.646   2.147  14.533 -0.7485 -0.4799  0.0799
 1299TIP3    H125388   2.734   2.119  14.507 -0.9372  0.1692 -1.3824
 1299TIP3    H225389   2.592   2.068  14.526 -0.0901 -1.1677  2.1459
 1300TIP3   OH225390   4.031   0.972  11.390 -0.1283  0.2215  0.3799
 1300TIP3    H125391   4.031   0.933  11.302 -1.9012 -0.7079  0.7677
 1300TIP3    H225392   3.976   1.049  11.381  1.7959  1.6599  0.1022
 1301TIP3   OH225393   1.872   1.103  12.287  0.5093  0.3478  0.4027
 1301TIP3    H125394   1.794   1.071  12.333  1.2186  0.2714  1.6009
 1301TIP3    H225395   1.932   1.129  12.357  0.4725  3.1241 -0.4913
 1302TIP3   OH225396   2.796   1.636   2.822  0.2344 -0.5779  0.0892
 1302TIP3    H125397   2.801   1.723   2.863 -0.2071  0.2573 -1.5219
 1302TIP3    H225398   2.831   1.649   2.734 -0.3168 -1.9218 -0.3596
 1303TIP3   OH225399   1.421   5.347   2.904 -0.5427 -0.2390  0.0195
 1303TIP3    H125400   1.370   5.420   2.937  0.5644  1.3285 -1.5652
 1303TIP3    H225401   1.476   5.321   2.978 -0.1354  1.2989  0.2938
 1304TIP3   OH225402   5.817   1.577   3.474 -0.2667 -0.4251 -0.4838
 1304TIP3    H125403   5.878   1.511   3.442  0.4841  0.6936 -1.4429
 1304TIP3    H225404   5.741   1.570   3.417  0.3210  0.3436 -1.3828
 1305TIP3   OH225405   6.336   1.918   2.027 -0.2301 -0.1230  0.0808
 1305TIP3    H125406   6.298   1.837   2.062  0.2071 -0.4680 -0.2341
 1305TIP3    H225407   6.378   1.959   2.103 -1.1220  0.2086  0.4082
 1306TIP3   OH225408   1.849   6.609  17.246  0.3667  0.1675 -0.3669
 1306TIP3    H125409   1.851   6.566  17.332  1.2382  2.1535  0.6879
 1306TIP3    H225410   1.791   6.684  17.259 -0.6011 -0.2703 -1.9508
 1307TIP3   OH225411   2.783   2.182   0.054 -0.0322  0.0269  0.0153
 1307TIP3    H125412   2.816   2.199   0.142  0.5274  0.4282 -0.2656
 1307TIP3    H225413   2.737   2.262   0.030 -0.4447 -0.1973  0.0614
 1308TIP3   OH225414   4.851   5.559   6.814 -0.1099  0.1961  0.2905
 1308TIP3    H125415   4.777   5.606   6.776  0.8559  0.5776 -1.2536
 1308TIP3    H225416   4.926   5.618   6.800  0.4488 -0.0136  2.1182
 1309TIP3   OH225417   3.432   4.708   0.554 -0.5229  0.4382 -0.5340
 1309TIP3    H125418   3.400   4.793   0.522 -1.0004 -0.2586 -1.9689
 1309TIP3    H225419   3.500   4.683   0.492  0.2705  0.1909  0.4182
 1310TIP3   OH225420   6.086   3.565  12.528 -0.0825  0.4663  0.0987
 1310TIP3    H125421   6.085   3.636  12.463 -2.2534  0.8797  0.4984
 1310TIP3    H225422   6.108   3.609  12.610 -0.0058  0.4284  0.0980
 1311TIP3   OH225423   3.217   3.270   2.553  0.4802  0.6397  0.6272
 1311TIP3    H125424   3.221   3.201   2.620 -1.4337  1.4362  1.6475
 1311TIP3    H225425   3.304   3.310   2.554  0.7538  0.0638  2.0393
 1312TIP3   OH225426   2.126   4.726   5.411  0.1153  0.6221  0.3880
 1312TIP3    H125427   2.051   4.738   5.353  0.4393 -0.2117 -0.2312
 1312TIP3    H225428   2.201   4.759   5.360  0.6792 -1.7084 -0.4529
 1313TIP3   OH225429   5.995   2.086   6.112  0.1011  0.0667  0.1511
 1313TIP3    H125430   6.090   2.099   6.117  0.3630 -1.2577 -0.8777
 1313TIP3    H225431   5.971   2.055   6.199  0.8152 -0.7361  0.0773
 1314TIP3   OH225432   5.248   1.621   4.065  0.3028 -0.3702  0.2078
 1314TIP3    H125433   5.324   1.564   4.058  1.5896  1.1599  1.0097
 1314TIP3    H225434   5.220   1.612   4.156 -0.2160 -0.5755  0.0342
 1315TIP3   OH225435   5.557   0.995  12.270  0.7075 -0.4214  0.4089
 1315TIP3    H125436   5.590   1.044  12.346  0.3135  1.2477 -0.4358
 1315TIP3    H225437   5.515   1.062  12.215  0.3317 -1.6982 -0.9291
 1316TIP3   OH225438   1.756   6.106  15.576 -0.7487  0.0930  0.0654
 1316TIP3    H125439   1.822   6.043  15.548 -1.2112 -0.9506  1.2175
 1316TIP3    H225440   1.780   6.129  15.666 -1.0882  0.8874 -0.0357
 1317TIP3   OH225441   3.969   3.158   5.702  0.0013 -0.1993  0.0784
 1317TIP3    H125442   4.037   3.226   5.700 -1.4256  1.3021 -0.5542
 1317TIP3    H225443   4.017   3.076   5.710  1.7980  0.9001  1.3664
 1318TIP3   OH225444   2.561   2.210   4.565 -0.1137  0.1057  0.1892
 1318TIP3    H125445   2.656   2.207   4.556 -0.0888  2.4387 -0.8310
 1318TIP3    H225446   2.537   2.120   4.589  2.1275 -1.0334 -1.4335
 1319TIP3   OH225447   2.393   0.405   0.869 -0.1995 -0.6241 -0.2406
 1319TIP3    H125448   2.311   0.412   0.919  1.0544  0.5417  1.7849
 1319TIP3    H225449   2.424   0.495   0.861  0.6187 -0.9951 -1.5081
 1320TIP3   OH225450   1.470   2.535   3.205 -0.2058  0.2881  0.4111
 1320TIP3    H125451   1.499   2.552   3.116  1.1824  0.4533  0.8695
 1320TIP3    H225452   1.394   2.477   3.195 -0.2497  0.5480 -0.8758
 1321TIP3   OH225453   0.197   2.655  14.616  0.4776  0.1254 -0.1899
 1321TIP3    H125454   0.266   2.709  14.656  0.8901 -0.0611 -0.6337
 1321TIP3    H225455   0.116   2.688  14.653  0.7947  0.4773  0.2003
 1322TIP3   OH225456   1.807   6.620  13.386  0.4202 -0.0414 -0.2096
 1322TIP3    H125457   1.742   6.689  13.371 -0.1530 -0.1556  1.5843
 1322TIP3    H225458   1.791   6.557  13.315 -0.2414  0.7861 -0.8239
 1323TIP3   OH225459   6.595   0.324   1.329  0.2052  0.0370  0.0184
 1323TIP3    H125460   6.567   0.348   1.417 -0.9152  2.3656 -0.8759
 1323TIP3    H225461   6.524   0.270   1.295 -0.7261  1.4341 -0.3580
 1324TIP3   OH225462   6.320   2.950  12.928  0.2937  0.6999  1.0492
 1324TIP3    H125463   6.383   2.975  12.995  0.8355  2.0233  0.0902
 1324TIP3    H225464   6.246   3.008  12.942  0.6071  1.3125  0.2218
 1325TIP3   OH225465   2.551   6.109   1.297 -0.1688 -0.0873 -0.1254
 1325TIP3    H125466   2.511   6.195   1.306  0.3383  0.2090 -0.6869
 1325TIP3    H225467   2.619   6.106   1.364  0.3024  0.2341 -0.5822
 1326TIP3   OH225468   3.660   1.891  14.198  0.2682  0.0983 -0.0875
 1326TIP3    H125469   3.621   1.949  14.263  1.3524  0.0496  0.6411
 1326TIP3    H225470   3.681   1.811  14.247  1.6083  0.2666 -0.3487
 1327TIP3   OH225471   3.558   0.007  16.242  0.1492  0.6173 -0.5035
 1327TIP3    H125472   3.627  -0.055  16.218  1.3847  1.8124 -0.1507
 1327TIP3    H225473   3.595   0.093  16.222 -1.0150  1.3161  0.2484
 1328TIP3   OH225474   2.301   5.553   0.608 -0.3402 -0.3949  0.3286
 1328TIP3    H125475   2.232   5.526   0.668  0.5902  0.5882  1.9061
 1328TIP3    H225476   2.307   5.481   0.545 -2.1182 -0.9383  0.7303
 1329TIP3   OH225477   5.442   3.909   4.913 -0.3814  0.3955  0.6013
 1329TIP3    H125478   5.445   3.817   4.939 -0.7719  0.6924  1.7467
 1329TIP3    H225479   5.353   3.922   4.880 -0.9526  0.8065  2.2283
 1330TIP3   OH225480   2.647   3.285  14.971 -0.7403  0.2053 -0.0012
 1330TIP3    H125481   2.613   3.202  14.936  0.2133 -0.4658  0.6070
 1330TIP3    H225482   2.651   3.271  15.066  2.3521 -0.2683 -0.0810
 1331TIP3   OH225483   1.690   1.728   3.282 -0.9231  0.4435  0.1208
 1331TIP3    H125484   1.747   1.699   3.353 -0.5910  0.7464 -0.0174
 1331TIP3    H225485   1.651   1.648   3.248  0.2236  0.1115 -0.4636
 1332TIP3   OH225486   4.627   1.780   4.223 -0.9135  0.0167 -0.0907
 1332TIP3    H125487   4.603   1.723   4.296 -2.7183  0.9550  0.1145
 1332TIP3    H225488   4.647   1.864   4.265  0.3950 -0.0701 -0.4993
 1333TIP3   OH225489   1.647   0.183  10.797 -0.0251 -0.0568 -0.1673
 1333TIP3    H125490   1.645   0.178  10.701  0.6174  0.8755 -0.2372
 1333TIP3    H225491   1.593   0.260  10.818 -1.3117 -1.0470  0.3095
 1334TIP3   OH225492   1.574   0.250   1.245 -0.0187  0.0881 -0.8190
 1334TIP3    H125493   1.627   0.260   1.166  0.0396  1.8406 -0.5822
 1334TIP3    H225494   1.610   0.172   1.287  0.8148 -0.1172 -1.8431
 1335TIP3   OH225495   3.102   0.047   6.615  0.2895  0.6655 -0.1357
 1335TIP3    H125496   3.033   0.113   6.623 -1.0595 -0.8321  1.3128
 1335TIP3    H225497   3.142   0.043   6.702  0.1047 -0.6569 -0.0926
 1336TIP3   OH225498   4.095   5.863   2.622 -0.2130 -0.7344 -0.4837
 1336TIP3    H125499   4.099   5.889   2.714 -1.0931 -0.1599 -0.6029
 1336TIP3    H225500   4.048   5.779   2.623 -0.1380 -0.7762 -0.4069
 1337TIP3   OH225501   1.789   5.749  15.373  0.4503  0.0540  0.2612
 1337TIP3    H125502   1.878   5.742  15.338  0.7081 -1.5846  1.1196
 1337TIP3    H225503   1.754   5.829  15.334  1.7887 -0.0332 -1.2387
 1338TIP3   OH225504   2.268   5.631   3.711 -0.3576 -0.0865  1.0901
 1338TIP3    H125505   2.319   5.602   3.635 -0.4804  0.9986  0.5750
 1338TIP3    H225506   2.320   5.603   3.786 -1.3752 -3.3092  0.7308
 1339TIP3   OH225507   3.733   6.763  15.284 -0.2273  0.6341  0.2560
 1339TIP3    H125508   3.766   6.848  15.314 -1.3237  0.7117  1.3598
 1339TIP3    H225509   3.646   6.756  15.324 -0.9095 -0.2255 -1.2808
 1340TIP3   OH225510   1.057   3.202  13.548  0.6694  0.3490 -0.2710
 1340TIP3    H125511   1.097   3.122  13.583  4.2654  1.5206 -1.2635
 1340TIP3    H225512   0.997   3.230  13.616  1.2252 -1.8214  1.2395
 1341TIP3   OH225513   3.876   5.326   2.286  0.0276 -0.2827 -0.2004
 1341TIP3    H125514   3.791   5.294   2.315  0.0077  0.5398  0.6795
 1341TIP3    H225515   3.858   5.372   2.204 -0.4492  0.2946  0.2259
 1342TIP3   OH225516   1.679   3.902  13.882  0.3423 -0.3055  0.1057
 1342TIP3    H125517   1.622   3.952  13.941  1.1682  3.0212 -1.6435
 1342TIP3    H225518   1.767   3.919  13.914  0.6192 -3.1019  1.1110
 1343TIP3   OH225519   4.251   4.614  16.432 -0.1502 -0.2132 -0.5359
 1343TIP3    H125520   4.328   4.594  16.485 -0.8257  1.5385  1.2506
 1343TIP3    H225521   4.178   4.572  16.477 -0.2690 -2.1943 -2.4296
 1344TIP3   OH225522   1.364   5.311   3.226 -0.3150  0.2172 -0.1265
 1344TIP3    H125523   1.426   5.260   3.175 -0.2233  1.3821 -1.2232
 1344TIP3    H225524   1.418   5.378   3.269 -0.8082  1.3433 -1.2214
 1345TIP3   OH225525   5.411   0.864   0.660  0.4171 -0.3711 -0.0029
 1345TIP3    H125526   5.380   0.886   0.748  1.0861 -1.0791  0.4148
 1345TIP3    H225527   5.394   0.943   0.608 -0.1017  0.0041  0.7225
 1346TIP3   OH225528   2.140   0.550  15.625  0.5500 -0.2776 -0.8614
 1346TIP3    H125529   2.125   0.614  15.556  0.0890 -0.1849 -0.6840
 1346TIP3    H225530   2.118   0.597  15.706 -1.2703 -1.0848 -0.8349
 1347TIP3   OH225531   6.592   1.214   1.917 -0.3197  0.2442 -0.1802
 1347TIP3    H125532   6.633   1.144   1.866 -1.2351 -0.5684  0.1851
 1347TIP3    H225533   6.505   1.224   1.879 -1.1838 -0.6739  1.4408
 1348TIP3   OH225534   2.588   3.356  15.784 -0.2784 -0.1942  0.1421
 1348TIP3    H125535   2.683   3.357  15.802 -0.5146 -0.5914  1.5477
 1348TIP3    H225536   2.575   3.428  15.722  0.9309 -0.0442  0.0367
 1349TIP3   OH225537   2.624   3.443   2.467 -0.4700 -0.1555  0.3150
 1349TIP3    H125538   2.691   3.382   2.497 -0.1786  0.6416  1.3522
 1349TIP3    H225539   2.549   3.426   2.523  0.2092  1.6151  1.8660
 1350TIP3   OH225540   1.101   6.712   1.797  0.6193  0.4614  0.1297
 1350TIP3    H125541   1.017   6.668   1.779  1.1003  0.0096 -1.1725
 1350TIP3    H225542   1.077   6.797   1.833 -0.3947  0.2674 -0.0640
 1351TIP3   OH225543   1.896   5.754  13.876 -0.1234  0.7422 -0.4175
 1351TIP3    H125544   1.855   5.668  13.876 -1.5712  1.3627 -1.8596
 1351TIP3    H225545   1.985   5.739  13.845 -0.1324 -0.3151  0.0463
 1352TIP3   OH225546   3.946   4.357  12.242 -0.8065  0.3579 -0.1105
 1352TIP3    H125547   3.893   4.322  12.170 -1.2214  0.8128 -0.0249
 1352TIP3    H225548   3.893   4.425  12.281 -0.4828  0.2804  0.4842
 1353TIP3   OH225549   5.823   3.709   4.325  0.6809 -1.0213  0.2433
 1353TIP3    H125550   5.848   3.645   4.257  0.6207  0.9409 -1.7524
 1353TIP3    H225551   5.852   3.793   4.290  0.8789  0.0775  2.8342
 1354TIP3   OH225552   0.761   4.342   4.469  0.6628 -0.2920 -0.5689
 1354TIP3    H125553   0.788   4.302   4.387 -1.0368 -1.8160 -0.4328
 1354TIP3    H225554   0.696   4.283   4.505 -0.9129  1.8735  0.3772
 1355TIP3   OH225555   5.885   5.776   1.134 -0.1297 -0.3149 -0.1766
 1355TIP3    H125556   5.932   5.703   1.093 -0.3129 -1.3707  1.4200
 1355TIP3    H225557   5.840   5.819   1.061 -1.7705 -3.0959 -0.9476
 1356TIP3   OH225558   0.662   6.500   0.180 -0.1074 -0.4764  0.2159
 1356TIP3    H125559   0.666   6.412   0.144  0.8591 -0.4812  0.3133
 1356TIP3    H225560   0.709   6.554   0.116 -0.6069 -0.0484  0.2038
 1357TIP3   OH225561   3.746   2.375   2.844 -0.0953  0.6239 -0.0774
 1357TIP3    H125562   3.807   2.357   2.771 -0.0229  0.8534 -0.0745
 1357TIP3    H225563   3.771   2.462   2.874  0.1524  0.3580  0.4976
 1358TIP3   OH225564   2.404   0.773  14.932 -0.1648  0.4950  0.1206
 1358TIP3    H125565   2.365   0.795  14.847 -2.4603  0.2980  1.0267
 1358TIP3    H225566   2.353   0.823  14.995  1.7279  0.9203  1.3922
 1359TIP3   OH225567   2.462   1.243  16.710  0.3346  0.1907  0.2770
 1359TIP3    H125568   2.478   1.173  16.647 -0.5470  1.9148 -2.0113
 1359TIP3    H225569   2.524   1.312  16.685 -0.7733  1.3340  0.5531
 1360TIP3   OH225570   0.141   5.257  14.359  0.4051 -0.3997 -0.1469
 1360TIP3    H125571   0.180   5.299  14.282  1.5129  0.6657  0.9487
 1360TIP3    H225572   0.155   5.163  14.345  0.2372 -0.2443 -1.4196
 1361TIP3   OH225573   0.938   3.765   3.502  0.3196  1.1163  0.1584
 1361TIP3    H125574   0.950   3.845   3.451  1.7045  1.1194  0.4470
 1361TIP3    H225575   0.927   3.696   3.436  1.4544  1.2162 -0.1667
 1362TIP3   OH225576   5.405   4.108  12.685  0.4104 -0.5318  0.2654
 1362TIP3    H125577   5.387   4.202  12.685 -0.6035 -0.6989  1.7508
 1362TIP3    H225578   5.464   4.094  12.759  0.7377 -1.0528 -0.0834
 1363TIP3   OH225579   2.814   0.671   6.063  0.6836 -0.7091  0.1712
 1363TIP3    H125580   2.848   0.638   6.146  1.2857  3.0619  1.6245
 1363TIP3    H225581   2.720   0.676   6.076  0.8344  0.4379  0.8897
 1364TIP3   OH225582   2.188   1.943   4.126  0.4694  0.3438  0.2870
 1364TIP3    H125583   2.101   1.979   4.143 -0.6158 -1.3306 -1.2955
 1364TIP3    H225584   2.199   1.876   4.193  0.1022 -0.0798 -0.0639
 1365TIP3   OH225585   1.074   6.091   4.962 -0.1165 -0.0388  0.6513
 1365TIP3    H125586   1.118   6.122   5.040 -0.0176 -1.0988  1.0315
 1365TIP3    H225587   1.134   6.111   4.890  1.4471 -2.2348  1.2520
 1366TIP3   OH225588   0.682   4.163  12.234 -0.0469  0.3721  0.7271
 1366TIP3    H125589   0.754   4.110  12.199  1.2994  2.0634  0.7514
 1366TIP3    H225590   0.706   4.179  12.325  0.2047  1.9346  0.4188
 1367TIP3   OH225591   4.918   0.533  16.894  0.0302 -0.3672 -0.0468
 1367TIP3    H125592   4.891   0.470  16.828 -2.0109 -2.4460  2.5404
 1367TIP3    H225593   5.002   0.500  16.927  0.2139 -0.2841 -0.4305
 1368TIP3   OH225594   5.692   6.560  16.371 -0.5256 -0.4472 -0.1633
 1368TIP3    H125595   5.633   6.528  16.303  0.7101 -1.0696 -0.9924
 1368TIP3    H225596   5.779   6.560  16.329  0.1231  0.0921  1.1148
 1369TIP3   OH225597   4.812   4.153  11.900 -0.0166 -0.0700 -0.0964
 1369TIP3    H125598   4.752   4.223  11.925 -1.6324 -0.5980 -2.1972
 1369TIP3    H225599   4.860   4.187  11.825  1.2872 -0.2275  0.6229
 1370TIP3   OH225600   3.420   4.393   5.612 -0.0601 -0.1420  0.7462
 1370TIP3    H125601   3.390   4.355   5.694  0.8784 -1.4518  0.5240
 1370TIP3    H225602   3.395   4.485   5.616 -1.7387 -0.6189  1.6461
 1371TIP3   OH225603   5.685   3.095   4.428 -0.1527  0.5098 -0.0468
 1371TIP3    H125604   5.645   3.126   4.510  0.1759 -1.8090  1.0741
 1371TIP3    H225605   5.612   3.062   4.377 -0.1380  0.1684  0.1543
 1372TIP3   OH225606   0.555   0.573   6.430  0.4659 -0.1232 -1.0730
 1372TIP3    H125607   0.593   0.586   6.343 -0.0282  2.7093 -0.9739
 1372TIP3    H225608   0.582   0.651   6.479 -0.9786 -0.6566  0.6661
 1373TIP3   OH225609   4.503   3.178   2.818 -0.1356 -0.6314  0.3342
 1373TIP3    H125610   4.495   3.102   2.875 -0.7966 -0.3176  0.6693
 1373TIP3    H225611   4.489   3.254   2.875 -0.7691 -0.3116 -0.2171
 1374TIP3   OH225612   6.214   2.452   2.582 -0.2919 -0.0395 -0.1735
 1374TIP3    H125613   6.131   2.414   2.610 -1.0594  0.2557 -1.8935
 1374TIP3    H225614   6.199   2.546   2.579  0.6018  0.1595  0.9778
 1375TIP3   OH225615   1.955   2.268  16.592  0.8349  0.0984 -0.4228
 1375TIP3    H125616   1.941   2.360  16.569 -0.9414 -0.0724 -0.2007
 1375TIP3    H225617   1.868   2.236  16.616  1.7808 -0.9750  1.9708
 1376TIP3   OH225618   4.954   3.932   6.274  0.2237  0.3238 -0.1057
 1376TIP3    H125619   4.937   4.022   6.303  1.6673  0.4518  0.3774
 1376TIP3    H225620   5.003   3.892   6.346  0.7047 -0.4586 -0.8542
 1377TIP3   OH225621   6.036   0.854  11.531 -0.0109  0.4811 -0.4965
 1377TIP3    H125622   6.012   0.914  11.460  0.5191  2.7226  1.1191
 1377TIP3    H225623   6.014   0.902  11.611  2.6562 -0.4931  0.9324
 1378TIP3   OH225624   2.317   1.895  12.388  0.0770  0.3510  0.0514
 1378TIP3    H125625   2.334   1.820  12.445  1.2152  0.4067 -0.1969
 1378TIP3    H225626   2.384   1.959  12.411 -1.4819  1.7366  0.9535
 1379TIP3   OH225627   6.694   4.749   1.469 -0.6144 -0.3175  0.3029
 1379TIP3    H125628   6.764   4.714   1.413  0.8738  1.7301  0.7691
 1379TIP3    H225629   6.704   4.701   1.551  0.5070  0.1625  0.4774
 1380TIP3   OH225630   4.546   1.158  13.386 -0.1841  0.5975  0.0164
 1380TIP3    H125631   4.491   1.129  13.459  0.6883  2.8052  1.6602
 1380TIP3    H225632   4.504   1.238  13.354 -0.6833 -0.4529 -2.1510
 1381TIP3   OH225633   1.627   1.135  12.384  0.2283 -0.4362 -0.4755
 1381TIP3    H125634   1.576   1.208  12.350 -1.0073 -1.3892 -0.7557
 1381TIP3    H225635   1.619   1.142  12.480  1.6682  0.8337 -0.4131
 1382TIP3   OH225636   0.910   0.452  12.691  0.3444 -0.2130 -0.3580
 1382TIP3    H125637   0.914   0.435  12.785  1.1515 -0.3019 -0.4029
 1382TIP3    H225638   0.996   0.427  12.658  0.0065 -0.3702 -1.1576
 1383TIP3   OH225639   4.496   4.705  14.044 -0.1538 -0.0250 -0.1463
 1383TIP3    H125640   4.468   4.725  14.134  1.1046 -1.8139  0.7049
 1383TIP3    H225641   4.433   4.640  14.013 -1.6943  1.9082 -1.3217
 1384TIP3   OH225642   1.098   1.126  14.357  0.3792  0.4603  0.5867
 1384TIP3    H125643   1.030   1.080  14.307  1.6822 -1.3977  0.4055
 1384TIP3    H225644   1.075   1.109  14.449  0.2790  0.3241  0.5369
 1385TIP3   OH225645   0.145   4.522   5.966  0.3121  0.0721 -0.0789
 1385TIP3    H125646   0.135   4.552   5.875  0.4165  0.1581 -0.0614
 1385TIP3    H225647   0.218   4.573   6.000  0.2128  0.1043  0.0826
 1386TIP3   OH225648   0.717   6.323   6.636  0.0149 -0.0165 -0.2751
 1386TIP3    H125649   0.712   6.229   6.652 -1.7963  0.3470  1.8352
 1386TIP3    H225650   0.805   6.347   6.666 -0.5072 -0.6684  2.0340
 1387TIP3   OH225651   0.363   3.330  14.775 -0.8509  0.0764  0.3013
 1387TIP3    H125652   0.369   3.392  14.848 -0.3589  0.6490 -0.2072
 1387TIP3    H225653   0.287   3.359  14.724 -1.7906 -0.9089  1.0931
 1388TIP3   OH225654   4.105   3.394   5.808 -0.8335  0.7173 -0.6051
 1388TIP3    H125655   4.175   3.444   5.849 -1.2033  0.7525 -0.0190
 1388TIP3    H225656   4.025   3.439   5.832 -1.2394 -0.5478  0.5315
 1389TIP3   OH225657   2.535   6.598   2.597 -0.6188 -0.0241  0.3872
 1389TIP3    H125658   2.461   6.538   2.607 -1.5434  0.9254 -0.4830
 1389TIP3    H225659   2.548   6.635   2.684 -1.3845  0.0352  0.4824
 1390TIP3   OH225660   0.827   6.664   1.882 -0.3209  0.0670  0.5653
 1390TIP3    H125661   0.763   6.595   1.867  1.3143 -1.2333 -0.6749
 1390TIP3    H225662   0.901   6.621   1.924  0.6160  1.1185  0.0557
 1391TIP3   OH225663   5.633   5.727  16.614 -0.2691 -0.4504  0.8624
 1391TIP3    H125664   5.703   5.662  16.609 -0.7138 -1.0024  1.5274
 1391TIP3    H225665   5.574   5.693  16.682 -0.7677  0.3997  0.8667
 1392TIP3   OH225666   3.420   4.399  12.783 -0.1540 -0.1720  0.2808
 1392TIP3    H125667   3.475   4.352  12.845 -1.2621 -0.9111  0.7364
 1392TIP3    H225668   3.331   4.372  12.804 -0.6012 -0.0664 -1.3096
 1393TIP3   OH225669   6.294   1.839   4.541  0.1625 -0.0006  0.0945
 1393TIP3    H125670   6.379   1.835   4.497  0.1331  0.7981 -0.0431
 1393TIP3    H225671   6.231   1.853   4.470 -0.1521 -1.0411  0.1392
 1394TIP3   OH225672   3.726   2.051   0.885  0.1703 -0.3765  0.4179
 1394TIP3    H125673   3.723   2.116   0.956 -2.2616 -1.1110  1.0629
 1394TIP3    H225674   3.671   1.979   0.916 -0.3344 -1.0525 -1.9006
 1395TIP3   OH225675   1.300   1.677   0.327 -0.5437  0.2291  0.1136
 1395TIP3    H125676   1.212   1.652   0.300 -0.5733  0.1844  0.2495
 1395TIP3    H225677   1.298   1.674   0.423 -0.2626 -0.2365  0.1102
 1396TIP3   OH225678   4.028   0.579   5.402  0.0245 -0.1899 -0.5723
 1396TIP3    H125679   4.094   0.515   5.432 -0.0380 -0.0979 -0.2429
 1396TIP3    H225680   4.072   0.627   5.332  0.7929  0.7910  0.5453
 1397TIP3   OH225681   5.991   1.575  13.082  0.4588  0.4397 -0.0941
 1397TIP3    H125682   6.000   1.480  13.087  0.2166  0.3621 -0.9828
 1397TIP3    H225683   6.081   1.607  13.079  0.7027 -0.0776 -4.5326
 1398TIP3   OH225684   3.910   3.974   0.845  0.5796 -0.1938  0.4590
 1398TIP3    H125685   3.965   3.905   0.809  3.1094  0.5098  2.6191
 1398TIP3    H225686   3.963   4.054   0.834 -2.0723  1.4466 -1.6205
 1399TIP3   OH225687   4.688   4.133   6.201 -0.1028 -0.3385  0.2482
 1399TIP3    H125688   4.661   4.186   6.126 -1.3361 -2.1961 -0.6995
 1399TIP3    H225689   4.615   4.072   6.215  0.9565 -1.3420  1.6816
 1400TIP3   OH225690   1.196   1.840  16.230 -0.0028 -0.5978 -0.2099
 1400TIP3    H125691   1.168   1.826  16.139 -0.7754 -0.3903 -0.0121
 1400TIP3    H225692   1.289   1.860  16.223 -0.0391 -0.6452 -0.9520
 1401TIP3   OH225693   4.403   1.761   5.989 -0.3279 -0.1891 -0.9207
 1401TIP3    H125694   4.324   1.727   5.947 -1.4303  1.6658 -0.4723
 1401TIP3    H225695   4.418   1.846   5.947  0.4319  0.2445  0.1749
 1402TIP3   OH225696   2.846   3.987  14.984 -0.5301 -0.3199  0.0066
 1402TIP3    H125697   2.917   4.037  14.943 -0.8027 -1.0790 -1.4800
 1402TIP3    H225698   2.771   4.046  14.984 -0.7396 -0.5465 -1.3739
 1403TIP3   OH225699   5.954   6.668  11.662 -0.1717  0.0081  0.0373
 1403TIP3    H125700   6.019   6.635  11.600  0.3778  1.7915 -0.3881
 1403TIP3    H225701   5.975   6.761  11.672  0.9643 -0.4701  4.2755
 1404TIP3   OH225702   0.254   2.664  12.255  0.1485 -0.2323  0.0716
 1404TIP3    H125703   0.284   2.754  12.245 -0.9442  0.2582  0.9083
 1404TIP3    H225704   0.267   2.645  12.348 -2.6065  0.2513  0.6485
 1405TIP3   OH225705   1.148   2.226   0.130  0.5899  0.1082 -0.2659
 1405TIP3    H125706   1.057   2.197   0.140  0.5560  0.3370  0.0987
 1405TIP3    H225707   1.199   2.146   0.142  0.6771  0.5527  3.7418
 1406TIP3   OH225708   6.495   0.158  12.805  0.3104  0.3374  0.0601
 1406TIP3    H125709   6.549   0.095  12.757 -0.8024 -0.2052 -0.4954
 1406TIP3    H225710   6.453   0.210  12.737  0.2695  0.8904  0.4994
 1407TIP3   OH225711   2.209   2.577  16.872  0.7020  0.1303 -0.2990
 1407TIP3    H125712   2.251   2.500  16.835 -0.9657  0.2936 -2.7867
 1407TIP3    H225713   2.278   2.644  16.874  1.5494 -0.7222 -0.4186
 1408TIP3   OH225714   3.583   0.083   0.984 -0.3394 -0.5371  0.1808
 1408TIP3    H125715   3.596   0.026   1.061 -1.0955 -0.0621  0.6775
 1408TIP3    H225716   3.554   0.023   0.915  1.6656 -1.1782 -0.1551
 1409TIP3   OH225717   0.665   3.224  12.289  0.2878  0.1570  0.1535
 1409TIP3    H125718   0.682   3.309  12.330  0.4017  0.3935 -0.3732
 1409TIP3    H225719   0.709   3.229  12.204 -0.9245  0.1176 -0.4924
 1410TIP3   OH225720   5.818   6.097   4.540  0.3627  0.7974  0.0939
 1410TIP3    H125721   5.904   6.073   4.505  0.0138  0.1389 -0.3270
 1410TIP3    H225722   5.822   6.071   4.633 -0.2381 -1.6701 -0.4823
 1411TIP3   OH225723   1.045   0.939   4.490 -0.1007  0.2375 -0.2144
 1411TIP3    H125724   1.086   0.947   4.404  0.7562 -1.0785  0.0252
 1411TIP3    H225725   1.098   0.995   4.547  0.7241 -0.6003 -0.1283
 1412TIP3   OH225726   3.578   4.839   4.971 -0.3781 -0.0385 -0.1829
 1412TIP3    H125727   3.543   4.901   5.035 -0.0201  0.8971 -0.8675
 1412TIP3    H225728   3.576   4.887   4.888  1.0737 -0.5041 -0.5110
 1413TIP3   OH225729   2.905   1.002  13.823 -0.2033  0.9518  0.4939
 1413TIP3    H125730   2.836   0.952  13.868 -0.4053  0.7591 -0.0234
 1413TIP3    H225731   2.865   1.028  13.740 -0.0232  1.7852  0.6640
 1414TIP3   OH225732   0.634   1.520  13.792 -0.4161 -0.1588 -0.3028
 1414TIP3    H125733   0.673   1.524  13.879  0.1922  0.5756 -0.6097
 1414TIP3    H225734   0.547   1.559  13.804 -0.3625 -0.1204 -0.0156
 1415TIP3   OH225735   2.704   5.437   0.900  0.2902 -0.0110 -0.4762
 1415TIP3    H125736   2.620   5.481   0.911  0.7690  0.7254  0.4320
 1415TIP3    H225737   2.710   5.378   0.975  1.2061  1.0268  0.3126
 1416TIP3   OH225738   6.143   3.582  12.877 -0.2117  0.1773  0.2332
 1416TIP3    H125739   6.136   3.585  12.972 -0.3191 -0.1058  0.2334
 1416TIP3    H225740   6.191   3.662  12.854  0.9653 -0.3920  0.6215
 1417TIP3   OH225741   1.737   1.276   1.954  0.5853 -0.4284 -0.4019
 1417TIP3    H125742   1.831   1.278   1.936  0.8472 -0.6962  0.8263
 1417TIP3    H225743   1.700   1.342   1.895  1.8218  1.2808  0.6292
 1418TIP3   OH225744   1.340   4.327   6.662  0.0350 -0.1855 -0.0771
 1418TIP3    H125745   1.392   4.386   6.717 -2.8254  1.7797  0.7688
 1418TIP3    H225746   1.353   4.359   6.573  0.0291  0.4947  0.1622
 1419TIP3   OH225747   5.723   1.287   5.731 -0.3273 -0.0025 -0.2227
 1419TIP3    H125748   5.677   1.262   5.811 -0.7788 -0.0170 -0.4808
 1419TIP3    H225749   5.782   1.357   5.758 -0.5314  0.0447  0.1071
 1420TIP3   OH225750   3.016   2.736  17.260  0.7827  0.3127 -0.3915
 1420TIP3    H125751   2.928   2.700  17.264  0.6962  0.5196 -0.4114
 1420TIP3    H225752   3.040   2.732  17.167  0.2486  1.5430 -0.6046
 1421TIP3   OH225753   1.721   6.422   0.414 -0.1958  0.5590 -0.3073
 1421TIP3    H125754   1.649   6.386   0.466  0.9320 -1.1482  0.1330
 1421TIP3    H225755   1.719   6.516   0.433 -1.1217  0.2708  1.1839
 1422TIP3   OH225756   4.592   5.935  11.855 -0.1418 -0.1873 -0.0246
 1422TIP3    H125757   4.604   5.956  11.763 -0.3099  0.9111  0.1875
 1422TIP3    H225758   4.533   5.860  11.855  1.7557 -1.7542 -0.8609
 1423TIP3   OH225759   1.026   5.715  14.236  0.3322  1.1525  0.1935
 1423TIP3    H125760   0.989   5.639  14.282 -0.3955 -0.7852 -3.2707
 1423TIP3    H225761   1.092   5.678  14.178 -1.4316  2.7145 -3.1069
 1424TIP3   OH225762   0.807   0.207   4.586 -0.0238  0.1255 -0.1041
 1424TIP3    H125763   0.868   0.207   4.512 -1.0892 -0.5147 -1.0172
 1424TIP3    H225764   0.853   0.160   4.655  0.0020 -1.6618 -1.2643
 1425TIP3   OH225765   4.798   4.087   5.515  0.4498  0.6337  0.7752
 1425TIP3    H125766   4.882   4.132   5.524  0.4360  0.9533 -0.4762
 1425TIP3    H225767   4.732   4.158   5.516  0.5487  1.0447 -3.3394
 1426TIP3   OH225768   2.214   3.942  14.493 -0.7047  0.2691 -0.2134
 1426TIP3    H125769   2.179   4.031  14.497 -0.5180  0.3464 -0.2975
 1426TIP3    H225770   2.308   3.954  14.486 -0.6120  0.0497  0.5728
 1427TIP3   OH225771   6.036   0.962  14.021 -0.4419  0.6454 -0.2487
 1427TIP3    H125772   6.098   0.890  14.011  0.2052  1.1600 -0.0239
 1427TIP3    H225773   6.000   0.975  13.934 -0.4238  0.1695 -0.3276
 1428TIP3   OH225774   5.501   3.795  11.925  0.2999  0.2985  0.1740
 1428TIP3    H125775   5.571   3.803  11.989 -0.2232 -1.4518  1.0202
 1428TIP3    H225776   5.429   3.847  11.960  0.6775  0.9508 -0.0009
 1429TIP3   OH225777   3.972   4.805  15.203 -0.4302  0.1560  0.1614
 1429TIP3    H125778   4.012   4.720  15.219 -1.5002 -0.8435 -2.0681
 1429TIP3    H225779   3.883   4.796  15.238 -0.5639  0.3486 -0.1303
 1430TIP3   OH225780   6.050   1.777   6.170  0.3035  0.0930 -0.1513
 1430TIP3    H125781   6.055   1.855   6.224 -0.3370 -0.3493  0.5790
 1430TIP3    H225782   6.092   1.709   6.221 -0.2812 -0.3277 -0.2088
 1431TIP3   OH225783   1.818   4.604   3.359 -0.1626  0.4415 -0.0238
 1431TIP3    H125784   1.823   4.605   3.455 -1.0938  0.3548  0.0364
 1431TIP3    H225785   1.883   4.668   3.331 -0.6273  1.2669  0.7186
 1432TIP3   OH225786   4.872   6.011   4.375 -0.5605  0.4333  0.4895
 1432TIP3    H125787   4.942   6.050   4.427 -0.1644 -0.1229  0.3844
 1432TIP3    H225788   4.906   6.012   4.285  0.8587 -3.0014  0.8214
 1433TIP3   OH225789   6.464   0.211   2.989 -0.1177 -0.3047 -0.2238
 1433TIP3    H125790   6.451   0.206   2.894  1.2410 -1.5929 -0.3661
 1433TIP3    H225791   6.551   0.249   2.999  0.5977 -2.0439  0.4406
 1434TIP3   OH225792   5.270   2.606   1.474  0.1935  0.1754 -0.2061
 1434TIP3    H125793   5.215   2.683   1.457  1.5838  1.3866  0.5224
 1434TIP3    H225794   5.360   2.639   1.469  0.8069 -1.0343  1.7683
 1435TIP3   OH225795   0.080   2.817  13.645  0.6541  0.0529  0.2228
 1435TIP3    H125796   0.137   2.857  13.579 -0.8354  1.5120 -0.2508
 1435TIP3    H225797   0.016   2.768  13.593  0.4391 -0.1245  0.6542
 1436TIP3   OH225798   5.633   0.458   4.043 -0.2846 -0.1480  0.6349
 1436TIP3    H125799   5.590   0.543   4.036 -1.5343 -0.6974  1.2561
 1436TIP3    H225800   5.674   0.444   3.957 -1.5554  0.3102 -0.0718
 1437TIP3   OH225801   4.387   4.412  16.844 -0.1917 -0.0286  0.0221
 1437TIP3    H125802   4.350   4.325  16.828  1.1864 -0.4408 -1.1360
 1437TIP3    H225803   4.420   4.409  16.934 -2.0542  0.0512  0.7558
 1438TIP3   OH225804   1.240   0.159   0.681  0.4754  0.2847 -0.6581
 1438TIP3    H125805   1.203   0.071   0.666 -0.0534  0.4968 -0.6236
 1438TIP3    H225806   1.164   0.217   0.678  0.7605  0.6838 -0.1776
 1439TIP3   OH225807   6.591   4.460   3.734 -0.4520  0.4419 -0.4256
 1439TIP3    H125808   6.611   4.388   3.794 -1.4689  0.4964  0.0076
 1439TIP3    H225809   6.631   4.435   3.651  0.3697  0.0267  0.0847
 1440TIP3   OH225810   4.736   3.227  11.411  0.1562  0.2038 -0.4263
 1440TIP3    H125811   4.650   3.240  11.452  0.6364 -0.3501  0.8382
 1440TIP3    H225812   4.795   3.214  11.485  1.5434  1.6419 -1.2074
 1441TIP3   OH225813   4.209   0.880   2.728 -0.0799  0.4035 -0.2952
 1441TIP3    H125814   4.223   0.817   2.658 -1.4723  0.3524 -0.5585
 1441TIP3    H225815   4.275   0.858   2.794  2.1128  1.2466 -2.0486
 1442TIP3   OH225816   6.688   6.777   3.547  0.5795 -0.0757 -0.7893
 1442TIP3    H125817   6.732   6.728   3.478 -0.8088  0.6812 -2.2594
 1442TIP3    H225818   6.605   6.731   3.560  1.1115 -0.6567  0.9605
 1443TIP3   OH225819   4.412   6.466   6.742  0.2052 -0.1683  0.2903
 1443TIP3    H125820   4.455   6.381   6.750  0.8025 -0.0210 -1.1503
 1443TIP3    H225821   4.381   6.486   6.831 -0.6107 -2.2198  0.5166
 1444TIP3   OH225822   0.645   2.189  12.552 -0.1116  0.5714 -0.0142
 1444TIP3    H125823   0.681   2.101  12.537  0.7547  1.0836 -1.1375
 1444TIP3    H225824   0.551   2.178  12.539 -0.6516 -0.9916  3.8881
 1445TIP3   OH225825   0.099   2.096   2.378 -1.0028 -0.4091 -0.4337
 1445TIP3    H125826   0.162   2.103   2.306 -1.5778  0.8584 -0.8279
 1445TIP3    H225827   0.126   2.017   2.426  1.2778  0.4537 -0.2000
 1446TIP3   OH225828   3.288   0.652   4.293 -0.1743  0.1076  0.4728
 1446TIP3    H125829   3.219   0.688   4.349 -0.7052 -2.0502  1.3282
 1446TIP3    H225830   3.351   0.613   4.353  0.3037 -0.4754 -0.3706
 1447TIP3   OH225831   3.230   0.297   4.421  0.2839  0.0607 -0.1935
 1447TIP3    H125832   3.186   0.333   4.344  1.8972  0.3945 -0.9974
 1447TIP3    H225833   3.192   0.345   4.495 -0.5956  0.4190 -0.8621
 1448TIP3   OH225834   3.003   1.647  11.931  0.0717 -0.1004 -0.3434
 1448TIP3    H125835   2.937   1.630  11.998 -0.0454  0.5070 -0.2947
 1448TIP3    H225836   3.086   1.623  11.973 -0.0455 -0.1315 -0.1269
 1449TIP3   OH225837   0.164   6.579  15.356  0.0605 -0.5696 -0.4801
 1449TIP3    H125838   0.252   6.600  15.389 -0.3309 -0.1251  0.3068
 1449TIP3    H225839   0.105   6.632  15.410 -0.7895 -1.8121 -0.1681
 1450TIP3   OH225840   1.275   5.712  14.086 -0.1388 -1.1639 -0.0399
 1450TIP3    H125841   1.217   5.784  14.061 -0.4502 -0.8567  1.4482
 1450TIP3    H225842   1.325   5.692  14.007  0.4200  1.1227 -0.3199
 1451TIP3   OH225843   6.001   2.256  14.956  0.5305  0.4229 -0.2258
 1451TIP3    H125844   5.955   2.184  14.913  0.2167 -0.0403  0.8559
 1451TIP3    H225845   6.076   2.273  14.899  1.0042 -1.2320 -0.1507
 1452TIP3   OH225846   5.114   1.071  15.212 -0.3886 -0.6131  0.1574
 1452TIP3    H125847   5.173   1.098  15.283 -0.6940 -1.2718  0.6777
 1452TIP3    H225848   5.057   1.147  15.197  0.3284 -0.1120 -0.0813
 1453TIP3   OH225849   0.230   6.781   1.865  0.2373  0.1598  0.6882
 1453TIP3    H125850   0.162   6.726   1.905  0.2688  1.1539  2.1565
 1453TIP3    H225851   0.307   6.769   1.920  1.0078 -0.2437 -0.4382
 1454TIP3   OH225852   4.402   2.831  16.120  0.0491  0.5228  0.4248
 1454TIP3    H125853   4.430   2.784  16.198 -1.1601 -2.2478 -0.6884
 1454TIP3    H225854   4.465   2.807  16.053 -0.7181  0.3196 -0.2290
 1455TIP3   OH225855   0.278   4.274  15.010  0.4135 -0.1255  0.0324
 1455TIP3    H125856   0.288   4.365  15.039 -0.3038  0.3583 -1.1721
 1455TIP3    H225857   0.331   4.268  14.931 -1.7227  0.0491 -1.4808
 1456TIP3   OH225858   0.692   2.393  14.979  0.0305 -0.6238 -0.0686
 1456TIP3    H125859   0.693   2.340  14.899  0.2394 -1.0137  0.1928
 1456TIP3    H225860   0.716   2.481  14.949  0.2438 -0.7969 -0.4168
 1457TIP3   OH225861   4.415   0.997   5.752  0.3857 -0.1076 -0.0705
 1457TIP3    H125862   4.416   1.092   5.766  0.5715 -0.2699  1.1160
 1457TIP3    H225863   4.507   0.973   5.742  0.4082 -0.2801  0.5251
 1458TIP3   OH225864   0.865   0.749   1.821 -0.0298 -0.1474  0.2226
 1458TIP3    H125865   0.880   0.655   1.822 -0.5244 -0.2315 -0.0348
 1458TIP3    H225866   0.770   0.758   1.821  0.0156  0.3466 -0.1909
 1459TIP3   OH225867   1.373   3.227   2.206  0.0470 -0.7579 -0.1125
 1459TIP3    H125868   1.463   3.207   2.231 -0.2783 -1.2330  0.7204
 1459TIP3    H225869   1.363   3.321   2.221  0.1213 -0.8790  0.7408
 1460TIP3   OH225870   6.774   2.781   3.864 -0.4703  0.6837 -0.3060
 1460TIP3    H125871   6.717   2.764   3.939  0.0091 -0.4240 -0.1724
 1460TIP3    H225872   6.741   2.723   3.795 -0.6843  1.4338 -0.8496
 1461TIP3   OH225873   0.465   6.638  15.400  0.6703  0.1278 -0.4239
 1461TIP3    H125874   0.479   6.733  15.392 -0.6216  0.3449 -0.3990
 1461TIP3    H225875   0.521   6.612  15.473  1.1911  0.8293 -0.5527
 1462TIP3   OH225876   5.576   5.784  12.015 -0.6987 -0.5216  0.1296
 1462TIP3    H125877   5.578   5.868  12.059  1.6786 -0.0154 -0.8183
 1462TIP3    H225878   5.485   5.774  11.986 -1.7699  0.1939  2.9717
 1463TIP3   OH225879   6.077   1.599  13.652  0.0631  0.0075  0.0530
 1463TIP3    H125880   5.996   1.648  13.638  0.4340  0.2696 -1.3271
 1463TIP3    H225881   6.078   1.534  13.582  0.4525 -0.7992  0.7953
 1464TIP3   OH225882   5.176   5.349   3.761 -0.0146  0.8025 -0.0445
 1464TIP3    H125883   5.154   5.317   3.848 -2.4151  1.1685 -0.4408
 1464TIP3    H225884   5.189   5.443   3.773  0.6608  0.6939  0.0803
 1465TIP3   OH225885   2.367   1.424  13.959  0.4315 -0.3132 -0.1802
 1465TIP3    H125886   2.293   1.376  13.921 -0.1860 -0.2001  0.8240
 1465TIP3    H225887   2.339   1.515  13.959 -0.1921 -0.4508  1.7654
 1466TIP3   OH225888   1.955   1.721  12.966 -0.1818  1.4640 -0.1012
 1466TIP3    H125889   1.860   1.714  12.980 -0.0429  0.0327  0.3223
 1466TIP3    H225890   1.988   1.768  13.043 -0.3306  0.2011  0.7679
 1467TIP3   OH225891   2.726   5.163   2.527 -0.3221  0.1927 -0.6061
 1467TIP3    H125892   2.646   5.201   2.490 -0.2117 -0.0677 -1.1234
 1467TIP3    H225893   2.697   5.118   2.606 -0.3616  1.8968  0.4056
 1468TIP3   OH225894   5.230   1.438   5.726  0.0876 -0.3571  0.3510
 1468TIP3    H125895   5.239   1.428   5.820 -0.6271  0.5500  0.5283
 1468TIP3    H225896   5.302   1.385   5.689  1.0893  0.2098  1.4280
 1469TIP3   OH225897   3.948   4.738  14.117 -0.1448  0.4246  0.2597
 1469TIP3    H125898   3.971   4.653  14.155  0.9718  0.8705  0.6224
 1469TIP3    H225899   3.907   4.787  14.189 -1.0215  0.1156 -0.0167
 1470TIP3   OH225900   6.227   3.990   0.988  0.4530  0.2189 -0.7312
 1470TIP3    H125901   6.148   4.013   1.036  0.7318  0.1706 -0.2442
 1470TIP3    H225902   6.202   3.999   0.895 -0.0856  0.3067 -0.5824
 1471TIP3   OH225903   5.994   1.752   4.711 -0.1626  0.3963  0.1706
 1471TIP3    H125904   6.071   1.796   4.747  0.2368  0.2135 -0.4466
 1471TIP3    H225905   6.007   1.754   4.616 -0.2330 -0.8626  0.1166
 1472TIP3   OH225906   0.880   1.788   3.429  0.4037 -0.2937  0.6138
 1472TIP3    H125907   0.898   1.754   3.517 -0.3831  0.6194  1.1456
 1472TIP3    H225908   0.892   1.713   3.371 -1.4620 -1.5485  1.7562
 1473TIP3   OH225909   4.887   5.995  17.234  0.1828 -0.4034 -0.6877
 1473TIP3    H125910   4.917   5.906  17.217  2.0718  0.2416 -0.9644
 1473TIP3    H225911   4.932   6.048  17.168 -1.4308  0.6888 -0.9551
 1474TIP3   OH225912   3.582   3.700   0.091  0.4367 -0.0385  0.0489
 1474TIP3    H125913   3.540   3.718   0.006 -0.6743 -0.8637  0.3950
 1474TIP3    H225914   3.510   3.670   0.147  0.9073  1.7920  1.7052
 1475TIP3   OH225915   4.663   4.148   0.247  0.2360 -0.4277  1.0546
 1475TIP3    H125916   4.647   4.237   0.216  0.9077 -1.1792 -1.6516
 1475TIP3    H225917   4.749   4.126   0.213  0.1090 -2.1060  1.7473
 1476TIP3   OH225918   3.110   2.624  15.287 -0.0103 -0.1898 -0.2522
 1476TIP3    H125919   3.169   2.663  15.223  1.0964 -1.4160 -0.0288
 1476TIP3    H225920   3.023   2.629  15.246  0.1762  1.7841 -0.5166
 1477TIP3   OH225921   3.709   2.817  12.181  0.6663  0.0808 -0.7533
 1477TIP3    H125922   3.727   2.910  12.188 -0.5800  0.4442 -2.0231
 1477TIP3    H225923   3.789   2.775  12.213  2.2871  1.5756 -2.5730
 1478TIP3   OH225924   1.732   1.267   3.887 -0.5219  0.8399  0.0749
 1478TIP3    H125925   1.672   1.205   3.928  1.2244  0.1564  1.7149
 1478TIP3    H225926   1.733   1.342   3.946 -1.3151  1.7528 -1.0283
 1479TIP3   OH225927   5.763   0.003   5.434  0.6589 -0.6384  0.2575
 1479TIP3    H125928   5.688  -0.001   5.494 -0.2978  0.2231 -0.8270
 1479TIP3    H225929   5.732  -0.043   5.355  0.7781  0.8428 -0.6856
 1480TIP3   OH225930   5.185   4.676  13.719 -0.9779 -0.1216  0.1462
 1480TIP3    H125931   5.115   4.680  13.785 -1.3504  1.4211 -0.2899
 1480TIP3    H225932   5.185   4.586  13.689 -4.2363  0.2325 -1.3488
 1481TIP3   OH225933   6.511   6.781   3.145 -0.1136  0.1553 -0.1026
 1481TIP3    H125934   6.470   6.711   3.093 -0.1804 -0.1973  0.4205
 1481TIP3    H225935   6.508   6.858   3.088 -0.9543 -0.0187 -0.2999
 1482TIP3   OH225936   2.289   3.511  14.286  0.2323  0.1939  0.2188
 1482TIP3    H125937   2.299   3.477  14.375  3.5853  0.2856  0.0177
 1482TIP3    H225938   2.323   3.600  14.290  1.1282 -0.0484 -1.2606
 1483TIP3   OH225939   4.345   3.153  11.956 -0.3993  0.1741  0.0798
 1483TIP3    H125940   4.371   3.211  12.028  0.9473  0.6390 -0.7435
 1483TIP3    H225941   4.249   3.159  11.953 -0.4571  0.3643  1.6341
 1484TIP3   OH225942   0.579   6.776   2.787 -0.4267 -0.1818  0.2781
 1484TIP3    H125943   0.527   6.737   2.857 -1.0452  2.1543  1.2175
 1484TIP3    H225944   0.630   6.845   2.829  1.7449 -0.8900 -1.0395
 1485TIP3   OH225945   2.468   3.441   5.609 -0.1980  0.4206 -0.3185
 1485TIP3    H125946   2.493   3.383   5.681 -0.9581 -0.4022 -0.6977
 1485TIP3    H225947   2.398   3.394   5.564  0.2406  0.9356 -1.5758
 1486TIP3   OH225948   4.605   6.556   3.662  0.4939 -0.4576  0.3155
 1486TIP3    H125949   4.678   6.506   3.701  1.8163 -0.1070 -1.5624
 1486TIP3    H225950   4.530   6.498   3.670  1.3849 -1.6149  0.6634
 1487TIP3   OH225951   1.994   6.731   3.663 -0.2362 -0.0803 -0.3167
 1487TIP3    H125952   1.954   6.800   3.610 -2.7620 -1.1078  0.0857
 1487TIP3    H225953   1.947   6.651   3.637  1.6470 -1.4133  0.2057
 1488TIP3   OH225954   2.606   5.902  14.736  0.0274 -0.0828 -0.1611
 1488TIP3    H125955   2.686   5.909  14.789  0.6094  2.3824 -1.2249
 1488TIP3    H225956   2.636   5.910  14.646 -1.4015  1.4952 -0.5679
 1489TIP3   OH225957   0.872   3.070  13.746  0.5896  0.6156  0.1051
 1489TIP3    H125958   0.878   2.986  13.701  1.2999  0.5778  0.2604
 1489TIP3    H225959   0.783   3.101  13.727 -0.3375 -0.9847  1.5259
 1490TIP3   OH225960   3.928   1.648   5.569 -0.4732  0.3029  0.1963
 1490TIP3    H125961   3.897   1.655   5.479  0.4112 -0.3083 -0.1783
 1490TIP3    H225962   3.933   1.738   5.601  0.3976  0.6277 -0.8014
 1491TIP3   OH225963   1.713   0.337   0.011  0.2377  0.1586 -0.6202
 1491TIP3    H125964   1.747   0.294   0.089 -1.9533 -0.1920  0.2226
 1491TIP3    H225965   1.643   0.280  -0.020 -1.3793  2.0428 -0.6723
 1492TIP3   OH225966   3.353   5.824   4.281 -0.1606 -0.0868 -0.3817
 1492TIP3    H125967   3.403   5.829   4.200  0.9208  1.1594  0.3316
 1492TIP3    H225968   3.351   5.913   4.314 -1.3289 -0.4255  0.5473
 1493TIP3   OH225969   5.036   2.242   6.111 -0.6633 -0.4082 -0.0304
 1493TIP3    H125970   5.072   2.172   6.166  1.7996 -1.1537 -2.3810
 1493TIP3    H225971   5.008   2.309   6.173  0.6437 -1.7633  2.1634
 1494TIP3   OH225972   4.967   3.038  13.597 -0.7055  0.2343 -0.4166
 1494TIP3    H125973   5.035   3.037  13.664 -2.5016  0.1598  1.5335
 1494TIP3    H225974   4.975   2.953  13.554  0.3039  0.1558 -0.1101
 1495TIP3   OH225975   3.977   5.960  17.158  0.8399 -0.0518 -0.2313
 1495TIP3    H125976   3.930   5.943  17.240  1.4836 -1.1057 -0.0610
 1495TIP3    H225977   3.945   5.894  17.098  0.6625  0.4717 -0.7230
 1496TIP3   OH225978   4.414   3.475   5.669  0.6420 -0.2511 -0.1230
 1496TIP3    H125979   4.473   3.482   5.594 -0.6975  2.3212 -1.0554
 1496TIP3    H225980   4.331   3.447   5.632  0.0299  0.8089  0.4003
 1497TIP3   OH225981   6.455   5.295   5.505 -0.1885  0.5398 -0.2270
 1497TIP3    H125982   6.368   5.264   5.529 -0.4133  2.3389  1.5128
 1497TIP3    H225983   6.501   5.306   5.588  1.4070  0.4868 -1.0583
 1498TIP3   OH225984   5.644   4.647  14.930  0.0563  0.1829 -0.3862
 1498TIP3    H125985   5.666   4.699  15.008 -2.1544  0.0565  0.3837
 1498TIP3    H225986   5.662   4.557  14.956 -0.0993  0.1934 -0.2403
 1499TIP3   OH225987   1.196   6.616  12.939 -0.2773  0.7942 -0.0267
 1499TIP3    H125988   1.278   6.568  12.952  0.4666  1.7425 -1.0167
 1499TIP3    H225989   1.144   6.560  12.881 -0.3518  0.1672  0.6419
 1500TIP3   OH225990   5.050   6.084   0.817  0.4517 -0.0821 -0.1125
 1500TIP3    H125991   5.017   6.158   0.867 -0.1105 -0.3002 -0.1512
 1500TIP3    H225992   5.004   6.090   0.733 -1.0068 -1.5048  0.5212
 1501TIP3   OH225993   6.392   4.653  15.611 -0.2196 -0.8561 -0.3343
 1501TIP3    H125994   6.368   4.676  15.700 -0.8986  0.7599 -0.8949
 1501TIP3    H225995   6.355   4.566  15.597 -1.5419 -0.4359  0.4212
 1502TIP3   OH225996   0.303   2.271  11.609  0.4875  0.6308  0.2450
 1502TIP3    H125997   0.311   2.261  11.704  0.1355  0.0313  0.2172
 1502TIP3    H225998   0.219   2.316  11.597  0.5311  0.7044  0.2167
 1503TIP3   OH225999   2.171   3.177  14.551 -0.2425 -0.3772 -0.8130
 1503TIP3    H126000   2.160   3.082  14.541 -1.2933 -0.1245 -2.4983
 1503TIP3    H226001   2.094   3.205  14.600  0.3427 -0.4430  0.1669
 1504TIP3   OH226002   5.128   3.730   0.442  0.2905  0.3364 -0.1918
 1504TIP3    H126003   5.219   3.758   0.442  0.5087 -0.2593  1.2665
 1504TIP3    H226004   5.106   3.721   0.534 -1.6098  1.5398 -0.4767
 1505TIP3   OH226005   2.731   6.046   0.573 -0.5638 -0.2641  0.9265
 1505TIP3    H126006   2.779   6.056   0.491 -2.8341 -1.1740 -0.5953
 1505TIP3    H226007   2.799   6.028   0.638  1.2280 -0.5177 -0.9058
 1506TIP3   OH226008   3.607   4.146   3.378 -0.3692 -0.7223 -0.6049
 1506TIP3    H126009   3.537   4.125   3.317  0.3321 -0.2227 -1.6144
 1506TIP3    H226010   3.604   4.076   3.443 -2.7866  0.1154  0.2824
 1507TIP3   OH226011   1.842   1.967   4.069 -0.0597  0.5841 -0.1031
 1507TIP3    H126012   1.874   2.033   4.008 -0.5162  1.6239  0.7534
 1507TIP3    H226013   1.747   1.974   4.065 -0.4159 -2.8972 -3.0794
 1508TIP3   OH226014   0.784   3.640  13.746 -0.1747 -0.2189 -0.3239
 1508TIP3    H126015   0.722   3.578  13.785  0.5685 -0.9175 -0.2488
 1508TIP3    H226016   0.764   3.723  13.790 -1.0669 -0.4214 -0.3099
 1509TIP3   OH226017   4.837   6.207   4.968 -0.4323  0.6041 -0.1147
 1509TIP3    H126018   4.923   6.170   4.951  0.4864  2.3405  0.5182
 1509TIP3    H226019   4.837   6.225   5.062 -3.2068 -3.4512  0.9366
 1510TIP3   OH226020   6.418   1.804  15.529 -0.0105 -0.1325  0.3790
 1510TIP3    H126021   6.365   1.746  15.474  2.2792 -0.7301 -1.3743
 1510TIP3    H226022   6.447   1.873  15.469  1.7791 -0.2507  1.0538
 1511TIP3   OH226023   2.636   0.021  14.919  0.1628 -0.4480 -0.1382
 1511TIP3    H126024   2.625   0.095  14.859  0.1936 -0.9000 -0.7081
 1511TIP3    H226025   2.585  -0.049  14.880 -1.0776 -0.3212  1.1517
 1512TIP3   OH226026   5.067   5.087   6.503 -0.5747  0.7125  0.0449
 1512TIP3    H126027   5.124   5.023   6.458 -0.6724 -0.2410  1.2320
 1512TIP3    H226028   5.079   5.168   6.453  1.0737  0.2873 -0.3358
 1513TIP3   OH226029   5.357   4.660  14.113 -0.1290  0.4345 -0.2321
 1513TIP3    H126030   5.447   4.678  14.140  0.1201 -1.4196  0.3411
 1513TIP3    H226031   5.303   4.705  14.178  0.4279 -0.2207  0.7076
 1514TIP3   OH226032   5.737   4.994  11.797  0.0058  0.4447 -0.2504
 1514TIP3    H126033   5.711   5.083  11.775 -2.5251 -0.5186 -1.7035
 1514TIP3    H226034   5.760   4.955  11.712  1.1537 -0.2777  0.3735
 1515TIP3   OH226035   4.793   6.760   4.051 -0.3577 -0.4356 -0.3163
 1515TIP3    H126036   4.811   6.708   3.972  1.4013  0.6273 -0.6686
 1515TIP3    H226037   4.771   6.695   4.118 -2.3879 -1.3378 -1.7490
 1516TIP3   OH226038   4.520   0.428  11.494 -0.3539  0.0603 -0.2049
 1516TIP3    H126039   4.564   0.396  11.573  0.0320  0.1167 -0.3947
 1516TIP3    H226040   4.473   0.352  11.460  2.0195 -0.8625 -1.6722
 1517TIP3   OH226041   2.038   4.000  12.092  0.2039 -0.3279 -0.2667
 1517TIP3    H126042   2.123   3.961  12.109 -0.2274 -1.2254 -0.1138
 1517TIP3    H226043   2.043   4.032  12.002  0.4253 -1.1067 -0.5329
 1518TIP3   OH226044   0.147   3.467  11.733  0.2443 -0.3639 -0.0286
 1518TIP3    H126045   0.079   3.534  11.742  0.5174 -0.0022 -0.6305
 1518TIP3    H226046   0.217   3.510  11.683  0.4062 -1.1091 -0.4538
 1519TIP3   OH226047   6.549   5.782  11.175  0.5155  0.2069 -0.2957
 1519TIP3    H126048   6.614   5.713  11.161  0.5360  0.2117 -0.2207
 1519TIP3    H226049   6.489   5.746  11.241 -0.9149 -0.7501 -2.0117
 1520TIP3   OH226050   5.293   1.331   4.815  0.0868 -0.0753 -0.6399
 1520TIP3    H126051   5.266   1.286   4.895 -0.0828 -0.1302 -0.7272
 1520TIP3    H226052   5.316   1.260   4.755  2.1518 -0.0292  0.0050
 1521TIP3   OH226053   1.260   1.912  16.975 -0.0526 -0.3017 -0.4509
 1521TIP3    H126054   1.195   1.976  16.946  2.2647  1.5855 -1.8123
 1521TIP3    H226055   1.296   1.950  17.056  0.7981 -0.2568 -0.8472
 1522TIP3   OH226056   2.012   3.826  13.228  1.0242 -0.6701 -0.0148
 1522TIP3    H126057   1.995   3.732  13.238 -1.8640 -0.4491 -1.8582
 1522TIP3    H226058   2.039   3.854  13.316 -1.4481 -2.6203  1.5112
 1523TIP3   OH226059   5.791   4.026   5.434  0.8141 -0.0635  0.1959
 1523TIP3    H126060   5.751   4.053   5.351 -0.1097  0.5378  0.8190
 1523TIP3    H226061   5.768   4.096   5.495  1.1044 -0.7209  1.0706
 1524TIP3   OH226062   0.316   1.140   5.315 -0.1113  0.3984 -0.3262
 1524TIP3    H126063   0.355   1.227   5.312 -0.5502  0.6017 -0.0791
 1524TIP3    H226064   0.332   1.104   5.227  2.4493 -0.3162  0.3496
 1525TIP3   OH226065   0.183   4.327   6.731  0.1836 -0.2152  0.3874
 1525TIP3    H126066   0.130   4.318   6.811  0.7943  0.8052  0.9337
 1525TIP3    H226067   0.219   4.240   6.717  0.6101 -0.2646  1.6315
 1526TIP3   OH226068   4.219   3.865   6.717 -0.1006  0.4654  0.1786
 1526TIP3    H126069   4.170   3.805   6.773  2.4738 -1.0845  0.9625
 1526TIP3    H226070   4.265   3.923   6.778  0.0211  1.0491 -0.4607
 1527TIP3   OH226071   5.252   3.835   5.812 -0.0464 -0.5155  0.1259
 1527TIP3    H126072   5.265   3.785   5.731  3.8291  0.5726 -0.1189
 1527TIP3    H226073   5.214   3.918   5.784  1.3192 -0.1241 -0.6593
 1528TIP3   OH226074   0.634   5.570   2.605  0.4225 -0.3245 -0.5121
 1528TIP3    H126075   0.542   5.588   2.586  0.3171 -0.1353  0.1334
 1528TIP3    H226076   0.643   5.592   2.698  1.4788  1.0499 -0.9260
 1529TIP3   OH226077   2.709   2.508   1.821  0.0578  0.1558  0.1253
 1529TIP3    H126078   2.668   2.567   1.757  0.1959 -0.3789 -0.4662
 1529TIP3    H226079   2.783   2.558   1.855  1.5239 -0.4497 -2.0023
 1530TIP3   OH226080   5.772   0.647  15.066 -0.4143  0.4811  0.6012
 1530TIP3    H126081   5.698   0.589  15.083  0.1580 -0.4041  0.1676
 1530TIP3    H226082   5.738   0.735  15.080 -1.4930  0.0775  0.5830
 1531TIP3   OH226083   4.314   0.937   6.122  0.4737  0.0898 -0.2923
 1531TIP3    H126084   4.252   0.914   6.053  0.6286  1.1516 -0.7927
 1531TIP3    H226085   4.314   1.032   6.125 -0.2535  0.0671  1.8409
 1532TIP3   OH226086   6.602   3.699   0.936  0.0578 -0.1896  0.0489
 1532TIP3    H126087   6.590   3.661   0.849  0.3848  0.7113 -0.3958
 1532TIP3    H226088   6.569   3.789   0.928  0.4522  0.0226  0.7499
 1533TIP3   OH226089   2.908   4.061  16.991  0.0620  0.1757 -0.7691
 1533TIP3    H126090   2.912   4.147  17.033  1.3986 -0.1003 -0.2775
 1533TIP3    H226091   2.824   4.024  17.019  0.2674  0.6007  0.4650
 1534TIP3   OH226092   6.101   5.334  13.829 -0.0698 -0.1163  0.0320
 1534TIP3    H126093   6.159   5.259  13.839 -1.4953 -1.4097 -0.9805
 1534TIP3    H226094   6.160   5.410  13.830  1.3159 -1.1393  2.0236
 1535TIP3   OH226095   5.116   0.555  16.405  0.9618 -0.6293  0.7719
 1535TIP3    H126096   5.074   0.640  16.390  2.2558 -0.1549 -0.3872
 1535TIP3    H226097   5.195   0.575  16.456  1.4834 -1.0634  0.1637
 1536TIP3   OH226098   4.746   5.715   5.303  0.1514  0.0920 -0.3567
 1536TIP3    H126099   4.741   5.667   5.220  0.4361  0.1141 -0.3892
 1536TIP3    H226100   4.676   5.678   5.356 -0.9433  1.0403 -1.0982
 1537TIP3   OH226101   0.588   4.679  16.200 -0.3606  0.2467  0.3131
 1537TIP3    H126102   0.581   4.641  16.287  0.4489  1.3434  0.8829
 1537TIP3    H226103   0.602   4.605  16.142  0.7284 -0.3745  1.3307
 1538TIP3   OH226104   1.757   6.521   0.058 -0.5353  0.0434  0.0524
 1538TIP3    H126105   1.813   6.444   0.063 -0.4287  0.0788 -0.5591
 1538TIP3    H226106   1.787   6.577   0.130 -1.1889 -0.8481  1.0550
 1539TIP3   OH226107   5.145   0.388  14.070 -0.4349  0.2045 -0.0016
 1539TIP3    H126108   5.200   0.350  14.138  0.7711 -0.0482 -1.0629
 1539TIP3    H226109   5.206   0.436  14.014 -1.3513  0.2561 -1.0018
 1540TIP3   OH226110   4.634   3.504  11.315  0.0910 -0.3856  0.3518
 1540TIP3    H126111   4.707   3.549  11.356  1.3682  1.0725 -3.1566
 1540TIP3    H226112   4.671   3.421  11.284 -0.1625 -0.3594 -0.0298
 1541TIP3   OH226113   5.648   6.783   0.895  0.0131 -0.0071  0.4513
 1541TIP3    H126114   5.640   6.767   0.801  3.8356  2.6066 -0.5628
 1541TIP3    H226115   5.585   6.854   0.912  0.6023  0.7900 -0.5980
 1542TIP3   OH226116   1.165   6.495  16.303  0.3218  0.1699  0.2460
 1542TIP3    H126117   1.182   6.415  16.253  2.9714  0.9851 -0.3217
 1542TIP3    H226118   1.155   6.465  16.393  2.9047 -0.7625  0.3044
 1543TIP3   OH226119   1.755   5.870  16.028 -0.3231 -0.2492  0.0881
 1543TIP3    H126120   1.777   5.831  16.113 -1.0153  0.0551  0.4143
 1543TIP3    H226121   1.723   5.796  15.976  0.9193 -0.5925 -0.2031
 1544TIP3   OH226122   4.230   1.185  16.703 -0.4851  0.5678 -0.8029
 1544TIP3    H126123   4.160   1.158  16.643 -0.5621  1.2451 -1.0269
 1544TIP3    H226124   4.212   1.138  16.784 -1.1170  0.6246 -0.9070
 1545TIP3   OH226125   0.787   3.785  11.024 -0.4425  0.1078  0.1273
 1545TIP3    H126126   0.857   3.744  10.973 -0.7008  0.5129 -0.5722
 1545TIP3    H226127   0.707   3.762  10.977 -0.8468 -0.8204  1.2291
 1546TIP3   OH226128   4.538   1.793  16.035 -0.5595  0.6118  0.0302
 1546TIP3    H126129   4.445   1.786  16.011 -0.3748 -0.5289 -0.4408
 1546TIP3    H226130   4.537   1.806  16.130 -1.2155  1.5307 -0.0899
 1547TIP3   OH226131   0.088   1.389   2.010 -0.1811  0.1869 -0.0097
 1547TIP3    H126132   0.018   1.325   2.009  0.5203 -0.6829 -2.9746
 1547TIP3    H226133   0.044   1.474   2.006 -1.0960 -0.3178 -1.0393
 1548TIP3   OH226134   0.614   6.600  15.927 -0.1931  0.1898  0.5136
 1548TIP3    H126135   0.656   6.581  16.011 -0.0996  0.8374  0.6216
 1548TIP3    H226136   0.539   6.541  15.924 -0.3766  0.3734  1.1964
 1549TIP3   OH226137   3.449   6.332   3.291  0.4303  0.6967  0.1551
 1549TIP3    H126138   3.461   6.237   3.294 -0.3187  0.4761 -2.0133
 1549TIP3    H226139   3.355   6.344   3.301  0.2804  1.0362 -1.3466
 1550TIP3   OH226140   5.507   3.258   1.624 -0.3803  0.0244 -0.3188
 1550TIP3    H126141   5.420   3.261   1.662 -0.3674 -0.9744 -0.1816
 1550TIP3    H226142   5.564   3.227   1.694  0.1379  0.8726 -0.3406
 1551TIP3   OH226143   2.616   1.976  16.272 -0.3916  0.2336 -0.5466
 1551TIP3    H126144   2.560   2.027  16.213  0.1442  0.9499 -0.4534
 1551TIP3    H226145   2.555   1.918  16.318 -0.6323 -1.7283 -3.1062
 1552TIP3   OH226146   3.083   0.243   2.850  0.2265 -0.0912 -0.4891
 1552TIP3    H126147   3.021   0.186   2.894  0.4618 -0.0121 -0.0421
 1552TIP3    H226148   3.164   0.191   2.844 -0.0487 -0.4112 -1.6054
 1553TIP3   OH226149   5.528   3.400   4.427  0.4330  0.3871 -0.0069
 1553TIP3    H126150   5.594   3.458   4.465  1.0097  0.5752 -1.2384
 1553TIP3    H226151   5.574   3.352   4.358  0.0088 -1.7171  1.0933
 1554TIP3   OH226152   5.641   2.850  15.236  0.1659 -0.8123  0.0356
 1554TIP3    H126153   5.645   2.945  15.244 -2.4837 -0.5542 -0.7286
 1554TIP3    H226154   5.620   2.819  15.324 -2.6545 -0.2853 -0.3591
 1555TIP3   OH226155   1.399   4.645   3.940 -0.5536  0.1630  0.1463
 1555TIP3    H126156   1.460   4.658   4.012 -1.4955 -1.4721  1.3215
 1555TIP3    H226157   1.316   4.625   3.983 -1.0682 -1.1778 -1.3852
 1556TIP3   OH226158   4.344   3.584  14.139  0.3370  0.5207 -0.0933
 1556TIP3    H126159   4.333   3.534  14.220  1.0829 -0.9001 -0.8204
 1556TIP3    H226160   4.258   3.581  14.096  0.3471 -0.0757 -0.0791
 1557TIP3   OH226161   5.111   5.500   0.986 -0.0089  0.4760  0.1475
 1557TIP3    H126162   5.028   5.539   0.957  0.4575  1.9849  0.7296
 1557TIP3    H226163   5.117   5.523   1.078  1.4030  1.0463 -0.0618
 1558TIP3   OH226164   0.936   4.099   2.328 -0.0207  0.0039  0.4377
 1558TIP3    H126165   0.841   4.096   2.341 -0.1773  0.7632 -0.4425
 1558TIP3    H226166   0.972   4.076   2.414 -0.9779 -1.6487  0.4362
 1559TIP3   OH226167   2.584   0.992   4.542 -0.9693  0.4652 -0.1651
 1559TIP3    H126168   2.643   1.048   4.592 -2.4857  1.5820  0.4453
 1559TIP3    H226169   2.626   0.984   4.456  2.0121 -1.9988  1.3023
 1560TIP3   OH226170   5.361   3.247  16.918  0.4882  0.0995  0.2458
 1560TIP3    H126171   5.333   3.185  16.851 -1.4212 -0.0710  1.1066
 1560TIP3    H226172   5.427   3.200  16.969  1.6948  0.1076 -1.2345
 1561TIP3   OH226173   1.097   1.660   6.449 -0.2525  0.0532  0.1094
 1561TIP3    H126174   1.056   1.737   6.489 -0.0128  0.5383 -0.5725
 1561TIP3    H226175   1.130   1.691   6.365  0.8353 -0.5210  0.3109
 1562TIP3   OH226176   5.298   4.524   5.060 -0.7064 -0.2130 -0.4337
 1562TIP3    H126177   5.297   4.486   4.972  0.1531 -1.9695  0.2575
 1562TIP3    H226178   5.245   4.464   5.113  0.2962 -0.2255  0.6062
 1563TIP3   OH226179   2.134   5.100  14.325 -0.3266 -0.1105  0.4857
 1563TIP3    H126180   2.048   5.133  14.348 -0.2549 -0.5272  1.3854
 1563TIP3    H226181   2.179   5.174  14.285 -0.7081  0.4274  1.0486
 1564TIP3   OH226182   4.429   0.023  12.924 -0.3592 -0.6480 -0.2203
 1564TIP3    H126183   4.424   0.011  12.829 -2.1692  1.1188 -0.4196
 1564TIP3    H226184   4.433  -0.065  12.959  0.4650 -1.3368 -1.9400
 1565TIP3   OH226185   1.976   0.930  11.788  0.4698  0.4888 -0.7782
 1565TIP3    H126186   1.989   0.954  11.879 -2.0303  1.2683 -0.5644
 1565TIP3    H226187   2.065   0.925  11.752  1.5434 -0.1852  1.7283
 1566TIP3   OH226188   3.183   5.610   5.838  0.4323 -0.1512  0.0524
 1566TIP3    H126189   3.244   5.681   5.820  1.1472 -0.5639  0.8030
 1566TIP3    H226190   3.125   5.644   5.907  0.7856 -0.2988  0.4243
 1567TIP3   OH226191   6.266   6.292   3.443  0.3716  0.3917  0.8641
 1567TIP3    H126192   6.358   6.319   3.442  0.8215 -1.0726  1.1275
 1567TIP3    H226193   6.240   6.289   3.351  0.7299  0.3203  0.7671
 1568TIP3   OH226194   0.596   5.524  12.231 -0.2025 -0.0897  0.1852
 1568TIP3    H126195   0.611   5.429  12.232  0.6250  0.0221  1.7508
 1568TIP3    H226196   0.681   5.561  12.256 -0.4386  1.0989 -0.6847
 1569TIP3   OH226197   3.741   4.763  14.394  0.5087 -0.5564  0.2133
 1569TIP3    H126198   3.769   4.847  14.359 -0.1064 -0.3841  0.1283
 1569TIP3    H226199   3.723   4.781  14.487  0.3935 -0.5963  0.1991
 1570TIP3   OH226200   2.919   0.536  15.609  0.0707  0.7076 -0.0435
 1570TIP3    H126201   2.863   0.460  15.590  0.5136  0.5387 -0.7196
 1570TIP3    H226202   2.857   0.607  15.629 -0.3852  0.4888 -0.6504
 1571TIP3   OH226203   2.536   3.729   4.740 -0.0234 -0.1861  0.4064
 1571TIP3    H126204   2.495   3.642   4.741 -0.7415  0.0080 -2.4351
 1571TIP3    H226205   2.591   3.728   4.661  1.9453  1.1398  1.6634
 1572TIP3   OH226206   2.840   3.208   3.960  0.4935 -0.2837 -0.2288
 1572TIP3    H126207   2.920   3.156   3.952 -0.0851 -1.3914  0.7363
 1572TIP3    H226208   2.846   3.248   4.047 -0.3097 -0.9749  0.1650
 1573TIP3   OH226209   4.696   2.111   3.836 -0.1183 -0.2412  0.2971
 1573TIP3    H126210   4.750   2.101   3.915 -0.5697  3.7708  1.3256
 1573TIP3    H226211   4.747   2.168   3.779 -1.6285  0.5267 -0.3531
 1574TIP3   OH226212   0.563   0.574   4.629 -0.4470  0.4605 -0.0501
 1574TIP3    H126213   0.488   0.616   4.586 -0.4460  1.4864  0.8854
 1574TIP3    H226214   0.628   0.644   4.635  0.1454 -0.1082  0.1934
 1575TIP3   OH226215   2.677   6.301   3.612 -0.4158  0.3733  0.3884
 1575TIP3    H126216   2.758   6.287   3.661  0.0660 -0.5968 -0.6390
 1575TIP3    H226217   2.657   6.215   3.575 -0.9522  0.9986 -0.8110
 1576TIP3   OH226218   2.945   3.654   0.513  0.2469  0.1943  0.0023
 1576TIP3    H126219   2.946   3.703   0.431  1.1364  3.8186  1.9540
 1576TIP3    H226220   3.037   3.637   0.532  0.5771  3.3321  2.1416
 1577TIP3   OH226221   2.248   3.851   1.226 -0.3655  0.1674  0.2955
 1577TIP3    H126222   2.156   3.834   1.204 -0.8727  1.1338  1.5550
 1577TIP3    H226223   2.297   3.808   1.156 -1.8036  0.8249 -1.1878
 1578TIP3   OH226224   1.527   6.284   6.297  0.2638 -0.9689 -0.3332
 1578TIP3    H126225   1.483   6.294   6.381  0.0977 -0.3442 -0.4892
 1578TIP3    H226226   1.595   6.219   6.313  0.6200 -0.4228  0.4369
 1579TIP3   OH226227   5.565   5.651  12.316  0.5887 -0.4647 -0.6244
 1579TIP3    H126228   5.471   5.636  12.301  0.8928 -0.8480 -2.3216
 1579TIP3    H226229   5.587   5.591  12.387 -0.4007 -0.5318 -0.3507
 1580TIP3   OH226230   2.998   0.917   0.077  0.1018  0.0254  0.3580
 1580TIP3    H126231   2.982   0.823   0.087 -0.1544  0.0197 -0.0932
 1580TIP3    H226232   2.932   0.946   0.014  0.2063  0.5003  0.4664
 1581TIP3   OH226233   6.068   3.304  15.380  0.2292 -0.4625  0.5333
 1581TIP3    H126234   6.154   3.337  15.355  0.5310 -0.2991  1.7151
 1581TIP3    H226235   6.048   3.236  15.315  0.0442  1.2828 -1.3336
 1582TIP3   OH226236   1.295   4.163   2.590 -0.1816  0.2772 -0.6042
 1582TIP3    H126237   1.269   4.227   2.657  0.3380  1.4425 -1.4884
 1582TIP3    H226238   1.277   4.207   2.507 -2.4714 -1.8087 -1.3118
 1583TIP3   OH226239   2.022   5.550   1.075 -0.4572 -0.1748 -0.5518
 1583TIP3    H126240   1.938   5.504   1.066 -0.5774 -0.5714  1.9745
 1583TIP3    H226241   2.007   5.613   1.146  1.5877 -0.7900  0.4829
 1584TIP3   OH226242   0.330   4.273   6.484  0.0995  0.1475  0.1252
 1584TIP3    H126243   0.289   4.206   6.430 -0.6279 -0.3611  1.2786
 1584TIP3    H226244   0.410   4.297   6.437 -0.3930 -0.4550 -1.0337
 1585TIP3   OH226245   3.220   0.155  13.654 -0.0080 -0.3320 -0.1925
 1585TIP3    H126246   3.140   0.104  13.667  0.4231 -0.9102  0.2622
 1585TIP3    H226247   3.209   0.195  13.568  0.3673 -2.5829 -1.3761
 1586TIP3   OH226248   0.889   2.076  16.520  0.2126  0.5318  0.1506
 1586TIP3    H126249   0.912   2.062  16.428  0.5420  0.0350  0.3013
 1586TIP3    H226250   0.832   2.153  16.520  1.1358  1.2330 -0.3411
 1587TIP3   OH226251   0.551   0.740   4.383  0.2646 -0.2655  0.1408
 1587TIP3    H126252   0.583   0.693   4.306  0.9927 -0.3600  0.4887
 1587TIP3    H226253   0.628   0.783   4.418 -0.1953  0.3326  0.4346
 1588TIP3   OH226254   0.366   0.579   5.766  0.6906 -0.3089  0.1686
 1588TIP3    H126255   0.406   0.643   5.824  0.4162 -0.2888  0.3339
 1588TIP3    H226256   0.432   0.563   5.698  0.5146  0.6416 -0.2425
 1589TIP3   OH226257   3.785   4.249  12.800 -0.1551 -0.2264  0.3905
 1589TIP3    H126258   3.765   4.189  12.872 -0.8617  0.2758  0.6250
 1589TIP3    H226259   3.826   4.324  12.843 -0.7865  0.1756  0.3145
 1590TIP3   OH226260   6.046   3.588   5.957  0.4330 -0.6644  0.1374
 1590TIP3    H126261   5.997   3.664   5.925 -0.0745 -0.9894  0.1325
 1590TIP3    H226262   6.081   3.616   6.041 -1.2015 -0.9925  0.9607
 1591TIP3   OH226263   3.883   1.558  17.077 -0.2055  0.1928 -0.1473
 1591TIP3    H126264   3.812   1.531  17.135  0.4389  0.4145  0.7504
 1591TIP3    H226265   3.838   1.596  17.001 -1.0387  0.2845  0.3782
 1592TIP3   OH226266   4.092   4.264   2.264  0.1985 -0.3081 -0.1052
 1592TIP3    H126267   4.161   4.329   2.254  0.8430 -0.9155  0.2612
 1592TIP3    H226268   4.094   4.215   2.182 -0.5590  0.3765 -0.5444
 1593TIP3   OH226269   6.148   3.154   5.668  0.5231  0.0843  0.7009
 1593TIP3    H126270   6.189   3.188   5.747  1.4032 -0.0798  0.3294
 1593TIP3    H226271   6.055   3.175   5.678  0.6972  0.4943  1.5478
 1594TIP3   OH226272   1.354   5.172  13.792  0.2059  0.3859  0.1405
 1594TIP3    H126273   1.418   5.206  13.854  0.6891  0.4067 -0.3697
 1594TIP3    H226274   1.375   5.215  13.710 -0.4848  0.4188 -0.0259
 1595TIP3   OH226275   4.591   4.688  12.840  0.4263  0.3403  0.1772
 1595TIP3    H126276   4.550   4.726  12.918 -1.3621 -0.4378 -0.3231
 1595TIP3    H226277   4.633   4.761  12.796 -0.9934  1.3216  0.4050
 1596TIP3   OH226278   6.155   6.229   4.255 -0.4603 -0.2417  0.4568
 1596TIP3    H126279   6.217   6.233   4.182  2.1140  0.0466  2.5110
 1596TIP3    H226280   6.181   6.302   4.312  0.4415 -2.8159  3.6614
 1597TIP3   OH226281   3.498   6.174   6.515 -0.0375 -0.2016  0.0735
 1597TIP3    H126282   3.484   6.100   6.575  0.0876  0.3441  0.7890
 1597TIP3    H226283   3.421   6.229   6.527 -0.9999 -1.0728 -1.7666
 1598TIP3   OH226284   4.907   1.677   4.726 -0.0488 -0.2577  0.1049
 1598TIP3    H126285   4.994   1.648   4.752 -0.1639 -0.1888  0.5717
 1598TIP3    H226286   4.852   1.661   4.803  0.0535  2.0589  0.7232
 1599TIP3   OH226287   4.563   0.659  16.258 -0.1632 -0.0523 -0.0596
 1599TIP3    H126288   4.474   0.624  16.259 -0.0588 -0.3057  0.4765
 1599TIP3    H226289   4.599   0.632  16.174  0.0339 -1.5432  0.4839
 1600TIP3   OH226290   2.517   3.426  12.021  0.1156  0.0669 -0.1368
 1600TIP3    H126291   2.605   3.439  12.058  0.2559 -1.3845  0.0863
 1600TIP3    H226292   2.515   3.334  11.996 -1.2570  0.1561 -0.4241
 1601TIP3   OH226293   2.720   3.805   2.667 -0.1681  0.2427 -0.5719
 1601TIP3    H126294   2.707   3.896   2.640  2.3047  1.4363  1.7838
 1601TIP3    H226295   2.680   3.800   2.754  1.6710 -0.2364  0.2793
 1602TIP3   OH226296   2.547   4.610   4.026 -0.3581 -0.2945 -0.1988
 1602TIP3    H126297   2.625   4.658   4.055  0.1568 -1.4250  0.3678
 1602TIP3    H226298   2.552   4.526   4.073 -0.5763 -1.4051 -2.0693
 1603TIP3   OH226299   6.743   3.749   5.834 -0.2230  0.0374  0.0027
 1603TIP3    H126300   6.736   3.782   5.744  0.8133  0.2628 -0.0069
 1603TIP3    H226301   6.819   3.794   5.870 -1.3133  0.8491  1.3942
 1604TIP3   OH226302   1.611   5.052   3.334  0.2882 -0.1665 -0.1508
 1604TIP3    H126303   1.599   5.054   3.429  0.5438 -1.1087 -0.0877
 1604TIP3    H226304   1.700   5.020   3.321  1.1622  2.2816 -0.7002
 1605TIP3   OH226305   5.513   6.012  13.942 -0.0951  0.0305 -0.2089
 1605TIP3    H126306   5.511   5.916  13.946  1.6598 -0.0359 -0.1618
 1605TIP3    H226307   5.470   6.033  13.859 -0.3737 -0.7955 -0.2884
 1606TIP3   OH226308   6.402   4.812  13.617  0.2225  0.4152  0.2661
 1606TIP3    H126309   6.365   4.744  13.561  0.0173 -0.4846  1.4469
 1606TIP3    H226310   6.461   4.861  13.560 -1.2809  0.6449 -1.1627
 1607TIP3   OH226311   1.750   1.953  15.670  0.1805 -0.0005  0.3754
 1607TIP3    H126312   1.707   1.872  15.697  1.1848 -0.5203  0.4237
 1607TIP3    H226313   1.709   2.021  15.724 -0.2897 -0.5384  0.7086
 1608TIP3   OH226314   1.736   3.453   3.557 -0.2582 -0.4890 -0.5621
 1608TIP3    H126315   1.736   3.547   3.571  1.1638 -0.7322  1.5087
 1608TIP3    H226316   1.794   3.440   3.481 -3.0146  0.4320 -3.0211
 1609TIP3   OH226317   1.736   1.556  11.293  0.2513  0.6588  0.4679
 1609TIP3    H126318   1.660   1.498  11.294  0.4902  0.3337 -0.1971
 1609TIP3    H226319   1.760   1.564  11.386  1.1232 -1.5016  0.4816
 1610TIP3   OH226320   1.256   1.744  14.147  0.6442 -0.5580 -0.5522
 1610TIP3    H126321   1.180   1.692  14.176  1.3011 -0.7288  0.9831
 1610TIP3    H226322   1.275   1.711  14.060 -0.2404 -1.4468 -0.4356
 1611TIP3   OH226323   6.278   0.177  17.233  0.2990 -1.1137  0.2618
 1611TIP3    H126324   6.204   0.227  17.199 -0.3010 -1.7399  0.6299
 1611TIP3    H226325   6.318   0.236  17.298 -0.0144 -0.8621  0.2306
 1612TIP3   OH226326   4.952   0.649   1.589 -0.1555 -0.1000 -0.7862
 1612TIP3    H126327   4.928   0.617   1.502 -2.3979 -0.5256 -0.0613
 1612TIP3    H226328   4.903   0.594   1.650  1.4881  0.0874  0.7868
 1613TIP3   OH226329   3.022   0.144  16.111  0.0123  0.1911  0.2336
 1613TIP3    H126330   3.080   0.190  16.051 -1.0918  1.0407 -0.2318
 1613TIP3    H226331   3.008   0.206  16.183 -1.2079  0.4753 -0.2212
 1614TIP3   OH226332   0.935   5.282  17.300  0.3794 -0.2274 -0.1589
 1614TIP3    H126333   0.975   5.265  17.385  1.8467  1.4639 -0.4289
 1614TIP3    H226334   0.977   5.220  17.241  2.4343  1.2260 -0.3480
 1615TIP3   OH226335   2.337   6.549  12.134 -0.7898  0.2372 -0.4013
 1615TIP3    H126336   2.284   6.556  12.054  1.0497  0.6892 -1.6546
 1615TIP3    H226337   2.369   6.638  12.149 -2.2955  0.4667  1.7402
 1616TIP3   OH226338   4.280   2.129  14.783  0.0522  0.3961 -0.5366
 1616TIP3    H126339   4.338   2.199  14.753  1.1949 -0.2455  0.0844
 1616TIP3    H226340   4.329   2.086  14.854 -1.6311  0.5024  0.7669
 1617TIP3   OH226341   1.715   4.407   1.211 -0.6978 -0.2750  0.2379
 1617TIP3    H126342   1.626   4.439   1.195 -0.0696  0.5032 -2.1576
 1617TIP3    H226343   1.765   4.485   1.234 -0.1093 -0.2249 -1.1164
 1618TIP3   OH226344   5.468   0.765  14.983  0.0933  0.8918  0.3243
 1618TIP3    H126345   5.414   0.777  15.061  1.4446  1.2744  1.2370
 1618TIP3    H226346   5.467   0.670  14.967  1.1923  0.5936  1.8664
 1619TIP3   OH226347   2.860   1.385  13.463 -0.0589  0.0840  0.5136
 1619TIP3    H126348   2.814   1.383  13.546 -1.6295 -2.0628 -0.3212
 1619TIP3    H226349   2.918   1.461  13.469 -0.4164  0.2123  3.3663
 1620TIP3   OH226350   1.962   0.721   3.373  0.0512 -0.0731 -0.2478
 1620TIP3    H126351   2.027   0.782   3.406 -0.1596  0.0483 -0.0520
 1620TIP3    H226352   1.899   0.711   3.445 -0.4707  0.2819 -0.6457
 1621TIP3   OH226353   4.684   0.501   2.633 -0.3803 -0.2204 -0.0450
 1621TIP3    H126354   4.656   0.418   2.672 -0.0601 -0.0549  0.5581
 1621TIP3    H226355   4.671   0.490   2.539  0.6044 -1.3397 -0.0798
 1622TIP3   OH226356   1.766   1.898   0.180  0.4305 -0.2886  0.0615
 1622TIP3    H126357   1.707   1.968   0.208  1.2368  0.5360 -0.2667
 1622TIP3    H226358   1.842   1.906   0.237  1.0166 -0.1744 -0.7269
 1623TIP3   OH226359   6.380   4.871  16.297 -0.0615 -0.3977 -0.4736
 1623TIP3    H126360   6.381   4.958  16.336 -1.4944  0.2482 -1.7999
 1623TIP3    H226361   6.289   4.844  16.300  0.3495 -1.8244 -0.1723
 1624TIP3   OH226362   5.235   2.143  14.868  0.4713 -0.2044  0.0382
 1624TIP3    H126363   5.228   2.048  14.882  1.2309 -0.4498 -1.1460
 1624TIP3    H226364   5.232   2.180  14.956 -0.4254 -1.2791  0.4892
 1625TIP3   OH226365   2.137   4.491   3.167 -0.7017  0.4407 -0.9427
 1625TIP3    H126366   2.225   4.469   3.137  0.3472 -0.5245  2.3863
 1625TIP3    H226367   2.079   4.460   3.097  1.5376  1.5511 -3.4604
 1626TIP3   OH226368   2.980   6.005  11.186  0.2335 -0.3059 -0.3226
 1626TIP3    H126369   2.902   6.059  11.193 -0.1868 -1.0854  1.5616
 1626TIP3    H226370   2.958   5.939  11.120 -1.1220 -1.1375  0.9081
 1627TIP3   OH226371   2.424   4.755   5.478  0.2589 -0.2824 -0.4084
 1627TIP3    H126372   2.371   4.801   5.542 -0.8171  0.6857 -1.9197
 1627TIP3    H226373   2.513   4.787   5.493 -0.2601  1.3512 -0.5685
 1628TIP3   OH226374   5.757   5.016   3.567 -0.7025  0.4597  0.1390
 1628TIP3    H126375   5.837   5.067   3.574 -0.0320 -0.6853  1.1675
 1628TIP3    H226376   5.744   5.003   3.473  0.1110  0.9718 -0.0512
 1629TIP3   OH226377   3.743   1.832   1.432  0.4775  0.6291  0.2544
 1629TIP3    H126378   3.692   1.862   1.508  2.3814  2.4423  0.8903
 1629TIP3    H226379   3.765   1.912   1.385  1.4603 -0.2573 -0.8391
 1630TIP3   OH226380   1.610   3.366   3.859  0.2996 -0.4511  0.6060
 1630TIP3    H126381   1.550   3.401   3.793  2.6743 -2.3681 -2.8156
 1630TIP3    H226382   1.654   3.443   3.895  2.0547  0.5862 -3.3125
 1631TIP3   OH226383   3.825   6.435   2.901  0.4204 -0.8923  0.2247
 1631TIP3    H126384   3.875   6.375   2.845 -0.3017 -0.1033 -1.3205
 1631TIP3    H226385   3.835   6.399   2.989  2.9058 -1.2994 -0.1503
 1632TIP3   OH226386   1.991   1.087  17.474 -0.2146 -0.5031 -0.0071
 1632TIP3    H126387   1.898   1.099  17.492 -0.0801  0.0537  0.3766
 1632TIP3    H226388   1.998   1.083  17.379 -0.6871 -1.0915 -0.0192
 1633TIP3   OH226389   2.077   0.910  14.457 -0.3220  0.0667  0.0050
 1633TIP3    H126390   2.057   0.860  14.378 -1.0420  0.5853 -0.1493
 1633TIP3    H226391   2.005   0.889  14.517 -0.7783  1.1200 -0.1587
 1634TIP3   OH226392   2.920   2.633   2.603 -0.6490  0.0302 -0.0732
 1634TIP3    H126393   2.970   2.638   2.685 -2.7260  0.0439  1.3007
 1634TIP3    H226394   2.937   2.716   2.559  0.6527 -0.0510  0.2356
 1635TIP3   OH226395   4.746   5.935   6.423 -0.3679 -0.3727 -0.6555
 1635TIP3    H126396   4.732   5.841   6.426  0.3172 -0.6023 -2.7896
 1635TIP3    H226397   4.794   5.955   6.503  0.4926 -2.0489 -0.7165
 1636TIP3   OH226398   1.649   5.394  14.589  0.3405 -0.1359 -0.4792
 1636TIP3    H126399   1.700   5.448  14.649  1.1059  0.0181 -1.2481
 1636TIP3    H226400   1.645   5.308  14.631  1.0107 -0.0757 -0.2817
 1637TIP3   OH226401   1.531   0.653  12.771 -0.2122  0.0566 -0.4722
 1637TIP3    H126402   1.571   0.731  12.732  2.1560 -0.7001  0.2318
 1637TIP3    H226403   1.519   0.593  12.698  0.1911  0.2005 -0.6597
 1638TIP3   OH226404   3.613   5.484  15.621 -0.0083 -0.3117  0.2154
 1638TIP3    H126405   3.566   5.448  15.696  1.3466 -1.9250  0.3549
 1638TIP3    H226406   3.606   5.579  15.632 -1.3006 -0.5105  1.4202
 1639TIP3   OH226407   3.066   3.853   5.670  0.2565 -0.1398  0.6794
 1639TIP3    H126408   3.154   3.854   5.707  0.4945  0.0397  0.1211
 1639TIP3    H226409   3.049   3.761   5.652  0.6088 -0.1031  0.1421
 1640TIP3   OH226410   6.557   5.734   5.894  0.7668  0.2766  0.1259
 1640TIP3    H126411   6.596   5.812   5.854  0.3558  0.3477 -0.1376
 1640TIP3    H226412   6.465   5.737   5.868  0.5793  0.1140  0.7487
 1641TIP3   OH226413   0.741   5.942   1.542 -1.1674  0.8708  0.5320
 1641TIP3    H126414   0.692   5.885   1.601  0.9240 -0.7121  0.8588
 1641TIP3    H226415   0.722   5.908   1.454  1.5613 -1.8013  0.8058
 1642TIP3   OH226416   0.071   5.591   4.196 -0.4537  0.0590 -0.6132
 1642TIP3    H126417  -0.015   5.548   4.200 -0.4898  0.1678 -0.1358
 1642TIP3    H226418   0.052   5.679   4.164 -0.6294  0.3500  0.2643
 1643TIP3   OH226419   1.078   5.092   1.039 -0.6194  1.4078 -0.0397
 1643TIP3    H126420   1.100   5.004   1.009 -0.0975  1.3999  0.3345
 1643TIP3    H226421   0.987   5.105   1.013 -1.0869  0.2942  0.9469
 1644TIP3   OH226422   0.152   3.266  12.627 -0.3730 -0.1377  0.0356
 1644TIP3    H126423   0.194   3.347  12.655  1.5391 -1.1526  0.2409
 1644TIP3    H226424   0.077   3.257  12.686  0.1961  0.7815  0.9346
 1645TIP3   OH226425   6.168   1.031   4.326  0.2611  0.0221  0.1023
 1645TIP3    H126426   6.149   1.019   4.419  4.4340 -0.2958  1.0810
 1645TIP3    H226427   6.108   1.100   4.298 -0.3077  0.9861  3.3030
 1646TIP3   OH226428   0.828   4.036   6.464  0.0604 -0.1181  0.1175
 1646TIP3    H126429   0.821   3.943   6.441 -0.7534  0.0715 -0.4674
 1646TIP3    H226430   0.760   4.049   6.530 -0.5964  0.2989 -0.6303
 1647TIP3   OH226431   1.809   2.301   1.339 -0.3943  0.2491 -0.0318
 1647TIP3    H126432   1.839   2.351   1.263  1.9400 -0.6212  0.2283
 1647TIP3    H226433   1.854   2.341   1.413 -1.1155 -0.1445  0.6334
 1648TIP3   OH226434   5.081   4.446   0.984 -0.0970  0.0791 -0.7486
 1648TIP3    H126435   5.095   4.403   0.899 -0.8150 -1.2182 -0.2324
 1648TIP3    H226436   4.987   4.437   0.999  0.2435 -1.1107  0.9089
 1649TIP3   OH226437   1.179   3.482   1.297 -0.4785  0.3975  0.1566
 1649TIP3    H126438   1.089   3.463   1.272 -0.6770 -0.1316  1.2294
 1649TIP3    H226439   1.171   3.532   1.378  0.1950  0.6295  0.0867
 1650TIP3   OH226440   6.201   2.382  15.530  0.1702 -0.0769  0.2090
 1650TIP3    H126441   6.155   2.458  15.566 -0.9364 -0.4939 -0.2658
 1650TIP3    H226442   6.140   2.309  15.542 -0.3957 -0.2102 -2.6684
 1651TIP3   OH226443   3.780   4.237   3.842 -0.0630 -0.2825  0.5424
 1651TIP3    H126444   3.699   4.259   3.796  0.1733  0.2347  0.3619
 1651TIP3    H226445   3.850   4.264   3.781  0.2462 -0.3220  0.8775
 1652TIP3   OH226446   1.134   2.733  15.780  0.3085 -0.1526  0.5347
 1652TIP3    H126447   1.044   2.702  15.771 -0.3722  1.3274  1.8864
 1652TIP3    H226448   1.128   2.810  15.836  2.6717 -1.3336  2.5841
 1653TIP3   OH226449   3.041   3.966   4.268  0.0540  0.2170  0.1179
 1653TIP3    H126450   3.113   4.023   4.294 -0.9162  2.1019 -1.1347
 1653TIP3    H226451   3.074   3.916   4.194  1.5091 -2.3269  2.2756
 1654TIP3   OH226452   0.002   6.431  13.223  0.5696 -0.0160  0.3527
 1654TIP3    H126453   0.043   6.513  13.194  0.3177  0.6880  1.9103
 1654TIP3    H226454  -0.020   6.386  13.141 -0.6716  2.1547 -0.6055
 1655TIP3   OH226455   0.153   5.959   2.056 -0.0391  0.4024 -0.2676
 1655TIP3    H126456   0.123   5.931   1.970 -1.6171  2.5605 -0.5156
 1655TIP3    H226457   0.085   6.021   2.086 -0.2599 -1.2451  3.1176
 1656TIP3   OH226458   3.008   5.870   1.705  0.3750 -0.1424  0.1240
 1656TIP3    H126459   3.075   5.868   1.636  1.7687  2.1081  1.3017
 1656TIP3    H226460   3.035   5.941   1.763 -1.5376 -1.0055  2.2266
 1657TIP3   OH226461   3.095   0.040   0.473 -0.2526 -0.3355  0.2592
 1657TIP3    H126462   3.096  -0.056   0.469 -1.5405 -0.3557 -0.2581
 1657TIP3    H226463   3.178   0.064   0.514 -0.1204 -1.6935  0.8306
 1658TIP3   OH226464   1.479   6.380   6.010  0.9363 -0.1376  0.7032
 1658TIP3    H126465   1.473   6.360   6.104  0.9086  0.6542  0.8832
 1658TIP3    H226466   1.509   6.471   6.008  0.3745  0.0311 -0.0565
 1659TIP3   OH226467   3.411   3.027   3.536  0.4570  0.3763  0.1064
 1659TIP3    H126468   3.485   3.020   3.597 -0.7157  1.4426  1.7426
 1659TIP3    H226469   3.365   3.106   3.564  0.2075  1.2649 -2.6223
 1660TIP3   OH226470   0.246   3.700   1.912  0.0807 -0.0960  0.1122
 1660TIP3    H126471   0.251   3.794   1.896  1.0139  0.1773  1.6864
 1660TIP3    H226472   0.322   3.664   1.866  0.3512  0.0887  0.4047
 1661TIP3   OH226473   5.242   3.197  15.521 -0.4234  0.1898 -0.6909
 1661TIP3    H126474   5.245   3.291  15.538  0.5337 -0.1246  1.2243
 1661TIP3    H226475   5.332   3.174  15.497 -0.0886 -0.5417  1.0743
 1662TIP3   OH226476   0.076   0.043   2.420 -0.2179 -0.1728  0.5586
 1662TIP3    H126477   0.153   0.028   2.364 -0.8739  0.2389 -0.4739
 1662TIP3    H226478   0.002   0.039   2.360 -1.0879 -1.3505  1.6660
 1663TIP3   OH226479   4.911   3.152   6.272 -0.4373 -0.2517  0.8545
 1663TIP3    H126480   4.906   3.242   6.307  0.1557  0.2545 -0.3149
 1663TIP3    H226481   4.894   3.162   6.179 -0.3119 -1.3677  0.7073
 1664TIP3   OH226482   5.984   5.597   1.817 -0.1027  0.0301  0.1194
 1664TIP3    H126483   5.926   5.550   1.757  1.2217 -0.4096 -0.8827
 1664TIP3    H226484   6.067   5.549   1.811  0.7434  1.4015  0.5053
 1665TIP3   OH226485   3.379   5.029   0.113  0.5734 -0.1139 -0.2342
 1665TIP3    H126486   3.390   5.091   0.186  0.3840  0.0090 -0.3096
 1665TIP3    H226487   3.284   5.016   0.107  0.6037 -0.2906 -0.3204
 1666TIP3   OH226488   3.915   0.235   7.139 -0.1356  0.4247  0.1170
 1666TIP3    H126489   3.967   0.212   7.063 -0.7087 -1.3371  0.1867
 1666TIP3    H226490   3.957   0.312   7.176  0.6739  0.7721 -1.4613
 1667TIP3   OH226491   0.243   4.139  17.250 -0.0794 -0.1276  0.2628
 1667TIP3    H126492   0.206   4.189  17.323  1.0428 -1.3963  1.7555
 1667TIP3    H226493   0.265   4.205  17.184 -0.8158  1.0792  1.1891
 1668TIP3   OH226494   6.231   2.005  13.622 -0.1185  0.0724  0.2488
 1668TIP3    H126495   6.302   2.062  13.652 -0.3917  0.4264  0.2305
 1668TIP3    H226496   6.198   1.963  13.702  0.1192 -0.1039  0.2554
 1669TIP3   OH226497   3.807   1.209   3.009 -0.8241  0.0730 -0.0026
 1669TIP3    H126498   3.804   1.289   2.956 -0.8849  0.5219  0.6735
 1669TIP3    H226499   3.836   1.141   2.947 -4.1637 -0.1599 -1.5389
 1670TIP3   OH226500   3.073   5.813   0.188 -0.0744 -0.3878 -0.5807
 1670TIP3    H126501   3.154   5.836   0.144  0.4671 -3.0370 -1.1441
 1670TIP3    H226502   3.061   5.720   0.171 -0.1549 -1.5614  4.2531
 1671TIP3   OH226503   2.153   1.433  11.249  0.7591  0.1725 -0.4887
 1671TIP3    H126504   2.140   1.342  11.273 -2.0473 -0.1414 -2.6931
 1671TIP3    H226505   2.154   1.433  11.153  0.3771  2.4660 -0.5504
 1672TIP3   OH226506   2.151   0.233  16.512 -0.5097  0.7371  0.9704
 1672TIP3    H126507   2.098   0.301  16.553 -0.7291  1.4933 -0.4900
 1672TIP3    H226508   2.236   0.275  16.497 -0.2998  0.3364  1.0287
 1673TIP3   OH226509   5.584   0.434  12.993 -0.5291  0.1470  0.1888
 1673TIP3    H126510   5.624   0.379  12.925  0.8021  0.0323  1.0310
 1673TIP3    H226511   5.519   0.376  13.035 -1.9176  0.4472 -1.4242
 1674TIP3   OH226512   0.400   1.159  12.974  0.1878  0.1240  0.4766
 1674TIP3    H126513   0.470   1.116  13.022  0.7395  1.0240  0.4932
 1674TIP3    H226514   0.367   1.226  13.034  0.5971  0.9712 -0.2186
 1675TIP3   OH226515   1.503   2.603   5.136  0.3381  0.4723 -0.9482
 1675TIP3    H126516   1.517   2.647   5.220 -0.0704  0.2058 -0.7385
 1675TIP3    H226517   1.478   2.673   5.076 -2.0758  0.3312 -0.1967
 1676TIP3   OH226518   4.912   6.769  15.541 -0.3958  0.0696 -0.4280
 1676TIP3    H126519   4.953   6.808  15.464 -2.0446  0.8226 -0.9868
 1676TIP3    H226520   4.908   6.841  15.605 -1.5347  0.2624 -0.6884
 1677TIP3   OH226521   6.748   6.288  12.942 -0.7833 -0.2580 -0.2301
 1677TIP3    H126522   6.747   6.333  12.857  1.4523  0.1614 -0.1042
 1677TIP3    H226523   6.781   6.200  12.922  1.0941  0.2712  0.3111
 1678TIP3   OH226524   1.189   5.450  11.692  0.9042 -0.0042  0.3666
 1678TIP3    H126525   1.139   5.482  11.618  1.4218 -1.4380 -0.6551
 1678TIP3    H226526   1.254   5.518  11.710  1.6068 -0.1827 -1.3534
 1679TIP3   OH226527   0.911   5.552   2.448  0.2371 -0.5912 -0.3638
 1679TIP3    H126528   0.880   5.640   2.428 -0.3248 -0.7158 -0.0741
 1679TIP3    H226529   0.954   5.523   2.368  1.7582  0.5058  0.0256
 1680TIP3   OH226530   2.502   3.548   1.344  0.0976 -0.2524 -0.0945
 1680TIP3    H126531   2.546   3.472   1.383 -0.2499 -0.5700 -0.3138
 1680TIP3    H226532   2.550   3.623   1.379  0.4086 -0.5675  0.1746
 1681TIP3   OH226533   5.357   2.416  12.196 -0.0973  0.0389  0.1464
 1681TIP3    H126534   5.301   2.405  12.272 -1.5539  0.2806 -0.8458
 1681TIP3    H226535   5.330   2.346  12.136 -1.6537  2.0748 -1.6567
 1682TIP3   OH226536   2.008   6.005   1.145  0.4167 -0.0728  0.1551
 1682TIP3    H126537   1.935   5.991   1.204  0.1594  0.4435 -0.0292
 1682TIP3    H226538   2.081   6.031   1.202  1.0024 -2.3835  0.5328
 1683TIP3   OH226539   0.365   1.487   1.257  0.1935  0.0829 -0.1403
 1683TIP3    H126540   0.372   1.402   1.301 -0.0046 -0.5995 -1.3740
 1683TIP3    H226541   0.453   1.503   1.222 -0.4072 -0.9901 -2.2942
 1684TIP3   OH226542   0.512   4.646   4.351 -0.5069 -0.0935  0.0970
 1684TIP3    H126543   0.588   4.612   4.398 -1.1107 -0.0884  1.1297
 1684TIP3    H226544   0.542   4.657   4.261  1.1448  1.2182  0.7368
 1685TIP3   OH226545   4.168   5.266  10.740  0.2233  0.0809  0.9156
 1685TIP3    H126546   4.191   5.318  10.663  0.1687  1.2798  1.6830
 1685TIP3    H226547   4.226   5.190  10.735  0.5077  0.3413 -0.0869
 1686TIP3   OH226548   3.401   1.212  15.157 -0.1326  0.1174 -0.2457
 1686TIP3    H126549   3.316   1.253  15.142  0.2134  2.5842  3.4054
 1686TIP3    H226550   3.424   1.234  15.247  4.1610 -0.9226 -0.8375
 1687TIP3   OH226551   2.167   3.653   6.263  0.1483 -0.1316 -0.1884
 1687TIP3    H126552   2.131   3.568   6.238 -1.7450  0.5905 -0.0606
 1687TIP3    H226553   2.202   3.689   6.181  1.5390 -1.2479 -0.1306
 1688TIP3   OH226554   1.117   2.151   1.677 -0.6931  0.1414  0.1894
 1688TIP3    H126555   1.056   2.116   1.611 -1.3356 -0.7260  1.2174
 1688TIP3    H226556   1.200   2.160   1.630 -1.7017  1.9042 -1.4035
 1689TIP3   OH226557   3.384   6.700   0.398 -0.2914  0.7500 -0.2271
 1689TIP3    H126558   3.323   6.628   0.385 -0.0014  0.5285 -0.3775
 1689TIP3    H226559   3.466   6.657   0.422  0.2770  0.9541 -1.7148
 1690TIP3   OH226560   2.392   0.175  15.262 -0.7101 -0.4268 -0.3353
 1690TIP3    H126561   2.409   0.200  15.171 -0.3423 -1.1548 -0.4745
 1690TIP3    H226562   2.305   0.210  15.280  0.3428  2.2810 -0.0149
 1691TIP3   OH226563   4.254   0.821   0.038  0.4453 -0.7517  0.0626
 1691TIP3    H126564   4.343   0.802   0.010  0.3583  0.5043 -1.1832
 1691TIP3    H226565   4.205   0.832  -0.043 -0.3187  0.8979  0.7102
 1692TIP3   OH226566   2.263   2.616  15.325 -0.3291 -0.0749 -0.2883
 1692TIP3    H126567   2.344   2.593  15.370  0.1613 -1.1725 -1.6560
 1692TIP3    H226568   2.197   2.623  15.395  0.6035 -0.7213  0.6846
 1693TIP3   OH226569   2.326   6.395   6.007 -0.3637  0.0660  0.1423
 1693TIP3    H126570   2.321   6.446   6.088 -0.9302  0.1399  0.0597
 1693TIP3    H226571   2.398   6.334   6.022 -0.0745  0.4788  0.4746
 1694TIP3   OH226572   1.283   2.244  15.550  0.4813 -0.4901 -0.2726
 1694TIP3    H126573   1.212   2.297  15.587  0.4449 -1.0909  0.5437
 1694TIP3    H226574   1.351   2.246  15.617  0.2066 -2.0393  0.0883
 1695TIP3   OH226575   5.441   3.157  11.421 -0.5600 -0.0400 -0.1498
 1695TIP3    H126576   5.410   3.247  11.410 -0.5780 -0.1526 -1.0823
 1695TIP3    H226577   5.537   3.165  11.420 -0.5573 -0.1144 -1.0294
 1696TIP3   OH226578   6.159   3.953  11.643 -0.1051 -0.4040  0.1004
 1696TIP3    H126579   6.249   3.964  11.613 -0.3648 -0.1285 -0.5894
 1696TIP3    H226580   6.117   3.900  11.576 -1.4760  2.6193 -1.6221
 1697TIP3   OH226581   2.863   6.245   0.780 -0.1007  0.5160  0.7395
 1697TIP3    H126582   2.821   6.187   0.843 -0.6399  1.9859  1.7953
 1697TIP3    H226583   2.801   6.251   0.707 -0.3999  0.3821  0.9819
 1698TIP3   OH226584   5.281   0.983   3.813  0.4897  0.4877  0.3374
 1698TIP3    H126585   5.336   1.012   3.739  0.1840 -0.8418 -0.4482
 1698TIP3    H226586   5.338   0.989   3.889  0.5508  2.7468  0.1750
 1699TIP3   OH226587   3.247   3.302  15.605  0.2453 -0.1873  0.1112
 1699TIP3    H126588   3.309   3.335  15.670  0.4353 -0.6298  0.1604
 1699TIP3    H226589   3.167   3.350  15.621  0.7612  0.8608 -0.3693
 1700TIP3   OH226590   3.919   0.684  16.388  0.6980 -0.1889 -0.0013
 1700TIP3    H126591   3.955   0.678  16.300  0.6782  1.8420 -0.1900
 1700TIP3    H226592   3.942   0.600  16.429  1.8298 -0.6564 -1.5044
 1701TIP3   OH226593   4.431   1.108  14.511 -0.3513  0.0084 -0.2642
 1701TIP3    H126594   4.394   1.190  14.480 -1.3451 -0.0742  0.6363
 1701TIP3    H226595   4.371   1.079  14.580  0.2515 -1.2238 -0.2293
 1702TIP3   OH226596   2.953   6.756  17.244 -0.1273  0.6323 -0.4608
 1702TIP3    H126597   2.981   6.675  17.287 -3.0240 -0.3256 -0.1940
 1702TIP3    H226598   2.965   6.824  17.311  0.8836  0.1870 -0.1727
 1703TIP3   OH226599   4.506   2.754  13.918 -0.3925 -0.0361  0.0886
 1703TIP3    H126600   4.573   2.748  13.849 -0.0075 -0.3577  0.4874
 1703TIP3    H226601   4.472   2.665  13.925 -0.4607  0.0067  0.2876
 1704TIP3   OH226602   0.614   3.560  13.162 -0.3794  0.3648  0.2624
 1704TIP3    H126603   0.591   3.503  13.088 -1.9626 -0.3424  1.2483
 1704TIP3    H226604   0.617   3.502  13.237  0.7466  1.1568  0.8587
 1705TIP3   OH226605   4.269   5.047   1.198  0.1937 -0.3273  0.1167
 1705TIP3    H126606   4.210   5.094   1.139  2.2569 -0.0742 -1.8857
 1705TIP3    H226607   4.240   5.072   1.286 -0.8534  2.0711 -0.8220
 1706TIP3   OH226608   1.413   3.380   1.818 -0.7185 -0.2880 -0.1422
 1706TIP3    H126609   1.480   3.444   1.841  0.9207 -0.9319 -2.6130
 1706TIP3    H226610   1.448   3.296   1.849 -0.7351 -0.5239 -0.7454
 1707TIP3   OH226611   2.704   4.529   3.560  0.1959  0.5158 -0.2190
 1707TIP3    H126612   2.632   4.564   3.613 -1.4270 -1.8751 -0.7138
 1707TIP3    H226613   2.723   4.599   3.497  0.2984  2.3017  1.6585
 1708TIP3   OH226614   0.968   5.589   6.039  0.4917  0.3230 -0.0008
 1708TIP3    H126615   1.010   5.527   5.980  0.8762 -0.1424  0.7408
 1708TIP3    H226616   0.886   5.546   6.064 -0.0609  0.8814 -0.8301
 1709TIP3   OH226617   6.305   2.184   3.212  0.4265 -0.3646  0.0403
 1709TIP3    H126618   6.279   2.189   3.304  0.9272 -1.1563  0.2290
 1709TIP3    H226619   6.366   2.111   3.208 -0.7413 -1.3227 -1.1965
 1710TIP3   OH226620   3.661   0.939   0.290 -0.5878 -0.6937 -0.3810
 1710TIP3    H126621   3.583   0.908   0.243 -2.9042  1.1390  1.9595
 1710TIP3    H226622   3.684   1.020   0.244 -2.4255  0.7270  1.0275
 1711TIP3   OH226623   1.970   6.053   0.156 -0.1727  0.0194 -0.6932
 1711TIP3    H126624   1.954   6.129   0.099 -1.4247  1.2712  1.1888
 1711TIP3    H226625   2.040   6.082   0.214  1.0780 -1.2317 -1.5244
 1712TIP3   OH226626   5.307   0.449  13.869 -0.0910  0.3026 -0.0744
 1712TIP3    H126627   5.279   0.394  13.796 -0.7590 -0.3039  0.6344
 1712TIP3    H226628   5.309   0.538  13.832 -2.1972  0.2739 -0.3746
 1713TIP3   OH226629   0.320   3.862  13.457  0.1121 -0.2197 -0.5637
 1713TIP3    H126630   0.225   3.852  13.459  0.1541 -0.5944 -0.4050
 1713TIP3    H226631   0.337   3.937  13.514 -0.0536 -0.4327 -0.2271
 1714TIP3   OH226632   3.300   0.853   1.147  0.4070  0.1218 -0.1148
 1714TIP3    H126633   3.215   0.825   1.181  0.5324 -0.2466 -0.1028
 1714TIP3    H226634   3.332   0.778   1.097  1.4547 -0.3651  1.2178
 1715TIP3   OH226635   5.628   5.301   1.697  0.1841 -0.6096 -0.1533
 1715TIP3    H126636   5.647   5.284   1.789  0.0713  0.7149  0.1348
 1715TIP3    H226637   5.561   5.370   1.699 -0.2188 -0.9487 -1.2244
 1716TIP3   OH226638   3.210   3.233  12.829  0.4174 -0.1534 -0.4475
 1716TIP3    H126639   3.167   3.153  12.860 -0.8391  0.1765 -1.2826
 1716TIP3    H226640   3.166   3.304  12.878  1.7534  0.0368  0.5428
 1717TIP3   OH226641   1.486   4.163   1.530  0.6317  0.0140  0.1840
 1717TIP3    H126642   1.399   4.125   1.525  1.4485 -1.7792 -1.8760
 1717TIP3    H226643   1.474   4.256   1.508 -0.9152  0.2018  1.6297
 1718TIP3   OH226644   3.271   0.990  16.990 -0.2895 -0.0179 -0.4945
 1718TIP3    H126645   3.219   1.067  16.966  0.0344  0.2767 -0.2734
 1718TIP3    H226646   3.290   0.946  16.907 -2.0093 -0.8741 -0.4840
 1719TIP3   OH226647   2.864   6.053  15.806  0.2652 -0.3990 -0.1910
 1719TIP3    H126648   2.896   6.034  15.718  2.0663 -1.4119  0.6090
 1719TIP3    H226649   2.782   6.005  15.813 -0.2234  0.2104 -1.5043
 1720TIP3   OH226650   4.613   2.780   1.750  0.7465  0.1164  0.5318
 1720TIP3    H126651   4.591   2.820   1.834 -0.2932 -0.9872  0.8203
 1720TIP3    H226652   4.627   2.687   1.770 -0.2061 -0.2988 -0.5940
 1721TIP3   OH226653   2.199   1.160  14.105  0.1121 -0.7552  0.6611
 1721TIP3    H126654   2.122   1.154  14.161  0.1131 -0.8690  0.6495
 1721TIP3    H226655   2.166   1.194  14.022 -0.1154 -1.8921  0.2732
 1722TIP3   OH226656   4.253   0.893   0.874  0.2871 -0.2616  0.7752
 1722TIP3    H126657   4.195   0.852   0.939 -0.4623  0.5110  0.6182
 1722TIP3    H226658   4.259   0.827   0.804 -0.5302 -0.3088  0.7295
 1723TIP3   OH226659   4.486   3.275  11.523 -0.2548 -0.7858  0.0139
 1723TIP3    H126660   4.521   3.358  11.556  1.0667 -1.7087  1.0790
 1723TIP3    H226661   4.397   3.271  11.558 -0.1872 -0.0032  0.2916
 1724TIP3   OH226662   3.981   5.875  11.823  0.3258 -1.0035  0.2141
 1724TIP3    H126663   3.948   5.962  11.844  0.8939 -0.5533 -0.7123
 1724TIP3    H226664   3.978   5.828  11.906 -0.5749 -0.3017  0.5995
 1725TIP3   OH226665   3.069   6.598   4.608  0.4263 -0.8759  0.6650
 1725TIP3    H126666   3.147   6.569   4.562  0.7039 -0.4719  0.8752
 1725TIP3    H226667   3.102   6.647   4.684  0.0420  1.4392 -0.5524
 1726TIP3   OH226668   3.557   5.103  14.159 -0.8927  0.6033 -0.3696
 1726TIP3    H126669   3.553   5.024  14.104  1.1505  0.6115 -0.6270
 1726TIP3    H226670   3.469   5.112  14.195 -1.1955 -1.7880 -0.3368
 1727TIP3   OH226671   5.645   4.148  14.675  0.0842 -0.4297 -0.1317
 1727TIP3    H126672   5.645   4.083  14.605 -1.9971 -2.0881  1.3047
 1727TIP3    H226673   5.691   4.106  14.747 -1.2146 -0.3218  0.7859
 1728TIP3   OH226674   2.052   2.713  14.807 -0.3327 -0.3413 -0.2184
 1728TIP3    H126675   2.146   2.695  14.798 -0.2137  0.4144 -0.5591
 1728TIP3    H226676   2.025   2.660  14.882  0.2531 -0.9683 -0.4278
 1729TIP3   OH226677   1.990   2.967  14.889  0.5632  0.2920 -0.3741
 1729TIP3    H126678   1.942   2.966  14.971 -2.2580 -0.7615 -1.8929
 1729TIP3    H226679   2.011   2.875  14.873 -1.7044  0.0033 -2.2199
 1730TIP3   OH226680   5.938   3.366  11.378 -0.0151  0.1791  0.0091
 1730TIP3    H126681   5.926   3.461  11.385 -0.1261  0.1843 -0.2395
 1730TIP3    H226682   6.015   3.347  11.431  0.0494  0.4180  0.0004
 1731TIP3   OH226683   2.240   4.143   2.836 -0.5331  0.1916 -0.5226
 1731TIP3    H126684   2.248   4.202   2.761 -0.8260 -0.3728 -1.0149
 1731TIP3    H226685   2.177   4.186   2.894 -0.4613  0.5362 -0.6986
 1732TIP3   OH226686   2.440   4.313  14.536 -0.0573 -0.6139  0.0560
 1732TIP3    H126687   2.515   4.268  14.574  0.8419  0.3082 -0.5893
 1732TIP3    H226688   2.373   4.309  14.605 -0.2053 -3.2952 -0.1279
 1733TIP3   OH226689   4.112   3.294   1.007 -0.2801  0.1028  0.1323
 1733TIP3    H126690   4.051   3.238   1.055  0.5101 -0.4212  0.5450
 1733TIP3    H226691   4.103   3.380   1.048  0.9162 -0.5008  1.7517
 1734TIP3   OH226692   3.396   1.936  12.317 -0.2255 -0.4931 -0.2347
 1734TIP3    H126693   3.410   1.922  12.223  0.5132 -1.2495 -0.0363
 1734TIP3    H226694   3.304   1.960  12.325  0.4575  2.9768 -1.4797
 1735TIP3   OH226695   5.999   6.554   1.457  0.1595  0.2429 -0.5270
 1735TIP3    H126696   5.980   6.478   1.513  1.2039 -0.3372 -0.9127
 1735TIP3    H226697   5.931   6.553   1.390 -1.0485  0.8850  0.6478
 1736TIP3   OH226698   6.736   6.408   2.487  0.5218  0.2990 -0.1417
 1736TIP3    H126699   6.652   6.454   2.487  1.1426  1.4620  0.1750
 1736TIP3    H226700   6.774   6.427   2.573  0.6924 -1.0145  0.0955
 1737TIP3   OH226701   3.191   1.592  12.146 -0.0739  0.2638 -0.5788
 1737TIP3    H126702   3.163   1.645  12.221  0.4113  0.1704 -0.3243
 1737TIP3    H226703   3.279   1.625  12.125 -0.7745  1.3226 -2.0708
 1738TIP3   OH226704   4.456   6.269   1.300  0.1318 -0.8295 -0.4898
 1738TIP3    H126705   4.479   6.212   1.226 -0.5373 -0.0473 -1.3232
 1738TIP3    H226706   4.363   6.255   1.314 -0.0692  0.1112 -0.7739
 1739TIP3   OH226707   5.967   6.009  11.365 -0.4582  0.6654  0.3766
 1739TIP3    H126708   5.894   5.948  11.357 -0.4067  0.5873  0.4843
 1739TIP3    H226709   6.021   5.993  11.287 -0.8159  1.0773  0.0384
 1740TIP3   OH226710   4.348   0.076   5.130  0.0068 -0.4448  0.1882
 1740TIP3    H126711   4.350   0.166   5.099  2.1881 -0.6524 -0.4242
 1740TIP3    H226712   4.364   0.023   5.052  0.9611 -1.2338  0.8968
 1741TIP3   OH226713   4.064   4.890   3.179 -0.3303 -0.4158  0.5961
 1741TIP3    H126714   4.004   4.815   3.184  0.0745 -0.7512  0.5181
 1741TIP3    H226715   4.149   4.854   3.203  0.6727 -0.8961 -3.0887
 1742TIP3   OH226716   3.157   0.282   5.346  0.4014  0.5021  0.2011
 1742TIP3    H126717   3.151   0.191   5.316 -2.7447  0.7423 -0.2517
 1742TIP3    H226718   3.143   0.334   5.267  2.0273  1.4493  0.4849
 1743TIP3   OH226719   2.806   6.316   3.344  0.0177  0.2291  0.4183
 1743TIP3    H126720   2.734   6.301   3.405 -0.7712  2.4758  0.1319
 1743TIP3    H226721   2.842   6.401   3.370  1.4321 -0.0352 -0.5617
 1744TIP3   OH226722   3.295   4.145   6.781 -0.2856 -0.0133  0.3093
 1744TIP3    H126723   3.360   4.104   6.838  0.7224  1.7656  0.5211
 1744TIP3    H226724   3.330   4.133   6.693 -1.1188 -1.4944  0.1458
 1745TIP3   OH226725   5.230   1.934   3.223 -0.0347  0.7605  0.0679
 1745TIP3    H126726   5.170   1.965   3.154 -0.2342 -0.9732 -0.5807
 1745TIP3    H226727   5.317   1.955   3.190 -0.0802 -0.8079 -1.1551
 1746TIP3   OH226728   2.278   2.326  11.370  0.0123 -0.6520  0.1570
 1746TIP3    H126729   2.309   2.241  11.402 -1.1277 -1.1909 -0.1319
 1746TIP3    H226730   2.316   2.334  11.283  2.5648  0.5115  1.2750
 1747TIP3   OH226731   6.437   5.143  13.583 -0.5636  0.4319 -0.8080
 1747TIP3    H126732   6.509   5.206  13.589  0.8067 -1.1721  0.7191
 1747TIP3    H226733   6.475   5.069  13.535 -0.7794 -0.9241  1.0234
 1748TIP3   OH226734   2.068   6.538  14.607 -0.0548 -0.4283  0.4657
 1748TIP3    H126735   1.974   6.550  14.596 -0.3780 -2.6436  0.3620
 1748TIP3    H226736   2.096   6.492  14.528  1.2054  0.4609  0.3495
 1749TIP3   OH226737   4.948   4.428   1.278 -0.3224  0.0255  0.2311
 1749TIP3    H126738   5.037   4.459   1.267 -0.1057 -0.6045  0.1620
 1749TIP3    H226739   4.911   4.429   1.189 -0.9392  1.8829  0.4772
 1750TIP3   OH226740   2.325   4.214   5.471 -0.3126 -0.5823  0.3632
 1750TIP3    H126741   2.255   4.153   5.492  0.9358 -2.3188 -0.2784
 1750TIP3    H226742   2.346   4.196   5.380 -0.7750  1.7679 -0.2673
 1751TIP3   OH226743   4.707   0.072  12.928 -0.2775  0.4462  0.1926
 1751TIP3    H126744   4.724   0.012  13.001  0.3808  0.5936  0.1697
 1751TIP3    H226745   4.612   0.083  12.927 -0.5213 -1.4321 -0.4724
 1752TIP3   OH226746   0.697   5.085  12.755 -0.1402  0.2486  0.3240
 1752TIP3    H126747   0.756   5.052  12.823 -0.4880 -0.6518  0.2026
 1752TIP3    H226748   0.625   5.125  12.805 -0.2103 -0.0749  0.4865
 1753TIP3   OH226749   1.116   5.343   5.926  0.7583 -0.2105 -0.8258
 1753TIP3    H126750   1.189   5.289   5.896  0.4025 -2.3549  1.8219
 1753TIP3    H226751   1.127   5.350   6.021 -3.2272 -2.0550 -0.0100
 1754TIP3   OH226752   4.484   4.233   1.251 -0.4950  0.4612  0.2471
 1754TIP3    H126753   4.388   4.233   1.260 -0.3538 -1.6398  2.8641
 1754TIP3    H226754   4.501   4.181   1.173 -1.4766  0.1299  0.2407
 1755TIP3   OH226755   6.113   2.103  16.985  0.1286 -0.0203 -0.3261
 1755TIP3    H126756   6.074   2.032  17.036 -0.1921  0.4913  0.1636
 1755TIP3    H226757   6.192   2.066  16.948 -0.5928 -0.9632 -0.9741
 1756TIP3   OH226758   1.787   6.072   2.435  0.0133  0.3964 -0.0107
 1756TIP3    H126759   1.882   6.084   2.424  0.0602  2.0625  1.6580
 1756TIP3    H226760   1.779   5.999   2.496  0.1625 -0.3164 -0.8187
 1757TIP3   OH226761   5.355   6.379  15.701  0.2216  0.1298  0.3165
 1757TIP3    H126762   5.312   6.294  15.692 -1.5592  0.4396  4.2015
 1757TIP3    H226763   5.311   6.435  15.636  0.2898 -1.4229 -1.1459
 1758TIP3   OH226764   5.236   6.600   0.651  0.3425  0.2587 -0.3105
 1758TIP3    H126765   5.210   6.688   0.680  2.6351  0.3229  2.0283
 1758TIP3    H226766   5.307   6.616   0.589  0.2711  0.0632 -0.4413
 1759TIP3   OH226767   2.375   5.383   5.413 -0.0486  0.6462 -0.1757
 1759TIP3    H126768   2.309   5.393   5.481 -0.6355 -0.9369 -0.4754
 1759TIP3    H226769   2.334   5.328   5.347  2.1705 -2.1266  0.5247
 1760TIP3   OH226770   2.414   6.189   2.468 -0.2435  0.3533 -0.0592
 1760TIP3    H126771   2.440   6.258   2.528  1.1054  0.0433 -0.2500
 1760TIP3    H226772   2.387   6.116   2.525 -1.2756  0.8712  0.1387
 1761TIP3   OH226773   5.091   6.473   5.653  0.0056 -0.6002  0.1841
 1761TIP3    H126774   5.180   6.499   5.629  0.2632 -2.1195 -0.6812
 1761TIP3    H226775   5.035   6.523   5.595  0.3979 -0.8010 -0.3840
 1762TIP3   OH226776   2.338   0.665  15.200  0.1796 -0.1505  0.0381
 1762TIP3    H126777   2.358   0.672  15.107 -0.2044 -1.3655 -0.1630
 1762TIP3    H226778   2.399   0.599  15.233  0.7452  0.7303  0.7958
 1763TIP3   OH226779   6.505   2.024  14.676  0.2556 -0.3538 -0.4581
 1763TIP3    H126780   6.479   2.108  14.715  2.4920  0.1382  0.1484
 1763TIP3    H226781   6.543   1.975  14.748 -1.0021 -1.9141 -0.8213
 1764TIP3   OH226782   4.728   5.986   4.841 -0.1812 -0.3745 -1.1329
 1764TIP3    H126783   4.756   5.993   4.749  1.5354 -0.1482 -0.6155
 1764TIP3    H226784   4.761   6.065   4.882 -0.6464 -0.6423 -0.2297
 1765TIP3   OH226785   2.397   1.074  16.525 -0.2575  0.3570  0.2865
 1765TIP3    H126786   2.379   0.980  16.514  0.4474 -0.2038  3.0680
 1765TIP3    H226787   2.322   1.117  16.486 -1.0521 -1.4079 -0.2499
 1766TIP3   OH226788   5.506   2.801  16.992  0.4562  0.0953  0.0137
 1766TIP3    H126789   5.515   2.711  16.961  0.3418 -0.0419  0.3683
 1766TIP3    H226790   5.422   2.830  16.958  0.2960 -0.0801  0.2568
 1767TIP3   OH226791   6.349   4.012  15.406 -0.0966 -0.7374 -0.4503
 1767TIP3    H126792   6.373   4.028  15.497  0.3515 -2.4410 -0.2220
 1767TIP3    H226793   6.261   3.976  15.411 -0.2411 -0.4193 -0.7279
 1768TIP3   OH226794   3.880   3.975   1.857  0.4066 -0.3025 -0.7135
 1768TIP3    H126795   3.835   3.924   1.925  3.0510 -2.7350 -0.5896
 1768TIP3    H226796   3.809   4.008   1.802 -1.6151 -2.7961  0.1477
 1769TIP3   OH226797   0.442   2.943  13.461 -0.0689 -0.2915 -0.2248
 1769TIP3    H126798   0.363   2.893  13.480 -0.4400  0.8966  1.6329
 1769TIP3    H226799   0.412   3.013  13.402 -0.0939 -0.6737 -0.6729
 1770TIP3   OH226800   2.340   2.097   3.501  0.1880 -0.4787 -0.1365
 1770TIP3    H126801   2.396   2.173   3.485 -0.6695 -0.0981 -1.4984
 1770TIP3    H226802   2.295   2.117   3.583  0.8271 -0.0542  0.1204
 1771TIP3   OH226803   5.798   3.919  16.537 -0.4146 -0.2382  0.9348
 1771TIP3    H126804   5.737   3.879  16.599  0.5304  0.0997  2.1348
 1771TIP3    H226805   5.803   4.010  16.564  0.9570 -0.3633  1.1724
 1772TIP3   OH226806   5.184   1.076  16.013 -0.0253 -0.6180  0.2603
 1772TIP3    H126807   5.182   1.124  16.096 -2.1693  0.1246 -0.1550
 1772TIP3    H226808   5.271   1.037  16.010  0.8093  0.9706  1.9205
 1773TIP3   OH226809   0.409   5.273   3.296  0.2503  0.1667 -0.5901
 1773TIP3    H126810   0.402   5.352   3.350 -0.1698 -0.6223  0.5459
 1773TIP3    H226811   0.408   5.305   3.206  0.9698  1.5256 -0.1449
 1774TIP3   OH226812   2.554   2.062   5.677  0.2007 -0.6210  0.0301
 1774TIP3    H126813   2.601   2.144   5.668 -1.5702  0.5433  0.8728
 1774TIP3    H226814   2.616   2.004   5.723  1.8621 -0.1807 -1.5229
 1775TIP3   OH226815   6.537   1.148  13.992 -0.5350 -0.1858 -0.3784
 1775TIP3    H126816   6.489   1.228  13.972 -0.4832 -0.2184 -0.6395
 1775TIP3    H226817   6.534   1.141  14.087 -1.8182 -0.6511 -0.4340
 1776TIP3   OH226818   5.013   4.792  14.694  0.5692 -0.3231 -0.1955
 1776TIP3    H126819   4.998   4.809  14.601  0.1085  0.1864 -0.0301
 1776TIP3    H226820   5.063   4.710  14.695  0.5907 -0.3265 -0.8899
 1777TIP3   OH226821   4.889   6.655  11.645  0.0390  0.1996 -0.0396
 1777TIP3    H126822   4.967   6.604  11.624  1.6944  2.4847  0.1581
 1777TIP3    H226823   4.906   6.689  11.733 -0.9830  1.0667 -0.1573
 1778TIP3   OH226824   1.272   1.140   1.794  0.2985  0.2576 -0.0183
 1778TIP3    H126825   1.222   1.060   1.780  0.6252  0.0568 -0.0253
 1778TIP3    H226826   1.237   1.201   1.729  0.9247 -0.2736 -0.8755
 1779TIP3   OH226827   4.016   3.040   2.237  0.1139 -0.1049 -0.2565
 1779TIP3    H126828   3.936   3.008   2.195  0.7039 -1.1601 -0.6137
 1779TIP3    H226829   4.028   2.982   2.313  0.7576 -0.2272 -0.4431
 1780TIP3   OH226830   5.885   4.800   2.906 -0.1820 -0.5475 -0.0537
 1780TIP3    H126831   5.866   4.713   2.941  0.1703 -1.6965 -2.4856
 1780TIP3    H226832   5.817   4.815   2.841  1.6742 -0.6020 -2.1302
 1781TIP3   OH226833   6.163   3.905   3.977  0.0436  0.1088  0.4687
 1781TIP3    H126834   6.106   3.828   3.976 -1.5478  1.2154 -0.9910
 1781TIP3    H226835   6.238   3.881   3.923  0.3856 -0.9573  1.3967
 1782TIP3   OH226836   2.722   0.798   1.342  0.1095  0.5020  0.0621
 1782TIP3    H126837   2.758   0.791   1.431  0.2042 -1.8950 -0.0984
 1782TIP3    H226838   2.691   0.888   1.336  0.6038  0.8936  2.3327
 1783TIP3   OH226839   3.948   4.074   0.541  0.1755 -0.5973  0.3937
 1783TIP3    H126840   3.941   3.979   0.554 -1.6235 -0.7353 -1.2779
 1783TIP3    H226841   4.002   4.084   0.463  0.0709 -0.2425  0.3642
 1784TIP3   OH226842   5.217   6.520  10.507 -0.5051 -0.2661  0.3020
 1784TIP3    H126843   5.286   6.560  10.454 -0.8493 -0.7851 -0.5603
 1784TIP3    H226844   5.188   6.590  10.566 -1.0465  0.7549 -1.1168
 1785TIP3   OH226845   0.226   0.616  11.260 -0.3403 -0.2914 -0.2142
 1785TIP3    H126846   0.213   0.578  11.347 -0.2123 -0.6460 -0.3487
 1785TIP3    H226847   0.225   0.711  11.275 -0.6251 -0.3454  0.1276
 1786TIP3   OH226848   0.438   0.065   3.376  0.2781 -0.1450  0.5363
 1786TIP3    H126849   0.396   0.105   3.453  1.1488 -1.7397  1.8911
 1786TIP3    H226850   0.501   0.003   3.413 -0.0899 -1.7863 -1.4705
 1787TIP3   OH226851   4.558   6.402   3.145 -0.1373  0.3535 -0.4951
 1787TIP3    H126852   4.635   6.436   3.101  0.4131  2.5236  1.8874
 1787TIP3    H226853   4.486   6.419   3.084  0.9305  0.4408 -1.7688
 1788TIP3   OH226854   2.235   0.595   2.328  0.0477 -0.2642 -0.1270
 1788TIP3    H126855   2.206   0.515   2.372  0.3318 -0.2016  0.1771
 1788TIP3    H226856   2.318   0.570   2.286  0.3062 -0.0386  0.2471
 1789TIP3   OH226857   1.300   5.090   5.234  0.5048 -0.1529 -0.3782
 1789TIP3    H126858   1.315   5.003   5.196 -0.5386 -0.3649 -0.3339
 1789TIP3    H226859   1.388   5.127   5.244  1.0644 -1.6928  0.8026
 1790TIP3   OH226860   1.892   3.298   6.814 -0.0774  0.5301  0.2284
 1790TIP3    H126861   1.951   3.366   6.782 -0.0986 -0.1174 -1.3174
 1790TIP3    H226862   1.806   3.322   6.778 -0.1580 -0.0946 -0.0119
 1791TIP3   OH226863   4.034   2.385   3.992  0.3482  0.1542  0.1022
 1791TIP3    H126864   4.103   2.391   3.926  0.7078  0.9327  0.5285
 1791TIP3    H226865   3.987   2.469   3.986 -0.3208 -0.2197  0.0708
 1792TIP3   OH226866   2.776   1.057   0.389  0.2366  0.1599  0.1927
 1792TIP3    H126867   2.711   1.012   0.336  1.0901  0.2670 -0.9704
 1792TIP3    H226868   2.845   0.992   0.402  0.2181  0.2654  0.8481
 1793TIP3   OH226869   4.872   0.228   2.006 -0.3253  0.3235  0.1227
 1793TIP3    H126870   4.892   0.305   1.954 -2.0820  0.3367 -0.6052
 1793TIP3    H226871   4.776   0.226   2.010 -0.2753 -0.6592  1.8923
 1794TIP3   OH226872   0.160   6.662  14.348  0.1344  0.0437  0.2609
 1794TIP3    H126873   0.135   6.718  14.422 -0.7066 -0.6424  0.5190
 1794TIP3    H226874   0.253   6.645  14.361  0.1507  0.4972  0.7774
 1795TIP3   OH226875   5.274   6.463  13.832  0.2461  0.3527  0.5078
 1795TIP3    H126876   5.324   6.442  13.911  0.0596 -0.0026  0.5319
 1795TIP3    H226877   5.261   6.558  13.836 -0.7283  0.1986  1.4819
 1796TIP3   OH226878   5.088   0.283   1.126 -0.2433 -0.9308 -0.4968
 1796TIP3    H126879   5.069   0.231   1.048  0.3370  0.2612 -1.4809
 1796TIP3    H226880   5.098   0.372   1.093 -3.6097  0.3451  1.3953
 1797TIP3   OH226881   3.460   5.021   2.959  0.5363 -0.0719  0.4487
 1797TIP3    H126882   3.495   5.071   3.033 -0.0598 -2.1796  2.2502
 1797TIP3    H226883   3.526   4.956   2.940  0.5285  0.2243 -0.7066
 1798TIP3   OH226884   6.320   0.531   4.111  0.1118 -0.3752 -0.0623
 1798TIP3    H126885   6.337   0.450   4.160 -0.4881  0.4625  1.6050
 1798TIP3    H226886   6.391   0.535   4.046  2.3726 -0.4003  2.2272
 1799TIP3   OH226887   5.922   0.553   3.561  0.2159 -0.3140 -0.1826
 1799TIP3    H126888   5.939   0.497   3.485  1.3603  0.2235 -0.3323
 1799TIP3    H226889   5.926   0.642   3.527 -0.6063 -0.0909  0.2601
 1800TIP3   OH226890   5.265   0.912  16.641 -0.3577  0.0156 -0.0555
 1800TIP3    H126891   5.296   0.830  16.602  1.2802  0.2993  0.5643
 1800TIP3    H226892   5.209   0.950  16.573 -0.5197 -1.2356 -0.6632
 1801TIP3   OH226893   0.083   1.020  16.861 -0.2815 -0.1290 -0.3439
 1801TIP3    H126894   0.119   0.961  16.927  1.3057 -1.7500 -2.5108
 1801TIP3    H226895   0.142   1.095  16.861 -0.4350 -0.0056  0.2325
 1802TIP3   OH226896   0.761   5.701  11.522  0.1943 -0.4955  0.3366
 1802TIP3    H126897   0.802   5.769  11.468 -2.2106  1.6715  1.0607
 1802TIP3    H226898   0.674   5.688  11.483 -0.5080 -0.9808  1.9943
 1803TIP3   OH226899   3.499   0.213   3.839 -0.2278  0.3925 -0.4067
 1803TIP3    H126900   3.531   0.173   3.758  1.8163 -0.5935  0.8169
 1803TIP3    H226901   3.545   0.296   3.844 -1.3763  1.0781 -0.8955
 1804TIP3   OH226902   3.432   3.608   4.628 -0.4283 -0.4235 -0.4790
 1804TIP3    H126903   3.521   3.582   4.650 -0.3817 -0.2757 -0.4888
 1804TIP3    H226904   3.443   3.671   4.557 -0.6518 -2.2835 -2.2765
 1805TIP3   OH226905   1.785   5.669   1.611 -0.6345 -0.2552 -0.2008
 1805TIP3    H126906   1.700   5.655   1.654 -0.8012 -0.8520 -0.7064
 1805TIP3    H226907   1.773   5.634   1.523  0.2912 -0.8155 -0.1216
 1806TIP3   OH226908   6.213   5.295  15.290  0.7933 -0.3827  0.1192
 1806TIP3    H126909   6.175   5.226  15.345 -1.8665 -0.1817 -1.3180
 1806TIP3    H226910   6.214   5.257  15.202  0.8689  0.8490 -0.4254
 1807TIP3   OH226911   0.038   0.050  16.235 -0.6572  0.0911 -0.3038
 1807TIP3    H126912   0.037  -0.045  16.227  0.9466 -0.1211  1.3429
 1807TIP3    H226913  -0.030   0.069  16.300  0.0195 -0.0868  0.4675
 1808TIP3   OH226914   1.369   1.022  16.596  0.1274 -0.2488  0.2312
 1808TIP3    H126915   1.280   0.993  16.615 -0.8421  1.4819 -1.4281
 1808TIP3    H226916   1.404   1.048  16.681 -0.7235 -1.4796  0.9923
 1809TIP3   OH226917   4.944   1.337  16.606  0.0019 -0.4082  0.2016
 1809TIP3    H126918   5.034   1.316  16.632  0.4839  0.8903 -0.3260
 1809TIP3    H226919   4.954   1.382  16.522 -0.9072  1.9592  1.2848
 1810TIP3   OH226920   4.750   3.694  12.711  0.2722  0.4980  0.2116
 1810TIP3    H126921   4.809   3.745  12.656  1.0244 -1.4557 -0.8688
 1810TIP3    H226922   4.807   3.650  12.774 -0.2186 -0.0314  0.2979
 1811TIP3   OH226923   0.308   0.468  15.536  0.0749  0.0572  0.2945
 1811TIP3    H126924   0.274   0.517  15.462  2.5630 -0.6340 -1.4282
 1811TIP3    H226925   0.398   0.499  15.546  0.7265 -1.9488  1.1301
 1812TIP3   OH226926   1.176   0.362  14.656  0.2292  0.1060 -0.3460
 1812TIP3    H126927   1.140   0.450  14.643  0.8686  0.9189  2.6903
 1812TIP3    H226928   1.139   0.310  14.584 -1.2053  2.5291 -1.4705
 1813TIP3   OH226929   3.115   4.719  15.366 -0.1945  0.7639  0.1242
 1813TIP3    H126930   3.180   4.650  15.373  1.5467  2.2946 -0.0488
 1813TIP3    H226931   3.032   4.676  15.383  0.8804 -1.2292  0.6278
 1814TIP3   OH226932   4.545   1.109  14.940  0.0824 -0.1643 -0.3107
 1814TIP3    H126933   4.592   1.192  14.931 -0.5095  0.1543 -0.5318
 1814TIP3    H226934   4.536   1.076  14.851  1.0081 -0.8672 -0.1548
 1815TIP3   OH226935   6.407   6.142  16.977 -0.1104 -0.2792 -0.8840
 1815TIP3    H126936   6.459   6.075  16.932 -1.1689 -1.6568 -0.1174
 1815TIP3    H226937   6.376   6.199  16.907 -1.4960 -2.2087 -1.9435
 1816TIP3   OH226938   5.833   6.267  16.439 -0.1985  0.2668 -0.2324
 1816TIP3    H126939   5.782   6.211  16.497 -0.4118  2.0140  1.3533
 1816TIP3    H226940   5.769   6.330  16.404  0.3175  0.5145 -0.7494
 1817TIP3   OH226941   6.244   0.368   5.167 -0.3286 -0.2474 -0.0162
 1817TIP3    H126942   6.157   0.383   5.203  0.0264  1.4889  0.1751
 1817TIP3    H226943   6.228   0.345   5.075 -0.9757  0.2254 -0.0266
 1818TIP3   OH226944   5.940   1.161  14.448  0.1158  0.1075 -0.5596
 1818TIP3    H126945   5.881   1.167  14.373  0.8964 -1.6866 -1.3955
 1818TIP3    H226946   6.022   1.128  14.411  0.6923 -0.2936  1.0047
 1819TIP3   OH226947   5.738   0.688   0.914  0.3951 -0.8394 -0.5930
 1819TIP3    H126948   5.660   0.744   0.908  0.7095 -0.2467  0.5074
 1819TIP3    H226949   5.810   0.745   0.889  0.7371 -0.6734  0.7005
 1820TIP3   OH226950   5.958   3.803  10.725  0.2637 -0.6577  0.2241
 1820TIP3    H126951   6.037   3.802  10.779  0.2098  0.9942  0.4012
 1820TIP3    H226952   5.969   3.731  10.664  1.6431 -0.8090  0.6280
 1821TIP3   OH226953   6.245   3.331   0.856 -0.4896  0.9260 -0.1202
 1821TIP3    H126954   6.324   3.285   0.885 -1.0794 -0.2144 -0.2975
 1821TIP3    H226955   6.202   3.357   0.938 -0.2971  0.9140 -0.0138
 1822TIP3   OH226956   5.407   0.499  16.135 -0.4190  0.4989 -0.1316
 1822TIP3    H126957   5.351   0.441  16.084  0.7600  0.7648 -1.8073
 1822TIP3    H226958   5.459   0.547  16.070  0.5083  1.5263  1.2874
 1823TIP3   OH226959   3.194   4.936   6.358 -0.7080  0.6244  0.3103
 1823TIP3    H126960   3.174   4.990   6.281 -0.0699 -0.3392 -0.5503
 1823TIP3    H226961   3.274   4.974   6.394  0.3991 -0.3977 -0.9698
 1824TIP3   OH226962   4.107   1.140   3.620  0.4695  0.2650 -0.6668
 1824TIP3    H126963   4.181   1.180   3.665 -0.5782  1.3368  0.1901
 1824TIP3    H226964   4.032   1.196   3.643 -0.7928 -1.3499 -0.6529
 1825TIP3   OH226965   1.699   1.266  16.242 -0.5181  0.1025 -0.1780
 1825TIP3    H126966   1.706   1.327  16.316 -2.0636  0.5615 -0.3586
 1825TIP3    H226967   1.623   1.297  16.193 -0.8919 -1.5162 -0.7036
 1826TIP3   OH226968   4.078   6.503  12.714 -0.2035  0.3413  0.2673
 1826TIP3    H126969   3.997   6.494  12.662  0.6270 -1.2368 -0.8345
 1826TIP3    H226970   4.048   6.531  12.800 -2.0982 -1.4607  0.2822
 1827TIP3   OH226971   4.637   6.135   3.026 -0.7087 -0.1801 -0.0959
 1827TIP3    H126972   4.608   6.202   3.088  0.4784  1.8432 -1.6018
 1827TIP3    H226973   4.624   6.174   2.940  2.1472 -0.9211 -0.9804
 1828TIP3   OH226974   6.248   1.254   2.972  0.7364  0.1454 -0.1511
 1828TIP3    H126975   6.259   1.262   3.067 -1.3231 -2.6257  0.4521
 1828TIP3    H226976   6.324   1.202   2.944  0.3891 -0.6609  0.3479
 1829TIP3   OH226977   2.729   4.744   2.652 -0.3967 -0.5466  0.4271
 1829TIP3    H126978   2.774   4.827   2.634  1.3168 -1.6803 -0.7844
 1829TIP3    H226979   2.761   4.719   2.739  1.0375 -1.1122 -0.2300
 1830TIP3   OH226980   2.432   5.385  17.158 -0.0776  0.0956 -0.2560
 1830TIP3    H126981   2.414   5.306  17.106 -0.0641  0.2017 -0.4251
 1830TIP3    H226982   2.424   5.356  17.249 -0.0285 -0.1098 -0.3171
 1831TIP3   OH226983   3.602   6.522   4.086  0.4945 -0.3603 -0.4936
 1831TIP3    H126984   3.646   6.527   4.171 -0.2863  0.2884 -0.1136
 1831TIP3    H226985   3.589   6.613   4.060  0.8905 -0.5561 -1.4016
 1832TIP3   OH226986   2.578   3.571  12.990 -0.6150  0.6873 -0.0475
 1832TIP3    H126987   2.609   3.557  13.080  0.8794  0.6710 -0.5424
 1832TIP3    H226988   2.492   3.528  12.988 -0.2497 -0.1632  1.1118
 1833TIP3   OH226989   2.068   0.327  14.511  0.4937  0.3897  0.5727
 1833TIP3    H126990   1.990   0.371  14.476  0.2679 -1.4910 -1.5535
 1833TIP3    H226991   2.037   0.281  14.589 -0.8828 -1.1895 -0.8193
 1834TIP3   OH226992   1.151   5.528  13.725 -0.1331 -0.3246 -0.1815
 1834TIP3    H126993   1.150   5.617  13.692 -1.2233 -0.5260 -0.7366
 1834TIP3    H226994   1.194   5.477  13.657 -1.2455 -0.5290 -0.7528
 1835TIP3   OH226995   1.647   6.486  14.562  0.7901  0.9637 -0.2536
 1835TIP3    H126996   1.648   6.434  14.482 -1.1212  2.0131 -1.0348
 1835TIP3    H226997   1.596   6.434  14.624  0.4829  1.0622 -0.4202
 1836TIP3   OH226998   0.096   5.175   0.553  0.0048 -0.0582 -0.0449
 1836TIP3    H126999   0.120   5.136   0.470 -0.6455  1.9466 -1.2480
 1836TIP3    H227000   0.077   5.101   0.610  0.0631 -1.4808 -1.7951
 1837TIP3   OH227001   3.677   0.575  11.791 -0.4571  0.1374 -0.1047
 1837TIP3    H127002   3.652   0.484  11.805  0.5794 -0.2515 -0.7041
 1837TIP3    H227003   3.769   0.579  11.816 -0.7758  1.2896  1.0071
 1838TIP3   OH227004   3.551   4.174  15.906 -0.1364  0.3714 -0.2138
 1838TIP3    H127005   3.645   4.176  15.884  0.0445 -0.9539  0.3448
 1838TIP3    H227006   3.516   4.102  15.853 -0.6913  0.3748  0.1476
 1839TIP3   OH227007   2.785   5.202  16.196  0.3527  0.2297  0.2391
 1839TIP3    H127008   2.787   5.172  16.286  0.6109 -0.2925  0.0637
 1839TIP3    H227009   2.699   5.243  16.185  0.3770  0.4222  0.7570
 1840TIP3   OH227010   1.824   3.399   4.131 -0.3858  0.3401  0.0713
 1840TIP3    H127011   1.799   3.423   4.042 -2.6890 -2.1482 -0.0878
 1840TIP3    H227012   1.898   3.340   4.120  0.7336  1.6867  0.0270
 1841TIP3   OH227013   3.766   0.286  14.728 -0.2112 -0.1221  0.0687
 1841TIP3    H127014   3.797   0.228  14.798 -1.7850 -0.7685  0.2743
 1841TIP3    H227015   3.806   0.371  14.747  1.7814 -1.0074  0.0169
 1842TIP3   OH227016   2.775   6.516   4.590 -0.1886  0.2203  0.3507
 1842TIP3    H127017   2.866   6.531   4.616  0.3439  1.2042 -1.7904
 1842TIP3    H227018   2.731   6.599   4.606 -0.3808  0.1548  0.1684
 1843TIP3   OH227019   6.302   4.857   6.399 -0.2963  0.5823  0.4833
 1843TIP3    H127020   6.318   4.790   6.465 -0.5880  0.4422  0.4106
 1843TIP3    H227021   6.306   4.940   6.447 -1.2125  0.4414  0.8089
 1844TIP3   OH227022   5.529   4.829  11.725 -0.4680 -0.2316  0.2076
 1844TIP3    H127023   5.602   4.891  11.728 -2.2273  2.0912 -1.4138
 1844TIP3    H227024   5.529   4.796  11.635 -2.0265  0.6659 -0.1542
 1845TIP3   OH227025   5.141   4.428  17.196 -0.2446 -0.4696  0.3476
 1845TIP3    H127026   5.049   4.402  17.185 -0.4926  0.8151 -1.0085
 1845TIP3    H227027   5.140   4.524  17.186  1.4557 -0.5828 -1.6173
 1846TIP3   OH227028   4.775   4.459  14.662 -0.0161  0.5671 -0.3216
 1846TIP3    H127029   4.818   4.482  14.579 -0.1043  1.2725 -0.1795
 1846TIP3    H227030   4.796   4.531  14.721 -0.4384  0.3553  0.0993
 1847TIP3   OH227031   1.572   4.814  16.964  0.2085  0.1926 -0.3915
 1847TIP3    H127032   1.532   4.896  16.933 -2.3164 -0.6043  0.5308
 1847TIP3    H227033   1.501   4.768  17.009  1.1069 -3.1905 -2.0917
 1848TIP3   OH227034   4.009   4.245   3.657 -0.6427  0.2359 -0.5179
 1848TIP3    H127035   4.035   4.152   3.656 -1.0064  0.0797  1.1153
 1848TIP3    H227036   4.083   4.291   3.617  0.6148 -0.5590  0.7983
 1849TIP3   OH227037   6.013   2.242  16.738 -0.3121 -0.0174  0.0956
 1849TIP3    H127038   5.982   2.321  16.782 -2.0427 -0.9161  0.6126
 1849TIP3    H227039   6.040   2.184  16.809 -0.3951 -0.4177 -0.1965
 1850TIP3   OH227040   4.762   3.053   3.775 -0.2835 -0.4661  0.2544
 1850TIP3    H127041   4.746   3.084   3.685  0.0973  0.8283  0.6188
 1850TIP3    H227042   4.698   2.983   3.787 -3.0294  1.8569  0.2610
 1851TIP3   OH227043   4.279   3.979  14.516 -0.0857 -0.1866  0.6246
 1851TIP3    H127044   4.310   3.888  14.520  0.0106 -0.1688  0.3156
 1851TIP3    H227045   4.332   4.025  14.581  2.0213  0.2729 -1.2750
 1852TIP3   OH227046   0.921   4.189  17.030 -0.7723  0.3311 -0.3985
 1852TIP3    H127047   0.997   4.140  17.060 -0.1059  1.1752 -0.6908
 1852TIP3    H227048   0.862   4.122  16.995  0.9681 -0.1471 -2.6655
 1853TIP3   OH227049   3.218   1.215   3.057 -0.4193 -0.2837 -0.0740
 1853TIP3    H127050   3.239   1.132   3.100  1.6043  0.2033 -0.0100
 1853TIP3    H227051   3.201   1.275   3.130 -0.1315 -0.2253 -0.0532
 1854TIP3   OH227052   3.304   6.588  15.871  0.0370  0.1339 -0.1754
 1854TIP3    H127053   3.321   6.634  15.953 -2.1408  0.2689  0.2427
 1854TIP3    H227054   3.233   6.636  15.830 -0.0791 -0.9472 -1.3122
 1855TIP3   OH227055   5.259   2.664   0.847  0.4880 -0.3582 -0.2490
 1855TIP3    H127056   5.219   2.577   0.844 -1.3330  0.4500 -2.2846
 1855TIP3    H227057   5.351   2.648   0.824  0.4246 -1.8251  0.3868
 1856TIP3   OH227058   0.115   0.588  16.795  0.2407  0.2175  0.0132
 1856TIP3    H127059   0.080   0.661  16.744 -0.5806 -0.3373 -0.2486
 1856TIP3    H227060   0.050   0.573  16.863  0.0821 -0.6540 -0.3134
 1857TIP3   OH227061   0.228   5.727  13.020 -0.1648  0.4694  0.0590
 1857TIP3    H127062   0.212   5.643  12.977 -2.3189  1.4326 -1.1437
 1857TIP3    H227063   0.248   5.787  12.948  1.1205  1.0735  0.8829
 1858TIP3   OH227064   1.486   4.028   4.866 -0.5203  0.3952 -0.1718
 1858TIP3    H127065   1.501   4.099   4.803  1.6398  0.4630  0.3369
 1858TIP3    H227066   1.570   3.983   4.871 -2.2104 -3.4924 -1.9198
 1859TIP3   OH227067   6.287   3.671  14.587 -0.4322  0.1972  0.2653
 1859TIP3    H127068   6.311   3.764  14.590 -2.4459  0.7419  0.6959
 1859TIP3    H227069   6.221   3.665  14.519 -0.1224 -0.9979  0.0485
 1860TIP3   OH227070   4.240   5.309  14.338 -0.1392  0.2681  0.5758
 1860TIP3    H127071   4.282   5.387  14.302 -3.0493  1.9026  0.4171
 1860TIP3    H227072   4.294   5.284  14.412  2.1275  1.0073 -0.7419
 1861TIP3   OH227073   4.144   0.572  11.789  0.2257  1.0102 -0.5422
 1861TIP3    H127074   4.094   0.654  11.793 -3.1178 -0.9090  2.4690
 1861TIP3    H227075   4.083   0.508  11.752  2.0459 -0.5709 -0.9529
 1862TIP3   OH227076   3.989   5.044   4.538 -0.5247  0.4862  0.3520
 1862TIP3    H127077   3.932   4.998   4.476  2.1574 -0.6172 -1.4791
 1862TIP3    H227078   4.035   5.109   4.485  0.1660  1.1010  1.6686
 1863TIP3   OH227079   2.716   1.855  16.958 -0.6207  0.4908 -0.2729
 1863TIP3    H127080   2.638   1.906  16.936 -1.5723 -1.3362 -1.3046
 1863TIP3    H227081   2.683   1.777  17.002  0.6783  0.0186 -0.0813
 1864TIP3   OH227082   3.009   2.882   0.645 -0.3209 -0.4194 -0.0677
 1864TIP3    H127083   2.953   2.833   0.706 -0.8919 -0.5206 -0.6615
 1864TIP3    H227084   3.002   2.834   0.563  2.6861 -1.9815  0.4227
 1865TIP3   OH227085   4.354   6.722  17.394  0.1639  0.4453 -0.1618
 1865TIP3    H127086   4.366   6.693  17.484  1.2963  1.1771 -0.0584
 1865TIP3    H227087   4.414   6.797  17.385  0.1582  0.2980 -1.5521
 1866TIP3   OH227088   3.078   1.294   3.765  0.1703 -0.3721 -0.3243
 1866TIP3    H127089   3.047   1.282   3.855  0.4618 -1.2844 -0.3325
 1866TIP3    H227090   3.000   1.322   3.717 -0.0598 -0.1818  0.1483
 1867TIP3   OH227091   4.465   2.001   0.482  0.5146 -0.1247  0.0565
 1867TIP3    H127092   4.479   1.954   0.400  2.7927 -0.1269  0.3705
 1867TIP3    H227093   4.536   2.065   0.485  0.7648 -0.4110  2.1890
 1868TIP3   OH227094   5.816   1.744   1.490 -0.2427 -0.1298 -0.5956
 1868TIP3    H127095   5.778   1.696   1.564 -0.5678 -1.5765 -1.6577
 1868TIP3    H227096   5.755   1.816   1.474 -0.4697 -0.1403  0.1915
 1869TIP3   OH227097   5.811   4.192  13.150  0.2150 -0.1789  0.0064
 1869TIP3    H127098   5.797   4.204  13.244 -0.1800  2.0470 -0.2914
 1869TIP3    H227099   5.724   4.179  13.114 -0.0897  2.4423 -0.4222
 1870TIP3   OH227100   0.003   3.890   3.008  0.0325  0.1081  0.4732
 1870TIP3    H127101  -0.055   3.869   2.935 -0.6164 -0.1282  1.0472
 1870TIP3    H227102   0.015   3.807   3.055  0.9275  0.1254  0.3073
 1871TIP3   OH227103   3.441   5.529   2.757 -0.7307  0.0051  0.4353
 1871TIP3    H127104   3.504   5.549   2.688 -1.6465  0.7042 -0.2335
 1871TIP3    H227105   3.468   5.444   2.790 -0.6964 -0.7116 -1.3159
 1872TIP3   OH227106   2.836   0.948   6.257 -0.1065  0.2242  0.3516
 1872TIP3    H127107   2.765   1.013   6.259 -0.0630  0.3048 -0.4052
 1872TIP3    H227108   2.803   0.878   6.200  0.0682 -0.1604  0.7153
 1873TIP3   OH227109   2.736   3.142   4.268  0.1174 -0.4996  0.1779
 1873TIP3    H127110   2.742   3.047   4.258 -1.8894 -0.5470 -1.1188
 1873TIP3    H227111   2.772   3.160   4.355  0.2053 -2.4680  0.5817
 1874TIP3   OH227112   1.741   2.961  13.136 -0.5460 -0.2568 -0.5664
 1874TIP3    H127113   1.731   2.962  13.231 -1.9924 -2.9398 -0.5944
 1874TIP3    H227114   1.682   3.030  13.105  1.4564  2.0611  0.4717
 1875TIP3   OH227115   5.741   3.176  11.384 -0.1027 -0.2871  0.3540
 1875TIP3    H127116   5.827   3.215  11.365 -0.1954 -0.0219  0.4634
 1875TIP3    H227117   5.743   3.160  11.479 -0.9793  1.7928  0.8051
 1876TIP3   OH227118   4.022   3.208  12.972  0.9071  0.0290  0.2826
 1876TIP3    H127119   4.026   3.197  12.877  0.0904 -1.5860  0.3856
 1876TIP3    H227120   4.100   3.258  12.994  0.7385  1.0604 -1.3125
 1877TIP3   OH227121   1.816   6.748  13.971 -0.1375  0.1162 -1.0790
 1877TIP3    H127122   1.736   6.785  14.009  0.1804 -0.6766  0.4349
 1877TIP3    H227123   1.875   6.823  13.962  0.2319  0.1957  1.2408
 1878TIP3   OH227124   5.667   3.905   5.086 -0.6989 -0.2836 -0.1083
 1878TIP3    H127125   5.726   3.845   5.040  0.2554  1.4694 -1.3040
 1878TIP3    H227126   5.597   3.923   5.022 -0.5835  0.4254 -0.0429
 1879TIP3   OH227127   3.993   6.346   4.655 -0.5955  0.6102  0.4744
 1879TIP3    H127128   3.908   6.364   4.616 -0.0690 -0.4960 -1.2999
 1879TIP3    H227129   3.977   6.273   4.714 -0.5366 -1.1197 -1.5423
 1880TIP3   OH227130   5.270   0.056   3.636  0.2086 -0.3186  0.5290
 1880TIP3    H127131   5.256  -0.009   3.705 -1.3099 -0.6735 -0.0632
 1880TIP3    H227132   5.328   0.012   3.573 -1.6909 -1.6115 -0.4339
 1881TIP3   OH227133   4.068   4.719  13.655 -0.2504 -0.3323 -0.1791
 1881TIP3    H127134   4.076   4.809  13.622 -0.9728 -0.6025 -1.1283
 1881TIP3    H227135   3.993   4.722  13.714  0.2440 -0.1333  0.4447
 1882TIP3   OH227136   5.014   5.504  14.105  0.0492 -0.1631 -0.4416
 1882TIP3    H127137   5.020   5.463  14.019  2.5960 -1.6211  0.3275
 1882TIP3    H227138   4.940   5.459  14.147 -1.9871  1.3714 -2.1573
 1883TIP3   OH227139   0.120   2.192   2.042 -0.5677  0.5992  0.3841
 1883TIP3    H127140   0.052   2.248   2.004 -2.0525 -3.2679 -3.5281
 1883TIP3    H227141   0.071   2.125   2.090  0.6454 -0.3957  0.2878
 1884TIP3   OH227142   1.897   4.318  14.076 -0.6865 -0.3472 -0.2323
 1884TIP3    H127143   1.836   4.391  14.076 -1.4534 -0.9789  0.2571
 1884TIP3    H227144   1.850   4.246  14.117  0.0032 -1.1689 -0.8242
 1885TIP3   OH227145   2.396   6.198  13.550  0.1728  0.6429  0.2414
 1885TIP3    H127146   2.457   6.141  13.597  2.2724  2.2296 -0.3575
 1885TIP3    H227147   2.420   6.287  13.579 -1.7032  1.3565 -0.2522
 1886TIP3   OH227148   1.912   1.279   4.349 -0.0021 -0.2533 -0.0385
 1886TIP3    H127149   1.844   1.226   4.309  0.8762 -2.7038  1.4547
 1886TIP3    H227150   1.868   1.325   4.420 -0.5129 -0.0433 -0.4841
 1887TIP3   OH227151   0.960   2.684  14.682  0.8962  0.2592 -0.3408
 1887TIP3    H127152   0.893   2.681  14.614  0.0536  0.4997  0.4555
 1887TIP3    H227153   0.969   2.777  14.704  2.5554  0.4070 -1.4337
 1888TIP3   OH227154   5.134   6.604  12.107  0.2336  0.0451 -0.0276
 1888TIP3    H127155   5.213   6.658  12.103  1.0444 -1.1157 -0.3174
 1888TIP3    H227156   5.157   6.533  12.167 -0.2556 -0.8103 -0.8403
 1889TIP3   OH227157   2.947   3.163  13.590  0.2262 -0.0525  1.0163
 1889TIP3    H127158   3.032   3.199  13.567  0.7259 -1.3473  0.7300
 1889TIP3    H227159   2.899   3.236  13.630  1.0286  0.9978  0.0995
 1890TIP3   OH227160   4.251   2.987  16.876  0.2899  0.1966  0.6191
 1890TIP3    H127161   4.270   2.958  16.965 -1.0966  2.3568  1.7078
 1890TIP3    H227162   4.164   3.027  16.882 -1.2338 -2.3011 -2.4007
 1891TIP3   OH227163   6.004   1.846   3.823  0.1425 -1.1520 -0.2815
 1891TIP3    H127164   5.932   1.841   3.761  0.2442  2.0502 -0.8278
 1891TIP3    H227165   6.063   1.911   3.785 -0.5267  2.2009  3.7657
 1892TIP3   OH227166   4.476   0.754  12.182 -0.2098 -0.8533  0.3897
 1892TIP3    H127167   4.508   0.835  12.220  0.2417 -1.0337  0.4011
 1892TIP3    H227168   4.488   0.766  12.087  0.3636 -1.1152  0.4253
 1893TIP3   OH227169   3.921   1.202  16.225  0.1523  0.2224  0.1897
 1893TIP3    H127170   3.880   1.258  16.291  2.2353  0.2890  1.5074
 1893TIP3    H227171   4.009   1.239  16.213 -0.5173  1.0394 -3.6731
 1894TIP3   OH227172   4.280   5.023   5.845  0.1326 -0.4568  0.1788
 1894TIP3    H127173   4.320   5.000   5.928 -1.3630 -1.4977  0.6324
 1894TIP3    H227174   4.273   4.941   5.797 -0.4992 -0.1331 -0.3092
 1895TIP3   OH227175   3.385   2.413  14.071 -0.0245  0.6088  0.0919
 1895TIP3    H127176   3.317   2.450  14.127 -0.6229 -1.4796  0.8470
 1895TIP3    H227177   3.463   2.464  14.090 -0.4356  0.5361  2.1944
 1896TIP3   OH227178   4.454   5.152   3.479  0.5431 -0.2597 -0.5037
 1896TIP3    H127179   4.533   5.110   3.513  0.9912  0.6378 -0.4199
 1896TIP3    H227180   4.472   5.166   3.386  1.4641  2.0413 -0.0562
 1897TIP3   OH227181   2.053   3.069   3.082  0.5885  0.4013  0.3915
 1897TIP3    H127182   2.115   3.140   3.094 -1.1614  1.9325  0.8180
 1897TIP3    H227183   2.052   3.024   3.167  0.6476  0.7624  0.5860
 1898TIP3   OH227184   1.407   1.703  12.901  0.7675 -0.3928  0.6529
 1898TIP3    H127185   1.497   1.734  12.908  0.3620  0.6334  1.7435
 1898TIP3    H227186   1.354   1.773  12.940 -0.6589 -0.2438 -1.3695
 1899TIP3   OH227187   3.148   1.618  15.580 -0.2400  0.0980 -0.4159
 1899TIP3    H127188   3.173   1.696  15.530  0.2944 -0.1294 -0.5090
 1899TIP3    H227189   3.196   1.547  15.539 -0.7876 -0.2974 -0.3815
 1900TIP3   OH227190   5.214   3.476  17.483  0.3043  0.3044 -0.6265
 1900TIP3    H127191   5.300   3.436  17.474  0.0173 -0.4088 -0.2574
 1900TIP3    H227192   5.232   3.566  17.511  0.9044 -0.0937  0.2870
 1901TIP3   OH227193   1.424   1.666   3.601 -0.0358  0.6204 -0.2859
 1901TIP3    H127194   1.449   1.686   3.511  0.6757  0.0719 -0.2167
 1901TIP3    H227195   1.409   1.751   3.641 -2.0575  0.8594 -1.3777
 1902TIP3   OH227196   3.921   1.351  13.847 -0.5796  0.1249  0.2049
 1902TIP3    H127197   3.916   1.277  13.786 -0.1904 -0.5051  0.9150
 1902TIP3    H227198   3.988   1.408  13.810 -0.2284 -0.3351  0.1181
 1903TIP3   OH227199   0.693   3.561   4.525  0.6207 -0.1838  0.0073
 1903TIP3    H127200   0.728   3.591   4.441  1.1781 -0.2386  0.2127
 1903TIP3    H227201   0.769   3.564   4.584 -0.1941  1.7725  1.0312
 1904TIP3   OH227202   4.196   6.663  15.399 -0.6394 -0.2655  0.3033
 1904TIP3    H127203   4.231   6.657  15.488 -1.1284  4.0584  1.0031
 1904TIP3    H227204   4.102   6.681  15.411 -0.7876 -0.0261 -1.0610
 1905TIP3   OH227205   3.050   3.237   0.004  0.3912  0.2060  0.4152
 1905TIP3    H127206   3.009   3.234   0.090 -2.2438 -1.9788 -0.7793
 1905TIP3    H227207   3.078   3.147  -0.013 -0.1765  0.3349 -1.4309
 1906TIP3   OH227208   0.609   2.229  16.475  0.4961 -0.6168 -0.0862
 1906TIP3    H127209   0.526   2.276  16.482  1.0892  0.5167 -0.3299
 1906TIP3    H227210   0.675   2.298  16.477  1.4543 -1.5245  0.4503
 1907TIP3   OH227211   2.682   2.156   5.291 -0.1444  0.3969  0.6800
 1907TIP3    H127212   2.589   2.174   5.305 -0.1117  1.3434 -0.1714
 1907TIP3    H227213   2.690   2.150   5.195  0.4301 -1.0901  0.8018
 1908TIP3   OH227214   6.193   6.509   4.731  0.1218  0.0068 -0.3742
 1908TIP3    H127215   6.116   6.468   4.772 -1.3041  1.9670 -0.9127
 1908TIP3    H227216   6.184   6.489   4.638  0.8580 -0.6615 -0.3003
 1909TIP3   OH227217   0.965   5.442   0.829 -0.4704 -0.6937  0.1635
 1909TIP3    H127218   0.870   5.444   0.839 -0.6488  1.5904 -1.3480
 1909TIP3    H227219   0.981   5.383   0.755 -0.7063 -0.8734  0.2543
 1910TIP3   OH227220   1.199   5.577  17.468 -0.1094  0.0401  0.0507
 1910TIP3    H127221   1.161   5.597  17.382  0.0060 -1.7529 -0.4542
 1910TIP3    H227222   1.191   5.659  17.517 -0.8633  0.8884 -1.4131
 1911TIP3   OH227223   1.003   4.290   4.618 -0.0836  0.1872 -0.3861
 1911TIP3    H127224   1.044   4.376   4.619  0.5687 -0.0436  2.4622
 1911TIP3    H227225   0.910   4.308   4.605  0.0569  1.3232  0.0839
 1912TIP3   OH227226   4.664   6.769  14.333 -0.1280 -0.1758  0.5790
 1912TIP3    H127227   4.683   6.683  14.295  0.3380 -0.7084  1.9428
 1912TIP3    H227228   4.606   6.750  14.407 -0.5411  0.7496  0.5018
 1913TIP3   OH227229   1.520   4.733   4.819  0.0521 -0.2375  0.2555
 1913TIP3    H127230   1.535   4.659   4.877  2.0716  0.5924  0.9066
 1913TIP3    H227231   1.595   4.731   4.759 -0.3892  0.7069 -0.3471
 1914TIP3   OH227232   6.687   1.454   1.462 -0.2724  0.0641 -0.1318
 1914TIP3    H127233   6.777   1.457   1.429 -0.0583  0.9351  0.4747
 1914TIP3    H227234   6.691   1.500   1.547 -1.0405 -1.0170  0.5145
 1915TIP3   OH227235   6.071   1.673   4.001  0.8992 -0.1195  0.7976
 1915TIP3    H127236   6.038   1.737   3.937  0.3821  0.3426  1.5010
 1915TIP3    H227237   6.105   1.727   4.073 -3.4142 -0.4187  3.4665
 1916TIP3   OH227238   2.745   6.232  13.363 -0.2987 -0.1301  0.4723
 1916TIP3    H127239   2.698   6.315  13.367  0.6948  0.4364  0.7586
 1916TIP3    H227240   2.837   6.257  13.358 -0.0614 -1.2037 -0.8590
 1917TIP3   OH227241   5.095   0.076   4.714 -0.1383 -0.0429  0.4335
 1917TIP3    H127242   5.081   0.041   4.802 -2.1791 -0.7817 -0.1453
 1917TIP3    H227243   5.017   0.051   4.665  1.3830 -0.5559 -1.8945
 1918TIP3   OH227244   1.480   1.046   2.601  0.0226  0.0857 -0.1179
 1918TIP3    H127245   1.569   1.043   2.635  1.2694 -0.2245 -3.1190
 1918TIP3    H227246   1.425   1.018   2.674  2.5667 -1.6087  1.2795
 1919TIP3   OH227247   0.126   1.198   3.139  0.4377  0.2447  0.5851
 1919TIP3    H127248   0.127   1.146   3.219 -1.3066  0.4956  0.8075
 1919TIP3    H227249   0.096   1.285   3.168 -0.5821  0.2307 -0.3757
 1920TIP3   OH227250   5.939   1.657  16.869 -0.0840  0.4772  0.0631
 1920TIP3    H127251   5.946   1.667  16.774 -0.5316 -1.9973 -0.3092
 1920TIP3    H227252   6.023   1.618  16.895 -0.7922 -1.0132  0.2621
 1921TIP3   OH227253   1.134   5.561  15.861  0.0914  0.0014 -0.4543
 1921TIP3    H127254   1.186   5.637  15.887 -0.3211 -0.2127  1.1391
 1921TIP3    H227255   1.099   5.527  15.944 -2.1490 -0.1660 -1.3872
 1922TIP3   OH227256   2.176   6.294   4.076 -0.0861 -0.4066 -0.1553
 1922TIP3    H127257   2.221   6.284   4.160 -1.3261  0.2125  0.6155
 1922TIP3    H227258   2.123   6.215   4.067  0.5351 -0.7724 -0.6833
 1923TIP3   OH227259   5.792   5.388   6.194  1.2151 -0.3336 -0.5769
 1923TIP3    H127260   5.843   5.408   6.273  0.0823 -0.4453  0.2081
 1923TIP3    H227261   5.796   5.469   6.143 -0.9172  1.0274  1.2328
 1924TIP3   OH227262   4.804   5.389   1.728  0.3715 -0.1921  0.1961
 1924TIP3    H127263   4.719   5.395   1.685 -0.1394  1.1601  1.2829
 1924TIP3    H227264   4.858   5.338   1.669 -0.8769 -0.1313 -1.0470
 1925TIP3   OH227265   6.360   1.332  13.921 -0.4908  0.5729  0.2872
 1925TIP3    H127266   6.356   1.428  13.919  0.4674  0.6310  0.6747
 1925TIP3    H227267   6.337   1.309  14.011 -0.1101  0.4748  0.3597
 1926TIP3   OH227268   0.349   0.860   0.986  0.7134  0.1938  0.3583
 1926TIP3    H127269   0.376   0.875   1.077 -0.2112  0.9197  0.5298
 1926TIP3    H227270   0.346   0.765   0.977  0.9642  0.1157  1.0359
 1927TIP3   OH227271   3.494   1.953  15.064  0.1229 -0.1280  0.1848
 1927TIP3    H127272   3.563   2.005  15.105  0.5248 -0.6647  0.2022
 1927TIP3    H227273   3.515   1.863  15.089 -0.5810 -0.2949  0.1833
 1928TIP3   OH227274   1.935   1.032  17.188  0.4546 -0.2973  0.0573
 1928TIP3    H127275   1.956   0.939  17.177 -0.6449 -0.3931 -1.6376
 1928TIP3    H227276   1.840   1.034  17.194  0.5739  0.4630  3.5582
 1929TIP3   OH227277   4.373   3.922  15.714  0.9402 -0.0491 -0.1422
 1929TIP3    H127278   4.343   3.845  15.664 -0.3416 -0.0960  0.6419
 1929TIP3    H227279   4.410   3.980  15.648 -0.4483 -0.2303 -1.1307
 1930TIP3   OH227280   2.341   0.030  12.434 -0.0184  0.0168 -0.5183
 1930TIP3    H127281   2.281  -0.017  12.491  1.5074 -0.8464  0.4381
 1930TIP3    H227282   2.389   0.088  12.492  0.8407 -0.1199 -1.0744
 1931TIP3   OH227283   5.165   1.922  13.969  0.6406 -0.2047 -0.0894
 1931TIP3    H127284   5.247   1.955  13.931  0.9166  0.2216  0.8349
 1931TIP3    H227285   5.134   1.857  13.906  2.0837 -0.9328 -0.1079
 1932TIP3   OH227286   6.674   2.984   1.577 -0.1954  0.0379  0.0511
 1932TIP3    H127287   6.759   2.962   1.539 -1.0798 -1.2355 -1.3119
 1932TIP3    H227288   6.681   3.077   1.598  1.2581  0.1563 -0.8038
 1933TIP3   OH227289   5.468   1.563  13.126 -0.4889  0.6207  0.0682
 1933TIP3    H127290   5.486   1.647  13.084  1.8941  0.1154 -0.0925
 1933TIP3    H227291   5.436   1.586  13.213 -2.1652  1.6515 -0.7656
 1934TIP3   OH227292   1.968   2.327  16.949 -0.6489 -0.0298  0.4203
 1934TIP3    H127293   2.046   2.319  16.895 -2.2994  1.1649 -2.3532
 1934TIP3    H227294   1.978   2.259  17.017  1.9504 -1.0254 -0.8386
 1935TIP3   OH227295   5.834   0.558   3.167  0.1725 -0.0396 -0.0204
 1935TIP3    H127296   5.909   0.510   3.203  0.2072  0.7850  1.0646
 1935TIP3    H227297   5.873   0.620   3.105  0.3854  0.2657  0.4093
 1936TIP3   OH227298   4.192   4.089   4.066 -0.5200  0.0808 -0.0289
 1936TIP3    H127299   4.186   4.136   4.150 -4.2119  2.6893 -1.4916
 1936TIP3    H227300   4.242   4.148   4.009 -0.9099 -0.0795 -0.5417
 1937TIP3   OH227301   0.161   1.555   1.066  0.4906 -0.4529 -0.3020
 1937TIP3    H127302   0.120   1.470   1.079  1.3079 -1.2684 -2.6717
 1937TIP3    H227303   0.235   1.556   1.128 -1.0998 -0.2553  1.7087
 1938TIP3   OH227304   2.002   5.720   5.263 -0.1505  0.3858 -0.0091
 1938TIP3    H127305   2.039   5.640   5.227  1.6559  1.0511  0.2957
 1938TIP3    H227306   1.981   5.774   5.187  1.9844  1.0577 -0.1652
 1939TIP3   OH227307   1.444   4.533  12.383  0.6244 -0.1701 -0.0968
 1939TIP3    H127308   1.436   4.556  12.476  4.2347 -0.2717  0.3660
 1939TIP3    H227309   1.412   4.443  12.378  1.2395 -0.4954  1.2619
 1940TIP3   OH227310   0.112   1.074  14.420  0.4113 -0.4991 -0.4269
 1940TIP3    H127311   0.183   1.054  14.482  0.7192 -0.0778 -0.6390
 1940TIP3    H227312   0.094   0.991  14.376  0.5121 -0.6947 -0.1010
 1941TIP3   OH227313   3.099   2.569   0.580  0.1693 -0.3861  0.0682
 1941TIP3    H127314   3.094   2.478   0.553  0.9681 -0.2009 -0.7494
 1941TIP3    H227315   3.126   2.565   0.672 -1.4206 -0.9917  0.5454
 1942TIP3   OH227316   4.823   2.719  14.780 -0.8649  0.4736 -0.0876
 1942TIP3    H127317   4.796   2.808  14.759 -3.4254 -0.4418 -1.0979
 1942TIP3    H227318   4.750   2.664  14.751  1.2299 -2.1142 -0.9414
 1943TIP3   OH227319   6.378   1.688   1.051 -0.2516  0.5303 -0.7166
 1943TIP3    H127320   6.363   1.682   0.956 -1.1428 -1.9647 -0.4677
 1943TIP3    H227321   6.449   1.627   1.068  1.1341  2.2756  0.0402
 1944TIP3   OH227322   1.015   1.668  14.851 -0.2829 -0.8695  0.6144
 1944TIP3    H127323   1.079   1.729  14.815 -1.5346  0.9747  1.4030
 1944TIP3    H227324   1.038   1.662  14.944 -1.6842  0.4622  1.0918
 1945TIP3   OH227325   6.779   0.595  14.646  0.2496 -0.1340 -0.3017
 1945TIP3    H127326   6.834   0.525  14.610 -0.4531 -1.8837  1.7874
 1945TIP3    H227327   6.801   0.597  14.739 -2.4587 -0.2473  0.4279
 1946TIP3   OH227328   3.650   1.849  17.046  0.0648  0.3964  0.3008
 1946TIP3    H127329   3.656   1.770  17.099 -2.0106 -1.6716 -2.2470
 1946TIP3    H227330   3.592   1.907  17.096  0.6928 -0.1450  1.6967
 1947TIP3   OH227331   5.114   4.744   2.895  0.2847  0.0664 -0.0100
 1947TIP3    H127332   5.059   4.674   2.931  0.8854 -0.2281  0.3506
 1947TIP3    H227333   5.055   4.795   2.840 -0.4781  0.0845  0.8023
 1948TIP3   OH227334   5.535   6.246   1.897 -0.6412  0.3910 -0.0843
 1948TIP3    H127335   5.608   6.221   1.841 -0.5680  1.3303 -0.4275
 1948TIP3    H227336   5.507   6.165   1.939  1.2062  0.1639  0.7913
 1949TIP3   OH227337   3.278   3.331   3.544  0.0760  0.1245  0.0699
 1949TIP3    H127338   3.223   3.409   3.535 -1.7689 -1.1055  0.2384
 1949TIP3    H227339   3.219   3.258   3.526  1.7528 -1.2521 -0.0499
 1950TIP3   OH227340   2.035   5.688  11.508 -0.0982  0.0705  0.2899
 1950TIP3    H127341   2.103   5.636  11.550  0.4567 -1.4331 -2.2533
 1950TIP3    H227342   2.084   5.755  11.459 -0.4792 -0.3863 -0.7334
 1951TIP3   OH227343   0.289   2.330   3.274 -0.1804 -0.3858 -0.0714
 1951TIP3    H127344   0.351   2.401   3.256  1.9740 -2.0282  0.4417
 1951TIP3    H227345   0.249   2.311   3.190  0.5480  0.2317 -0.5708
 1952TIP3   OH227346   1.063   1.763   1.544 -0.0692  0.1163 -0.2670
 1952TIP3    H127347   1.008   1.816   1.602 -1.4926 -1.1566 -0.4021
 1952TIP3    H227348   1.147   1.809   1.543 -0.4640  0.9767  1.6146
 1953TIP3   OH227349   3.913   2.465  13.889 -0.3039 -0.4545  0.6101
 1953TIP3    H127350   3.910   2.430  13.978 -2.1290 -1.5850  0.1589
 1953TIP3    H227351   3.869   2.550  13.896  1.4661  0.4548  1.1512
 1954TIP3   OH227352   4.346   0.217   2.336  0.4117  0.5127  0.3428
 1954TIP3    H127353   4.407   0.260   2.276  2.0201 -0.5530  1.1674
 1954TIP3    H227354   4.363   0.124   2.326 -1.2852  0.1511  0.4214
 1955TIP3   OH227355   0.621   4.958   4.851  0.0011 -0.3394  0.0389
 1955TIP3    H127356   0.714   4.949   4.830  0.2531 -0.4060  1.1001
 1955TIP3    H227357   0.586   4.869   4.849 -0.0473 -0.3112 -0.3844
 1956TIP3   OH227358   3.297   1.807   6.045 -0.0072 -0.3181 -0.4294
 1956TIP3    H127359   3.368   1.867   6.069 -0.0859  0.2594 -1.5372
 1956TIP3    H227360   3.223   1.865   6.026 -1.2121 -0.9620  1.9230
 1957TIP3   OH227361   5.307   6.068   3.231  0.6164  0.6849  0.2555
 1957TIP3    H127362   5.318   6.132   3.160 -2.4679  0.7822 -0.3010
 1957TIP3    H227363   5.346   6.110   3.307  0.5536  2.3020 -0.5557
 1958TIP3   OH227364   3.624   4.390   3.245  0.3200 -0.4860 -0.1174
 1958TIP3    H127365   3.657   4.300   3.249 -0.2606 -0.6739  1.3986
 1958TIP3    H227366   3.636   4.423   3.334 -1.4579  0.1903 -0.0928
 1959TIP3   OH227367   1.648   4.505   3.766 -0.5374 -0.8174 -0.4974
 1959TIP3    H127368   1.560   4.513   3.804 -0.0006 -0.5102  0.7131
 1959TIP3    H227369   1.705   4.549   3.828  0.4876 -1.0147 -1.2764
 1960TIP3   OH227370   3.094   4.111   6.085  0.0479  0.1830  0.4993
 1960TIP3    H127371   3.186   4.085   6.089  0.1028  0.5309  2.3289
 1960TIP3    H227372   3.045   4.028   6.086  0.3057 -0.0377 -1.3124
 1961TIP3   OH227373   5.155   1.538  13.052 -0.2202  0.1233  0.0236
 1961TIP3    H127374   5.095   1.547  12.979  0.4672 -2.0072 -0.8875
 1961TIP3    H227375   5.214   1.613  13.044 -0.8456  0.5301 -0.9237
 1962TIP3   OH227376   5.214   1.438   3.313  0.3014 -0.1164  0.0247
 1962TIP3    H127377   5.231   1.532   3.318 -0.1239 -0.0355 -0.0221
 1962TIP3    H227378   5.217   1.418   3.219 -0.3129 -0.0133 -0.0216
 1963TIP3   OH227379   4.645   6.177  15.174 -0.0990  0.0379 -0.1878
 1963TIP3    H127380   4.603   6.251  15.129  0.7936 -0.3201 -1.7070
 1963TIP3    H227381   4.640   6.198  15.267  0.8036  2.4072 -0.6049
 1964TIP3   OH227382   3.727   4.906   3.288  0.2887 -0.0066  0.7368
 1964TIP3    H127383   3.711   4.824   3.242  0.5648  0.4035 -0.1052
 1964TIP3    H227384   3.652   4.915   3.347 -0.2763 -0.3423  0.0898
 1965TIP3   OH227385   3.868   6.541  14.159 -0.2681 -0.0631  0.1315
 1965TIP3    H127386   3.905   6.527  14.246  0.1929 -0.4059 -0.1175
 1965TIP3    H227387   3.789   6.593  14.175 -1.7048 -2.3287  1.0674
 1966TIP3   OH227388   1.457   3.238   4.514 -0.5902  0.3273  0.1630
 1966TIP3    H127389   1.384   3.294   4.490  0.3444  1.2575 -0.6167
 1966TIP3    H227390   1.481   3.193   4.433  1.0092  1.6338 -0.1672
 1967TIP3   OH227391   0.799   1.723  15.175 -0.0081  0.0513 -0.2291
 1967TIP3    H127392   0.845   1.640  15.188  1.7148  0.6762 -1.7454
 1967TIP3    H227393   0.825   1.776  15.250  0.4310 -0.1664 -0.2194
 1968TIP3   OH227394   4.392   4.771   0.571  0.3223 -0.1183 -0.1427
 1968TIP3    H127395   4.306   4.808   0.553  0.5927  0.3593 -0.5048
 1968TIP3    H227396   4.427   4.823   0.643  0.5266  0.0575 -0.3634
 1969TIP3   OH227397   4.802   5.318   0.073 -0.1655 -0.1905  0.5720
 1969TIP3    H127398   4.754   5.384   0.023 -0.7402  1.0388  2.6083
 1969TIP3    H227399   4.777   5.235   0.034  0.6881  0.7260 -2.1818
 1970TIP3   OH227400   0.944   5.075   5.111 -0.5112 -0.6666  0.0207
 1970TIP3    H127401   0.868   5.029   5.074  0.2458 -1.8159 -0.1369
 1970TIP3    H227402   0.984   5.119   5.036 -1.4013  0.5302  0.2189
 1971TIP3   OH227403   5.982   0.072  14.271 -0.1446  0.0450 -0.0469
 1971TIP3    H127404   6.009  -0.019  14.286  0.0499  0.1801  0.4432
 1971TIP3    H227405   6.021   0.121  14.343  0.8635  0.7368 -1.0255
 1972TIP3   OH227406   5.133   5.915   4.696  0.0742 -0.1302 -0.2228
 1972TIP3    H127407   5.203   5.854   4.673 -1.0120 -1.0054 -1.2900
 1972TIP3    H227408   5.141   5.986   4.633  1.7601  1.2690  1.4245
 1973TIP3   OH227409   1.509   1.661  11.493  0.4658  0.0044  0.1756
 1973TIP3    H127410   1.596   1.627  11.514  0.7364 -0.0378 -0.9347
 1973TIP3    H227411   1.472   1.596  11.432  0.1840  0.6813 -0.3844
 1974TIP3   OH227412   4.717   3.881  13.039  0.5512 -0.5916 -0.1375
 1974TIP3    H127413   4.777   3.930  13.095  1.2673 -2.5317  0.9170
 1974TIP3    H227414   4.631   3.922  13.053  0.9299 -0.2936  1.5124
 1975TIP3   OH227415   0.383   2.268  16.992  0.0857 -0.2628 -0.4354
 1975TIP3    H127416   0.454   2.330  17.008  0.4479 -0.8128  0.1258
 1975TIP3    H227417   0.356   2.285  16.901  0.7707  0.1046 -0.5761
 1976TIP3   OH227418   6.254   6.120  15.658  0.0591  0.2017  0.3096
 1976TIP3    H127419   6.197   6.047  15.635  0.2531 -0.1267  0.8531
 1976TIP3    H227420   6.333   6.079  15.692  0.6639  0.6579 -0.5141
 1977TIP3   OH227421   3.964   5.356  14.764 -0.4924  0.0803  0.3887
 1977TIP3    H127422   3.969   5.345  14.669  0.2565  3.5501 -0.1272
 1977TIP3    H227423   4.056   5.361  14.792 -0.6406 -2.6164  1.6662
 1978TIP3   OH227424   2.882   6.516   0.498 -0.2801 -0.2889 -0.5351
 1978TIP3    H127425   2.812   6.516   0.433 -0.7122 -0.9028 -0.0813
 1978TIP3    H227426   2.850   6.573   0.568  0.6878  1.3535 -1.3572
 1979TIP3   OH227427   1.200   4.040  16.657  0.4071 -0.0987 -0.4317
 1979TIP3    H127428   1.222   4.129  16.684 -0.0949 -0.0095 -0.3018
 1979TIP3    H227429   1.213   4.040  16.562  0.3548  0.1321 -0.4405
 1980TIP3   OH227430   6.010   2.059  14.753 -0.3014  0.2730 -0.1977
 1980TIP3    H127431   5.934   2.062  14.695 -0.6847  0.2634  0.2984
 1980TIP3    H227432   6.078   2.108  14.706 -0.0451 -1.2042 -1.4346
 1981TIP3   OH227433   5.410   3.656   5.014  0.5581  0.7459 -0.7576
 1981TIP3    H127434   5.495   3.613   5.006 -0.1284 -0.6396 -1.1332
 1981TIP3    H227435   5.355   3.590   5.057 -0.9748  0.5968 -2.8178
 1982TIP3   OH227436   4.249   3.903   3.495 -0.3778 -0.0509 -0.3638
 1982TIP3    H127437   4.265   3.919   3.401 -1.4216 -0.0959 -0.5559
 1982TIP3    H227438   4.166   3.855   3.497  0.2797 -1.2012  0.5122
 1983TIP3   OH227439   3.624   3.534  14.455 -0.0485  0.0855  0.4063
 1983TIP3    H127440   3.643   3.615  14.407  0.7618 -0.6069 -0.4884
 1983TIP3    H227441   3.674   3.542  14.536 -0.8816  0.9721  0.8472
 1984TIP3   OH227442   0.778   6.721   3.879 -0.2985  0.2283  0.1799
 1984TIP3    H127443   0.822   6.758   3.956  1.1554  0.5038 -0.7543
 1984TIP3    H227444   0.835   6.649   3.851 -1.5723 -0.8267  0.2054
 1985TIP3   OH227445   6.549   5.552  11.365  0.1000 -0.3366 -0.2205
 1985TIP3    H127446   6.637   5.564  11.330  0.9127 -0.2119  1.7410
 1985TIP3    H227447   6.534   5.458  11.363  1.2887 -0.6186  1.6210
 1986TIP3   OH227448   1.218   2.607   5.403  0.2955 -0.1558 -0.1186
 1986TIP3    H127449   1.158   2.609   5.329  0.4772  0.2786 -0.2613
 1986TIP3    H227450   1.280   2.537   5.382  1.4614  1.1456 -1.2892
 1987TIP3   OH227451   6.665   2.407  12.488  0.2248  0.4513  0.3947
 1987TIP3    H127452   6.637   2.359  12.566  0.1463  0.9532  0.6798
 1987TIP3    H227453   6.596   2.472  12.474  0.5107  0.7203  0.2245
 1988TIP3   OH227454   0.310   0.600  17.076 -0.3085 -0.2402 -0.2048
 1988TIP3    H127455   0.262   0.662  17.021 -0.0964 -1.2231 -1.5357
 1988TIP3    H227456   0.380   0.567  17.020 -0.1463 -1.3524  0.6298
 1989TIP3   OH227457   6.173   6.091  16.769 -0.3797 -0.0086 -0.0808
 1989TIP3    H127458   6.206   6.158  16.709  0.1975 -0.5453 -0.3731
 1989TIP3    H227459   6.210   6.010  16.737  0.6070 -0.2177  1.4699
 1990TIP3   OH227460   0.145   3.274   3.746  0.0362 -0.1895 -0.0638
 1990TIP3    H127461   0.192   3.254   3.666 -1.2582 -2.3335 -0.3593
 1990TIP3    H227462   0.150   3.194   3.798 -0.1512  0.7681  1.5160
 1991TIP3   OH227463   0.289   4.428   4.665  0.0873 -0.0830  0.0144
 1991TIP3    H127464   0.297   4.506   4.611  0.6288 -1.4245 -1.9499
 1991TIP3    H227465   0.377   4.390   4.667  0.0787 -0.1055  1.8432
 1992TIP3   OH227466   4.771   3.514   0.367 -0.8650  0.0006 -0.0540
 1992TIP3    H127467   4.865   3.499   0.367 -0.5096  1.8606 -1.1865
 1992TIP3    H227468   4.741   3.478   0.283 -0.8809  0.7294 -0.3730
 1993TIP3   OH227469   5.845   2.359   1.717  0.0826  0.1650 -0.3880
 1993TIP3    H127470   5.933   2.320   1.720  0.4251  0.7570 -1.7411
 1993TIP3    H227471   5.858   2.442   1.670 -0.8286  1.3473  1.3205
 1994TIP3   OH227472   4.090   3.120   1.685  0.1467 -0.5825 -0.7139
 1994TIP3    H127473   4.135   3.103   1.768  0.9079  1.0913 -0.7507
 1994TIP3    H227474   4.020   3.181   1.707  1.1127  0.8497 -1.4530
 1995TIP3   OH227475   0.383   2.571   4.934 -0.9380 -0.3019 -0.5417
 1995TIP3    H127476   0.303   2.599   4.891 -2.2908  0.5428  2.2850
 1995TIP3    H227477   0.421   2.651   4.970 -0.2777 -1.0297  0.4435
 1996TIP3   OH227478   3.884   2.332   2.591  0.1631 -0.4689 -0.5345
 1996TIP3    H127479   3.862   2.265   2.526 -0.5741 -0.8490  0.0869
 1996TIP3    H227480   3.955   2.293   2.643  0.2156 -0.4860 -0.6200
 1997TIP3   OH227481   3.985   0.996   2.192 -0.9042  0.2930  0.2988
 1997TIP3    H127482   3.989   0.909   2.152  0.5089  1.0732 -1.3678
 1997TIP3    H227483   4.066   1.003   2.243 -1.3059  0.4162  0.9286
 1998TIP3   OH227484   5.723   3.904   0.922  0.3444  0.4844 -0.0227
 1998TIP3    H127485   5.777   3.937   0.850  0.0049 -1.8875 -1.4818
 1998TIP3    H227486   5.763   3.820   0.944 -0.3039  0.6109  1.7595
 1999TIP3   OH227487   5.527   0.024   2.543 -0.5175  0.7018 -0.1242
 1999TIP3    H127488   5.617   0.038   2.571 -1.0510  0.4829  1.8330
 1999TIP3    H227489   5.476   0.025   2.624 -2.2883  0.8547 -1.1871
 2000TIP3   OH227490   4.611   6.552   5.310 -0.3320 -0.1965 -0.4067
 2000TIP3    H127491   4.570   6.469   5.283 -0.4987 -0.1713 -0.2331
 2000TIP3    H227492   4.674   6.570   5.241 -0.3807 -0.4071 -0.5094
 2001TIP3   OH227493   2.102   5.991  13.247  0.9187  0.1072 -0.0359
 2001TIP3    H127494   2.083   5.990  13.153  0.9517 -2.1266 -0.0619
 2001TIP3    H227495   2.176   6.051  13.256  0.8363  0.4426 -1.4076
 2002TIP3   OH227496   5.846   4.079   3.737 -0.3309  0.5271  0.3284
 2002TIP3    H127497   5.820   3.989   3.759  0.4141  0.8104  2.5026
 2002TIP3    H227498   5.767   4.130   3.750 -0.9566  0.1569 -1.5899
 2003TIP3   OH227499   5.288   0.835   5.728 -0.2210  0.3177  0.3906
 2003TIP3    H127500   5.272   0.907   5.789  0.5742 -0.0392  1.0572
 2003TIP3    H227501   5.295   0.758   5.785 -0.6215 -0.2163 -0.2701
 2004TIP3   OH227502   4.305   3.418   0.610  0.3634  0.1435  0.5141
 2004TIP3    H127503   4.285   3.497   0.661  1.5420 -0.3009  1.7390
 2004TIP3    H227504   4.393   3.433   0.576  0.1565 -0.1864 -0.1782
 2005TIP3   OH227505   4.850   4.392   5.892 -0.0959  0.4377 -0.0862
 2005TIP3    H127506   4.931   4.356   5.929 -1.0568 -2.0691 -0.2086
 2005TIP3    H227507   4.811   4.441   5.964  0.4624 -0.1871  0.6629
 2006TIP3   OH227508   2.281   2.328   3.647  0.2450 -0.0930 -0.2324
 2006TIP3    H127509   2.312   2.367   3.565 -2.1108 -0.8847 -1.6072
 2006TIP3    H227510   2.193   2.364   3.659  0.7574  0.4594  2.3253
 2007TIP3   OH227511   5.381   3.835   0.453  0.6132  0.0056  0.3933
 2007TIP3    H127512   5.467   3.840   0.494  0.6989  0.9204  0.1196
 2007TIP3    H227513   5.393   3.874   0.366 -0.3044  1.1405  0.7499
 2008TIP3   OH227514   5.792   2.922  10.683  0.2185 -0.6610 -0.3042
 2008TIP3    H127515   5.699   2.904  10.668  0.0319  1.0206 -1.4588
 2008TIP3    H227516   5.834   2.900  10.600  1.0245 -2.2238  0.4757
 2009TIP3   OH227517   6.042   6.497   0.351  0.2400 -0.2442  0.0337
 2009TIP3    H127518   6.068   6.426   0.292  0.7026 -0.2769  0.2729
 2009TIP3    H227519   6.085   6.476   0.434  2.0047  1.3272 -0.4213
 2010TIP3   OH227520   4.480   5.452  15.592  0.1595 -1.0469 -0.1129
 2010TIP3    H127521   4.390   5.458  15.559  1.0000 -0.3064 -2.4609
 2010TIP3    H227522   4.470   5.454  15.687 -2.2600  0.1068 -0.2986
 2011TIP3   OH227523   4.003   5.624  12.903 -0.4017 -0.5920 -0.3027
 2011TIP3    H127524   4.025   5.646  12.812 -2.9500  0.3910 -0.7441
 2011TIP3    H227525   3.935   5.557  12.896  1.0991 -2.3753  0.9865
 2012TIP3   OH227526   2.010   2.321   2.966 -0.2063 -0.2478  0.3778
 2012TIP3    H127527   2.000   2.373   2.886 -0.8389  0.7086  1.0620
 2012TIP3    H227528   2.021   2.385   3.035  2.2560 -1.0615  0.8674
 2013TIP3   OH227529   2.903   0.704  16.580 -0.3802  0.3473  0.2637
 2013TIP3    H127530   2.955   0.736  16.505  0.1859  2.4101  1.4490
 2013TIP3    H227531   2.891   0.782  16.635 -1.5895 -0.9124  1.8661
 2014TIP3   OH227532   6.361   4.292  15.847 -0.6476  0.1560  0.6895
 2014TIP3    H127533   6.452   4.263  15.843 -1.1015 -1.1838 -0.7298
 2014TIP3    H227534   6.358   4.351  15.922  0.9347 -1.3835  2.0361
 2015TIP3   OH227535   1.647   1.823   5.632  0.5502  0.7824  0.5757
 2015TIP3    H127536   1.668   1.898   5.688  1.5883 -0.1529  1.4793
 2015TIP3    H227537   1.731   1.779   5.618  0.1932  0.5396 -1.0987
 2016TIP3   OH227538   3.250   1.291   6.245  0.5473  0.4209 -0.2912
 2016TIP3    H127539   3.157   1.273   6.232  0.6978 -0.7432  0.1168
 2016TIP3    H227540   3.275   1.342   6.169 -0.5233  1.1454 -0.1826
 2017TIP3   OH227541   2.436   0.444   0.336 -0.2817 -0.8320 -0.4621
 2017TIP3    H127542   2.501   0.413   0.399  0.3620  0.9383 -0.2188
 2017TIP3    H227543   2.376   0.497   0.387  0.1884  0.5441 -1.2806
 2018TIP3   OH227544   6.480   2.483   0.609 -0.2301  0.0723  0.0902
 2018TIP3    H127545   6.525   2.446   0.685  2.8418 -2.8095 -2.7717
 2018TIP3    H227546   6.398   2.433   0.604  0.2777 -0.8501  0.6442
 2019TIP3   OH227547   0.529   6.030   3.493  0.2005  0.0642 -0.3113
 2019TIP3    H127548   0.516   5.943   3.457 -1.5831 -0.3913  1.3238
 2019TIP3    H227549   0.506   6.089   3.421 -0.8750 -0.8113 -0.7094
 2020TIP3   OH227550   1.901   2.387   1.951  0.1665 -0.3433 -0.0253
 2020TIP3    H127551   1.879   2.464   1.898  1.9348 -1.2255 -2.2404
 2020TIP3    H227552   1.978   2.413   2.001  2.7139 -1.4152 -3.0816
 2021TIP3   OH227553   4.083   4.416  14.711  0.6183 -0.2576  0.4874
 2021TIP3    H127554   4.077   4.431  14.617  0.8184  0.6491  0.6131
 2021TIP3    H227555   4.044   4.329  14.724 -0.2684  0.0083 -0.3103
 2022TIP3   OH227556   3.999   4.667  14.464 -0.2603  0.2040  0.1349
 2022TIP3    H127557   4.003   4.749  14.512 -0.1881  0.8909 -1.0086
 2022TIP3    H227558   3.908   4.657  14.438 -0.6558 -1.0334  1.8278
 2023TIP3   OH227559   3.534   3.330   0.339 -0.3806 -0.3814 -0.2590
 2023TIP3    H127560   3.455   3.279   0.357 -1.2566  0.4550 -1.5476
 2023TIP3    H227561   3.502   3.409   0.296  1.0962  0.4179  0.0539
 2024TIP3   OH227562   6.427   4.994  16.798  0.1253 -0.2969 -0.1567
 2024TIP3    H127563   6.511   5.036  16.784 -0.4611  0.4403 -1.7237
 2024TIP3    H227564   6.368   5.036  16.735 -1.1356 -1.5776  0.1069
 2025TIP3   OH227565   4.190   2.083   6.808  0.3086  0.1462 -0.6321
 2025TIP3    H127566   4.164   2.154   6.867 -0.5298  0.5597 -1.4747
 2025TIP3    H227567   4.260   2.121   6.754 -0.1381  0.3422 -1.0810
 2026TIP3   OH227568   1.351   1.635   4.884  0.5059  0.0374  0.0162
 2026TIP3    H127569   1.285   1.647   4.815  0.0980  1.2632  0.5982
 2026TIP3    H227570   1.410   1.568   4.849 -1.5418 -1.7809 -0.1510
 2027TIP3   OH227571   6.081   4.441   4.611  0.0261 -0.2783 -0.2360
 2027TIP3    H127572   6.030   4.360   4.607  0.7435 -0.6710 -2.2058
 2027TIP3    H227573   6.170   4.415   4.588  0.3441  1.0014 -0.5387
 2028TIP3   OH227574   0.050   0.794  15.398 -0.2852  0.5063  0.3727
 2028TIP3    H127575   0.009   0.812  15.482 -0.6114 -1.6178  0.7238
 2028TIP3    H227576  -0.006   0.837  15.334 -1.1539  0.4922  1.1103
 2029TIP3   OH227577   5.858   6.112  13.145 -0.0262 -0.5876 -0.1612
 2029TIP3    H127578   5.877   6.052  13.073 -1.2172 -1.4215  0.1959
 2029TIP3    H227579   5.874   6.199  13.108  1.4979 -1.0916 -0.7559
 2030TIP3   OH227580   5.788   0.903   2.766 -0.1648  0.1680 -0.1737
 2030TIP3    H127581   5.789   0.957   2.688  1.7567 -1.5330 -1.4183
 2030TIP3    H227582   5.747   0.821   2.738  1.7353 -0.9587  0.1849
 2031TIP3   OH227583   6.611   0.633   5.895 -0.0529  0.5787  0.7437
 2031TIP3    H127584   6.626   0.539   5.902  0.2930  0.5672 -0.0455
 2031TIP3    H227585   6.680   0.672   5.949 -0.1693  0.3877  1.0353
 2032TIP3   OH227586   4.643   2.002  15.384 -0.0708  0.1457  0.4820
 2032TIP3    H127587   4.705   2.073  15.406 -1.1008  0.9656  0.8429
 2032TIP3    H227588   4.611   1.972  15.469 -2.6327  2.0122  0.2974
 2033TIP3   OH227589   5.865   1.288   0.366  0.5398 -0.0662 -0.4171
 2033TIP3    H127590   5.887   1.292   0.272  1.0822 -0.3023 -0.3073
 2033TIP3    H227591   5.900   1.203   0.394 -1.9241 -1.2130 -0.5656
 2034TIP3   OH227592   1.273   0.965   2.004  0.5342 -0.1945  0.6709
 2034TIP3    H127593   1.181   0.942   1.996  0.6590 -1.7511  2.8186
 2034TIP3    H227594   1.282   1.048   1.957 -1.3623 -1.3088 -1.8783
 2035TIP3   OH227595   6.748   2.868  11.543 -0.6692 -0.4304 -0.2038
 2035TIP3    H127596   6.722   2.786  11.586  2.1446 -2.9940 -2.8767
 2035TIP3    H227597   6.724   2.856  11.452 -0.0997  1.7261 -0.6916
 2036TIP3   OH227598   6.368   0.125   1.838 -0.0680 -0.7556 -0.3623
 2036TIP3    H127599   6.428   0.072   1.785 -0.9832 -0.5312 -1.6756
 2036TIP3    H227600   6.417   0.143   1.919  0.5815 -2.8605 -0.2288
 2037TIP3   OH227601   3.783   4.175  12.104 -0.1821 -0.4971  0.1090
 2037TIP3    H127602   3.697   4.166  12.065 -0.9422  2.9157  0.6715
 2037TIP3    H227603   3.780   4.121  12.183 -2.7010  1.2202  1.3217
 2038TIP3   OH227604   4.118   3.606  11.940  0.0940 -0.0846 -0.0385
 2038TIP3    H127605   4.069   3.538  11.985  1.2291 -0.7952  0.1607
 2038TIP3    H227606   4.139   3.670  12.009 -0.9444  0.4668 -0.2191
 2039TIP3   OH227607   1.885   3.833   5.250 -0.4672  0.0003  0.4719
 2039TIP3    H127608   1.971   3.791   5.247  0.0993  1.1559 -0.8591
 2039TIP3    H227609   1.875   3.860   5.342  0.5026 -0.3148  0.6847
 2040TIP3   OH227610   1.083   4.608  11.574  0.0693 -0.0993  1.0644
 2040TIP3    H127611   1.014   4.667  11.604  0.4976 -0.2487  2.3679
 2040TIP3    H227612   1.051   4.576  11.489 -0.6988  1.0981  0.8838
 2041TIP3   OH227613   0.959   0.709   2.619  0.2812  0.2988  0.0381
 2041TIP3    H127614   1.050   0.724   2.645  0.8489 -2.3631 -0.1772
 2041TIP3    H227615   0.963   0.637   2.557 -2.0479 -0.4772  0.6770
 2042TIP3   OH227616   2.299   2.818   5.257 -0.3846 -0.0326 -0.3262
 2042TIP3    H127617   2.345   2.734   5.263  0.8422  0.6348 -0.1242
 2042TIP3    H227618   2.208   2.794   5.238  0.1020 -1.3841 -1.1131
 2043TIP3   OH227619   6.542   1.752   4.395  0.4430 -0.0119  0.2406
 2043TIP3    H127620   6.582   1.667   4.414  0.7624  0.1757  0.3958
 2043TIP3    H227621   6.530   1.752   4.300 -1.3800 -1.0542  0.4048
 2044TIP3   OH227622   5.036   6.292  13.541 -0.4682  0.4048 -0.3533
 2044TIP3    H127623   5.085   6.221  13.501 -0.3389 -0.3082  1.0047
 2044TIP3    H227624   5.006   6.345  13.467 -0.4635 -0.9799 -1.3973
 2045TIP3   OH227625   2.588   1.975   3.841  0.0820 -0.0644  0.1202
 2045TIP3    H127626   2.562   1.885   3.862 -2.0666  0.1031 -1.5038
 2045TIP3    H227627   2.661   1.966   3.780 -0.8053 -0.7752 -0.8762
 2046TIP3   OH227628   6.727   4.809  12.765  0.3510 -0.0683 -0.0117
 2046TIP3    H127629   6.805   4.861  12.746 -0.5594  1.2448 -0.2947
 2046TIP3    H227630   6.725   4.742  12.697 -0.0048  1.3289 -1.4398
 2047TIP3   OH227631   6.438   3.497   0.121 -0.4098  0.6688 -0.1902
 2047TIP3    H127632   6.517   3.540   0.152  0.3871 -0.8067 -0.0952
 2047TIP3    H227633   6.468   3.414   0.085 -1.8994  0.1624 -0.3440
 2048TIP3   OH227634   3.577   3.107   0.762 -0.7149 -0.4570  0.2503
 2048TIP3    H127635   3.637   3.166   0.716 -1.6770 -0.5317 -1.1507
 2048TIP3    H227636   3.564   3.148   0.848 -0.6021  0.8678 -0.3407
 2049TIP3   OH227637   5.023   5.451  13.835 -0.4771 -1.1540  0.3044
 2049TIP3    H127638   5.095   5.509  13.809 -0.7785 -1.6047 -1.6664
 2049TIP3    H227639   5.049   5.364  13.804 -1.6552 -1.3994 -0.0687
 2050TIP3   OH227640   6.077   0.601  11.201 -0.3437  0.1141 -0.0633
 2050TIP3    H127641   6.130   0.677  11.224 -0.9352  1.0164 -1.5962
 2050TIP3    H227642   6.010   0.597  11.270  0.5518  0.0963  0.8228
 2051TIP3   OH227643   2.026   4.309  16.667 -0.5371 -0.8063 -0.0738
 2051TIP3    H127644   2.111   4.296  16.708  0.0068 -1.0385 -1.2491
 2051TIP3    H227645   2.019   4.403  16.655  0.0632 -0.8706 -1.0076
 2052TIP3   OH227646   4.327   1.515   2.643 -0.0040  0.5902 -0.5228
 2052TIP3    H127647   4.316   1.607   2.666 -0.3152  0.1171  1.3609
 2052TIP3    H227648   4.383   1.480   2.712 -0.3608 -0.7571 -0.9025
 2053TIP3   OH227649   0.001   4.122   3.165  0.6310  0.1597 -0.0356
 2053TIP3    H127650  -0.016   4.035   3.131  0.7998  0.6145 -1.3327
 2053TIP3    H227651  -0.009   4.113   3.260 -2.3431 -0.5830 -0.3318
 2054TIP3   OH227652   1.082   0.268   2.616  0.0010 -0.0488 -0.2550
 2054TIP3    H127653   1.165   0.311   2.598 -1.2160  2.4194 -0.3071
 2054TIP3    H227654   1.093   0.230   2.704  1.1405  0.2979 -0.2392
 2055TIP3   OH227655   5.645   6.147  15.083 -0.4436 -0.2550  1.2988
 2055TIP3    H127656   5.630   6.212  15.151  1.1904 -1.7201  3.1483
 2055TIP3    H227657   5.735   6.117  15.097 -1.3125 -3.3288  0.9101
 2056TIP3   OH227658   3.261   4.111  11.732 -0.0327  0.0224  0.2203
 2056TIP3    H127659   3.170   4.085  11.749  0.6280 -0.6067  3.5780
 2056TIP3    H227660   3.308   4.029  11.717  0.0744  0.3174 -1.1529
 2057TIP3   OH227661   4.627   2.383  15.016 -0.0108  0.6412 -0.0227
 2057TIP3    H127662   4.590   2.459  15.060 -0.6489  0.1370  0.3318
 2057TIP3    H227663   4.719   2.404  15.005 -0.1337  1.3693  0.2734
 2058TIP3   OH227664   1.563   6.494   5.694 -0.1897  0.2964  0.0334
 2058TIP3    H127665   1.543   6.432   5.764  1.4661 -1.5012 -1.0022
 2058TIP3    H227666   1.586   6.440   5.619  0.9862  2.1552 -1.0393
 2059TIP3   OH227667   6.688   6.643  14.577  0.3614  0.2515 -0.1850
 2059TIP3    H127668   6.638   6.602  14.647 -1.1020 -1.0275 -1.8637
 2059TIP3    H227669   6.772   6.664  14.616 -0.7293  0.5070  2.1846
 2060TIP3   OH227670   2.434   1.260   5.483 -0.3422  0.1618 -0.0284
 2060TIP3    H127671   2.368   1.258   5.552  0.5922 -0.0616  0.8708
 2060TIP3    H227672   2.512   1.294   5.525  1.1320 -2.7695 -0.1644
 2061TIP3   OH227673   0.810   1.502   0.296  0.2151  0.0914  0.1845
 2061TIP3    H127674   0.723   1.538   0.279  0.0496  0.3705  1.5236
 2061TIP3    H227675   0.808   1.476   0.388  1.8887  1.0913  0.5487
 2062TIP3   OH227676   1.241   5.185  13.401 -0.1645 -0.3436 -0.1926
 2062TIP3    H127677   1.291   5.109  13.428  1.0993 -0.3952 -2.3951
 2062TIP3    H227678   1.303   5.238  13.351 -1.0898  2.0082  1.0265
 2063TIP3   OH227679   3.527   2.265   1.001 -0.2024 -0.0786 -0.7145
 2063TIP3    H127680   3.523   2.279   1.095  2.6472 -0.2177 -0.4741
 2063TIP3    H227681   3.533   2.353   0.964  2.4843 -0.0081 -0.3686
 2064TIP3   OH227682   3.052   2.546   5.781 -0.1545  0.4470  0.3846
 2064TIP3    H127683   3.139   2.509   5.794  0.3082  1.9837  2.2653
 2064TIP3    H227684   3.068   2.637   5.755 -1.1007  1.2526  2.3704
 2065TIP3   OH227685   4.675   3.640   1.165 -0.0339 -0.3517  0.2982
 2065TIP3    H127686   4.762   3.661   1.197  1.2495 -0.1428 -2.9100
 2065TIP3    H227687   4.682   3.549   1.135 -0.7817 -0.1948 -0.3810
 2066TIP3   OH227688   2.524   2.798  14.793  0.0387  0.1472 -0.4066
 2066TIP3    H127689   2.455   2.732  14.796  1.1491 -1.0997 -1.3491
 2066TIP3    H227690   2.598   2.758  14.838  0.1763  1.4779  0.6071
 2067TIP3   OH227691   0.752   0.008  11.158 -0.4746 -0.7184  0.1929
 2067TIP3    H127692   0.686   0.067  11.121  0.0912  0.5716  1.1945
 2067TIP3    H227693   0.831   0.027  11.108 -0.3779 -0.8811  0.2841
 2068TIP3   OH227694   0.638   1.181   0.634 -0.0555  0.1491 -0.1888
 2068TIP3    H127695   0.694   1.103   0.628 -0.4274 -0.2744  1.3003
 2068TIP3    H227696   0.549   1.146   0.639 -0.1630  0.5535  1.6417
 2069TIP3   OH227697   1.779   0.064  13.697  0.0039  0.2698 -0.2214
 2069TIP3    H127698   1.706   0.020  13.654  1.5078 -2.3666 -0.2887
 2069TIP3    H227699   1.783   0.024  13.784  1.2238  0.5149 -0.1473
 2070TIP3   OH227700   0.386   6.715   1.402  0.9694  0.0775  0.1810
 2070TIP3    H127701   0.459   6.760   1.444 -0.0911  3.1698 -1.0222
 2070TIP3    H227702   0.312   6.730   1.461  0.6406 -0.2769 -0.1387
 2071TIP3   OH227703   3.638   4.955   3.687 -0.2794 -0.1056 -0.2177
 2071TIP3    H127704   3.562   4.930   3.740 -0.4341  0.1383 -0.3245
 2071TIP3    H227705   3.605   5.024   3.629  0.3448  0.9214  0.6217
 2072TIP3   OH227706   1.999   6.690   3.020 -0.7556 -0.2566 -0.2377
 2072TIP3    H127707   1.997   6.727   3.109  1.1688 -1.0562  0.1943
 2072TIP3    H227708   2.025   6.599   3.033  2.2605  0.2418 -1.7131
 2073TIP3   OH227709   1.658   1.576   2.044 -0.6415  0.2080 -0.2281
 2073TIP3    H127710   1.597   1.509   2.076 -1.5733  0.7591 -0.7945
 2073TIP3    H227711   1.656   1.644   2.111  1.9954 -1.2312  1.4658
 2074TIP3   OH227712   3.184   4.134   3.334 -0.6647  0.1518  0.1443
 2074TIP3    H127713   3.215   4.221   3.309  0.1929 -0.3216 -0.5273
 2074TIP3    H227714   3.103   4.121   3.285 -0.9037  0.6481  0.4072
 2075TIP3   OH227715   3.300   6.457   5.120 -0.2935  0.1990 -0.0904
 2075TIP3    H127716   3.345   6.424   5.198  0.3739  0.8971 -0.1763
 2075TIP3    H227717   3.229   6.394   5.106 -0.2475 -0.1008  0.9063
 2076TIP3   OH227718   6.782   0.337   6.037  0.2412 -0.3027  0.1250
 2076TIP3    H127719   6.814   0.410   5.984 -0.4600 -0.7730 -0.9895
 2076TIP3    H227720   6.724   0.377   6.102  1.3204  0.3140  0.7417
 2077TIP3   OH227721   0.825   3.479  12.679  0.2346 -0.5906 -0.4450
 2077TIP3    H127722   0.914   3.446  12.683 -0.0603 -1.6738 -1.9091
 2077TIP3    H227723   0.828   3.563  12.725  2.1930 -0.1829 -1.2337
 2078TIP3   OH227724   2.612   6.457  12.553 -0.2677 -0.7855  0.0876
 2078TIP3    H127725   2.596   6.541  12.510 -1.3103 -0.5028  0.9916
 2078TIP3    H227726   2.708   6.449  12.554 -0.1802 -0.4282 -1.5169
 2079TIP3   OH227727   6.429   1.162   5.225 -0.4240  0.3233  0.3272
 2079TIP3    H127728   6.425   1.078   5.179  0.4678  0.5085 -0.0965
 2079TIP3    H227729   6.514   1.163   5.268 -0.8868  0.5314  1.2886
 2080TIP3   OH227730   6.589   4.329  13.618 -0.2881 -0.5550 -0.7214
 2080TIP3    H127731   6.513   4.306  13.672  0.5072 -1.5323  0.0331
 2080TIP3    H227732   6.582   4.273  13.541  0.1779 -1.3637 -0.1860
 2081TIP3   OH227733   1.716   5.738  17.271 -0.0946  0.3014  0.0862
 2081TIP3    H127734   1.722   5.702  17.360  0.9279 -0.8876 -0.4363
 2081TIP3    H227735   1.777   5.686  17.220  0.2316  1.7505 -1.0817
 2082TIP3   OH227736   5.217   6.291   4.774  0.3894  0.4707 -0.4257
 2082TIP3    H127737   5.149   6.241   4.820  0.2263  0.4775 -0.6527
 2082TIP3    H227738   5.171   6.368   4.741  0.8423  1.2480  0.7100
 2083TIP3   OH227739   1.864   0.164   0.229  0.0751 -0.2467 -0.0196
 2083TIP3    H127740   1.847   0.075   0.198 -0.3069  0.4810 -2.0759
 2083TIP3    H227741   1.791   0.185   0.286 -0.0646 -1.0797  0.1183
 2084TIP3   OH227742   3.369   0.816   2.925  0.2067  0.4485 -0.5980
 2084TIP3    H127743   3.382   0.824   2.831 -2.1424  2.3785 -0.8691
 2084TIP3    H227744   3.275   0.826   2.937  0.5179  1.0023  2.0158
 2085TIP3   OH227745   5.074   6.103  15.895 -0.3987 -0.6953  0.0103
 2085TIP3    H127746   4.979   6.091  15.891 -0.7323  1.6252 -0.6717
 2085TIP3    H227747   5.091   6.130  15.985 -0.6622  0.4925 -0.2722
 2086TIP3   OH227748   0.438   3.939   3.783 -0.0735 -0.0803  0.1836
 2086TIP3    H127749   0.520   3.945   3.834  0.0593  0.2382 -0.0633
 2086TIP3    H227750   0.450   3.863   3.727  0.7855  0.9757 -1.1230
 2087TIP3   OH227751   3.267   1.365   1.326  0.1914  0.0843 -0.3757
 2087TIP3    H127752   3.251   1.271   1.332 -1.2580  0.3302 -0.1000
 2087TIP3    H227753   3.329   1.383   1.396 -0.0116 -0.5562 -0.0197
 2088TIP3   OH227754   3.253   6.552  14.937  0.1429 -0.4811 -0.5079
 2088TIP3    H127755   3.224   6.567  15.027 -0.6404 -1.4115 -0.5856
 2088TIP3    H227756   3.273   6.640  14.903  0.4976 -0.1315  0.5798
 2089TIP3   OH227757   5.272   5.008   3.335 -0.3394  0.7138 -0.1548
 2089TIP3    H127758   5.289   4.943   3.266  1.5586 -1.8824  2.4970
 2089TIP3    H227759   5.338   5.075   3.322  0.6210 -0.2394 -0.3748
 2090TIP3   OH227760   0.186   4.812   2.620 -0.1149 -0.0938  0.5565
 2090TIP3    H127761   0.252   4.818   2.690  0.4064 -0.6901  0.1259
 2090TIP3    H227762   0.174   4.718   2.607 -0.8693  0.0120  0.4456
 2091TIP3   OH227763   6.635   0.368   0.014  0.6071 -0.3631  0.4740
 2091TIP3    H127764   6.724   0.339  -0.004  0.7993 -0.8889  2.1146
 2091TIP3    H227765   6.635   0.391   0.107 -0.6278  0.9492  0.1881
 2092TIP3   OH227766   4.050   3.391  12.088 -0.2128 -0.2053 -0.2601
 2092TIP3    H127767   4.044   3.391  12.183  2.5896  0.7810  0.0038
 2092TIP3    H227768   4.078   3.301  12.066  1.9847  0.2926  0.2016
 2093TIP3   OH227769   3.319   5.559   1.955 -0.2082  0.3542  0.2017
 2093TIP3    H127770   3.392   5.528   1.901 -2.0407 -1.4293 -1.4344
 2093TIP3    H227771   3.335   5.653   1.965  2.0022  0.1200 -0.5478
 2094TIP3   OH227772   5.111   2.160   2.447  0.1814  0.6675  0.4724
 2094TIP3    H127773   5.075   2.221   2.382  1.0016 -0.7318 -1.3732
 2094TIP3    H227774   5.170   2.213   2.500  2.1085  1.2801 -2.0776
 2095TIP3   OH227775   3.010   3.734   2.302  0.0475  0.1131  0.3232
 2095TIP3    H127776   3.018   3.826   2.327 -0.2132 -0.4602  2.8517
 2095TIP3    H227777   2.922   3.709   2.332  0.4630 -1.1721  0.5560
 2096TIP3   OH227778   5.310   4.207  12.968  0.4932  0.2623 -0.0710
 2096TIP3    H127779   5.236   4.146  12.966 -0.0507  0.9079  0.1619
 2096TIP3    H227780   5.387   4.150  12.963  0.0582 -0.5827  1.8455
 2097TIP3   OH227781   3.700   4.826   1.984 -0.1942 -0.3081  0.5091
 2097TIP3    H127782   3.747   4.801   2.063 -0.5583 -0.4551  0.6783
 2097TIP3    H227783   3.766   4.868   1.930  0.3741 -1.3737  0.3362
 2098TIP3   OH227784   1.740   4.733  15.934  0.0732 -0.3641 -0.1250
 2098TIP3    H127785   1.744   4.781  15.852 -0.8595 -0.8831 -0.4922
 2098TIP3    H227786   1.826   4.693  15.944  0.5288  0.5555 -0.3154
 2099TIP3   OH227787   5.239   1.336  15.879 -0.0055  0.3425  0.0392
 2099TIP3    H127788   5.251   1.267  15.945 -0.5677 -0.2097 -0.4172
 2099TIP3    H227789   5.145   1.333  15.859  0.1823  0.3877 -0.8960
 2100TIP3   OH227790   6.453   5.093  15.104  0.0057  0.7531 -0.5021
 2100TIP3    H127791   6.376   5.147  15.093 -0.6328  0.2437  1.2193
 2100TIP3    H227792   6.422   5.014  15.149  1.1817 -0.3470 -1.5142
 2101TIP3   OH227793   5.384   0.871  12.114 -0.8557 -0.3954 -0.0020
 2101TIP3    H127794   5.291   0.862  12.137 -1.0334  0.5757 -0.3121
 2101TIP3    H227795   5.425   0.907  12.192 -0.8675 -0.1520 -0.1088
 2102TIP3   OH227796   2.889   2.429  11.921  0.2067  0.4550 -0.8626
 2102TIP3    H127797   2.959   2.492  11.940 -1.3294  1.6767  1.1347
 2102TIP3    H227798   2.863   2.395  12.006 -1.9719  0.4534 -1.4611
 2103TIP3   OH227799   4.196   0.339  17.219  0.2381 -0.3847  0.0149
 2103TIP3    H127800   4.193   0.423  17.266 -3.5926 -0.9960  1.2494
 2103TIP3    H227801   4.186   0.273  17.288  1.3929 -1.8040 -1.1188
 2104TIP3   OH227802   6.634   2.209   2.414  0.0125 -0.2747  0.3180
 2104TIP3    H127803   6.657   2.181   2.503  0.0671 -1.3830 -0.0295
 2104TIP3    H227804   6.694   2.161   2.358 -1.9293 -1.8958 -0.5035
 2105TIP3   OH227805   4.090   3.251  16.448  0.0887 -0.5571  0.2366
 2105TIP3    H127806   4.132   3.295  16.373 -1.6738  0.6678 -0.1014
 2105TIP3    H227807   4.111   3.159  16.436  0.6278 -0.2788 -1.2595
 2106TIP3   OH227808   0.483   0.041   2.043 -0.6510 -0.6005  0.2018
 2106TIP3    H127809   0.538   0.016   2.117 -0.1738  0.6618  0.2983
 2106TIP3    H227810   0.499  -0.026   1.977 -0.2886 -1.1702  0.8586
 2107TIP3   OH227811   3.027   6.277  13.430 -0.2819 -0.1031  0.7180
 2107TIP3    H127812   3.072   6.353  13.395 -1.4078  0.1912 -0.1330
 2107TIP3    H227813   3.055   6.205  13.374 -1.0730  0.1338 -0.0013
 2108TIP3   OH227814   1.956   1.195  14.923 -0.0458 -0.0963  0.4733
 2108TIP3    H127815   1.902   1.274  14.928  0.6949  0.4230  0.4361
 2108TIP3    H227816   1.905   1.134  14.870 -1.2482 -0.1654  1.6547
 2109TIP3   OH227817   3.843   0.630   0.515  0.3507  0.0879 -0.1935
 2109TIP3    H127818   3.823   0.634   0.421  1.3094  2.1276 -0.3567
 2109TIP3    H227819   3.795   0.703   0.553  0.9058 -0.0121  0.7232
 2110TIP3   OH227820   4.154   0.236  15.468  0.0385  0.6235 -0.0664
 2110TIP3    H127821   4.224   0.184  15.507  0.2965  1.0547  0.0625
 2110TIP3    H227822   4.080   0.226  15.528 -0.3924 -0.7476 -0.7880
 2111TIP3   OH227823   3.167   0.498   6.011  0.2429  0.5493 -0.1607
 2111TIP3    H127824   3.235   0.431   6.009 -1.1908 -0.9286 -0.8124
 2111TIP3    H227825   3.207   0.570   6.061  2.8271  0.3867 -1.8011
 2112TIP3   OH227826   4.554   1.838   2.116 -0.4003  0.0852 -0.1397
 2112TIP3    H127827   4.553   1.746   2.143 -0.5752  0.3983  0.9553
 2112TIP3    H227828   4.577   1.835   2.023  1.2210 -0.9623  0.2608
 2113TIP3   OH227829   1.106   2.854   4.903 -0.9626  0.0475 -0.5752
 2113TIP3    H127830   1.032   2.793   4.897 -0.4730 -0.6875  0.6265
 2113TIP3    H227831   1.147   2.835   4.987  0.6201  0.4394 -1.2190
 2114TIP3   OH227832   1.489   4.184  15.167  0.6834  0.3122  0.2311
 2114TIP3    H127833   1.431   4.245  15.212 -0.1324 -1.6674  2.0938
 2114TIP3    H227834   1.447   4.167  15.083 -1.0990 -0.4733  1.2210
 2115TIP3   OH227835   4.329   1.512  12.029 -0.0004  0.1382  0.2543
 2115TIP3    H127836   4.334   1.556  11.945 -1.2109  1.1709  0.6907
 2115TIP3    H227837   4.236   1.494  12.042  0.0458  0.7569  1.7238
 2116TIP3   OH227838   0.101   3.466  15.588  0.0421  0.3154  0.4332
 2116TIP3    H127839   0.194   3.464  15.565  0.0877  0.0986  0.6243
 2116TIP3    H227840   0.100   3.461  15.684 -0.1658  0.3087  0.4320
 2117TIP3   OH227841   0.289   3.723  16.542 -0.1676 -0.0181 -1.0057
 2117TIP3    H127842   0.241   3.805  16.553  0.8877  0.7256 -1.7015
 2117TIP3    H227843   0.226   3.664  16.502 -1.3908 -0.0362  0.8543
 2118TIP3   OH227844   4.983   5.306   1.490  0.4378  0.1463  0.4763
 2118TIP3    H127845   5.038   5.380   1.516  0.5892  1.1582 -2.3952
 2118TIP3    H227846   4.964   5.322   1.398 -5.2382  0.1640  1.3490
 2119TIP3   OH227847   4.365   6.142  16.700 -0.4343  0.3629 -0.7836
 2119TIP3    H127848   4.404   6.192  16.772  0.0656 -0.2740 -0.6036
 2119TIP3    H227849   4.275   6.172  16.697  0.1506  2.1654 -1.4695
 2120TIP3   OH227850   2.495   5.113  13.015 -0.3061 -0.0155 -0.3060
 2120TIP3    H127851   2.510   5.187  13.073  0.0964 -0.4525  0.1522
 2120TIP3    H227852   2.543   5.135  12.935 -1.7612  1.0928 -0.9169
 2121TIP3   OH227853   3.733   1.028  11.197 -0.2602 -0.7960 -0.4375
 2121TIP3    H127854   3.768   1.097  11.252  1.4863 -0.5914 -1.7142
 2121TIP3    H227855   3.643   1.014  11.229 -0.0007  0.7119  1.0608
 2122TIP3   OH227856   6.762   3.167   5.543  0.4560  0.1729  0.0509
 2122TIP3    H127857   6.748   3.226   5.469 -1.3776 -2.1596 -1.5996
 2122TIP3    H227858   6.675   3.133   5.564  0.9399  0.4874  3.1823
 2123TIP3   OH227859   1.294   1.749   6.002 -0.2160 -0.2703 -0.1775
 2123TIP3    H127860   1.333   1.662   5.996 -0.8007 -0.5572  0.0727
 2123TIP3    H227861   1.280   1.763   6.096  1.5408  0.8642 -0.0368
 2124TIP3   OH227862   2.643   5.774   2.353 -0.0631 -0.5968 -0.3784
 2124TIP3    H127863   2.735   5.756   2.370 -0.2159  0.2067  1.5107
 2124TIP3    H227864   2.613   5.700   2.300  0.8937 -2.5048  1.6359
 2125TIP3   OH227865   2.462   1.868   3.389  0.8861  0.4409  0.2027
 2125TIP3    H127866   2.556   1.887   3.388  0.5035  2.7503  0.8594
 2125TIP3    H227867   2.422   1.948   3.424 -1.3415 -0.4647 -0.0926
 2126TIP3   OH227868   4.574   6.090  14.790  0.0554  0.5193 -0.8103
 2126TIP3    H127869   4.484   6.057  14.792  0.2798 -0.3144 -2.4827
 2126TIP3    H227870   4.615   6.051  14.867 -0.9427  0.7642 -0.1214
 2127TIP3   OH227871   3.792   4.769  16.967 -0.1034  0.2029  0.0656
 2127TIP3    H127872   3.824   4.681  16.948 -2.2254 -0.1156 -2.6468
 2127TIP3    H227873   3.849   4.826  16.916  0.5891  0.3473  0.9719
 2128TIP3   OH227874   0.454   1.070  16.107  0.6057 -0.3870 -0.2262
 2128TIP3    H127875   0.440   1.146  16.051 -1.8806 -0.8438 -0.3391
 2128TIP3    H227876   0.493   1.004  16.049  0.8893  0.1202 -0.6196
 2129TIP3   OH227877   4.188   0.076   4.060  0.3091 -0.2029 -0.2243
 2129TIP3    H127878   4.219   0.115   3.979 -1.3948  2.2023  0.1727
 2129TIP3    H227879   4.105   0.034   4.036 -0.1168  0.3729  0.2035
 2130TIP3   OH227880   1.934   2.579  13.010 -0.0702  0.0120 -0.9621
 2130TIP3    H127881   2.012   2.630  13.031 -0.0291 -0.4731  0.1023
 2130TIP3    H227882   1.924   2.517  13.083 -1.5736  0.2061 -0.9659
 2131TIP3   OH227883   5.805   4.950  11.534 -0.3859  0.3566  0.3033
 2131TIP3    H127884   5.814   4.979  11.443 -0.4207  0.0280  0.1951
 2131TIP3    H227885   5.894   4.955  11.570 -0.3192  0.1762  0.1593
 2132TIP3   OH227886   4.767   3.797   0.432 -0.4348  0.2506 -0.4348
 2132TIP3    H127887   4.827   3.794   0.507  0.3217 -0.3690 -1.0529
 2132TIP3    H227888   4.750   3.706   0.411 -1.9011  0.4057 -0.0544
 2133TIP3   OH227889   4.748   6.666  17.479 -0.9116  0.6024 -0.3449
 2133TIP3    H127890   4.746   6.699  17.389 -0.6189  0.6723 -0.3268
 2133TIP3    H227891   4.786   6.738  17.530 -1.8131  0.8726 -0.0282
 2134TIP3   OH227892   2.461   3.164   0.659  0.2775  0.0765 -0.0442
 2134TIP3    H127893   2.406   3.189   0.733  0.2658  1.8734 -0.5997
 2134TIP3    H227894   2.399   3.144   0.589  0.3065 -0.1226 -0.0133
 2135TIP3   OH227895   1.702   1.878  14.180  0.0118 -0.3267 -0.0836
 2135TIP3    H127896   1.773   1.826  14.142  0.4948 -0.3036  0.7667
 2135TIP3    H227897   1.742   1.962  14.202 -0.1610 -0.4845  0.8425
 2136TIP3   OH227898   5.837   3.391  16.684  0.3435 -0.1330  0.5291
 2136TIP3    H127899   5.757   3.439  16.663  0.0126 -1.0928 -0.4650
 2136TIP3    H227900   5.883   3.448  16.747 -0.3374  1.1787 -0.1116
 2137TIP3   OH227901   2.809   0.145  13.451  0.1001  0.1832  0.3184
 2137TIP3    H127902   2.772   0.210  13.511 -0.7696  0.0002  0.0047
 2137TIP3    H227903   2.811   0.189  13.366  2.0988  0.7245  0.6063
 2138TIP3   OH227904   4.338   6.331   1.871  0.3085 -0.0934  0.0731
 2138TIP3    H127905   4.417   6.352   1.821  0.7675  0.9670  1.1914
 2138TIP3    H227906   4.343   6.236   1.884  0.6265 -0.2576 -1.1215
 2139TIP3   OH227907   2.729   1.270  17.501 -0.1783  0.7293  0.4500
 2139TIP3    H127908   2.670   1.194  17.496 -0.0890  0.4686  2.5608
 2139TIP3    H227909   2.770   1.263  17.586  1.6574  1.8742 -0.2861
 2140TIP3   OH227910   6.103   4.398   3.368 -0.2386  0.0092 -0.0222
 2140TIP3    H127911   6.043   4.428   3.436  0.9572 -1.2832  1.6818
 2140TIP3    H227912   6.162   4.472   3.354 -0.9300  0.5387 -0.2022
 2141TIP3   OH227913   0.427   0.731  13.833 -0.2672  0.0514  0.0257
 2141TIP3    H127914   0.412   0.685  13.750 -1.0970 -1.7118  1.0941
 2141TIP3    H227915   0.339   0.749  13.867  0.0608  0.0983  0.8783
 2142TIP3   OH227916   4.392   0.779   2.240 -0.0486  0.3580  0.4328
 2142TIP3    H127917   4.438   0.698   2.261 -1.1849  0.1508  2.2637
 2142TIP3    H227918   4.462   0.844   2.231  0.8657 -0.7488 -0.9394
 2143TIP3   OH227919   2.692   0.524  12.465  0.1988  0.1505 -0.0117
 2143TIP3    H127920   2.781   0.520  12.500  0.5680  1.6561 -0.6977
 2143TIP3    H227921   2.703   0.545  12.372 -0.8734  3.6755  0.5165
 2144TIP3   OH227922   6.075   2.779   1.892  0.3310  0.0321  0.3949
 2144TIP3    H127923   5.990   2.819   1.875  0.6715  0.5858 -0.0318
 2144TIP3    H227924   6.055   2.698   1.939 -0.7604 -2.0547 -3.2337
 2145TIP3   OH227925   6.255   6.514   5.362  0.1902 -0.0156 -0.0337
 2145TIP3    H127926   6.277   6.429   5.401  0.3514 -0.3438 -0.8296
 2145TIP3    H227927   6.206   6.492   5.283 -3.2321  0.6443  1.6666
 2146TIP3   OH227928   4.006   4.643   0.452 -0.5230 -0.6985 -0.3363
 2146TIP3    H127929   4.014   4.582   0.525  1.0734 -0.9976 -0.7339
 2146TIP3    H227930   4.047   4.724   0.483 -0.9451 -0.4233 -0.4809
 2147TIP3   OH227931   6.372   4.342  16.783  0.1782  0.4212 -0.3893
 2147TIP3    H127932   6.391   4.362  16.875 -0.0485  0.2824 -0.3111
 2147TIP3    H227933   6.277   4.330  16.780 -0.0158  1.9658 -0.9493
 2148TIP3   OH227934   4.015   2.672  11.660  0.1825 -0.4786  0.2673
 2148TIP3    H127935   4.110   2.662  11.659  0.2896 -0.2837  2.7729
 2148TIP3    H227936   3.999   2.754  11.614  1.3663  0.2278  1.0725
 2149TIP3   OH227937   4.248   0.342  16.558  0.2389 -0.3079 -0.3647
 2149TIP3    H127938   4.250   0.374  16.648 -1.5537 -0.3452 -0.2870
 2149TIP3    H227939   4.281   0.253  16.563  1.1519  0.0406  0.0707
 2150TIP3   OH227940   0.861   4.206  11.608  0.0799  0.0552 -0.3084
 2150TIP3    H127941   0.874   4.243  11.521 -1.3399 -0.0824 -0.6037
 2150TIP3    H227942   0.949   4.185  11.638  0.5157 -1.2032 -2.2883
 2151TIP3   OH227943   6.202   6.248  14.879  0.0520 -0.7715 -0.3483
 2151TIP3    H127944   6.150   6.302  14.820 -1.7984 -1.3453  0.6664
 2151TIP3    H227945   6.230   6.308  14.948  1.0291 -0.3965 -1.0533
 2152TIP3   OH227946   5.414   3.656   4.080  0.3049  0.2691  0.2179
 2152TIP3    H127947   5.422   3.572   4.035  0.5518  0.6507 -0.4640
 2152TIP3    H227948   5.476   3.651   4.153 -1.4750 -1.1059  1.7374
 2153TIP3   OH227949   4.367   6.161  13.902  0.9498  0.4172  0.1816
 2153TIP3    H127950   4.283   6.186  13.939  0.0896 -2.1647  0.2317
 2153TIP3    H227951   4.379   6.219  13.827 -1.9870 -0.4784 -1.1464
 2154TIP3   OH227952   4.940   6.743   1.969  0.0163 -0.2891 -0.1515
 2154TIP3    H127953   4.891   6.823   1.989 -0.1321 -0.6971  1.1465
 2154TIP3    H227954   4.875   6.684   1.932  0.1443  0.2012 -1.2062
 2155TIP3   OH227955   2.907   1.436  15.849  0.4609  0.6356  0.7494
 2155TIP3    H127956   2.852   1.359  15.864  1.6754 -0.0875  1.6175
 2155TIP3    H227957   2.898   1.453  15.755  0.3992 -0.7547  0.4732
 2156TIP3   OH227958   1.745   5.529   3.959  0.1316 -0.5228  0.7515
 2156TIP3    H127959   1.765   5.555   3.869 -3.3519  0.3357  0.1013
 2156TIP3    H227960   1.662   5.571   3.978 -0.5681 -2.8556  3.4465
 2157TIP3   OH227961   5.072   5.039  15.214  0.7924 -0.0138 -0.5710
 2157TIP3    H127962   4.991   5.089  15.222  0.9996  0.3512 -0.7100
 2157TIP3    H227963   5.138   5.094  15.257  1.1044  0.0389 -1.1077
 2158TIP3   OH227964   0.045   3.411  15.323  0.1132  0.0445  0.5682
 2158TIP3    H127965   0.075   3.416  15.413 -0.6600  1.3575  0.7766
 2158TIP3    H227966   0.068   3.496  15.284  0.5543 -0.5473 -0.5119
 2159TIP3   OH227967   5.636   2.901   3.499  0.0046  0.4302  0.5721
 2159TIP3    H127968   5.708   2.842   3.475 -1.9538 -1.1786 -1.8701
 2159TIP3    H227969   5.602   2.864   3.581  1.2515  0.5700  1.1715
 2160TIP3   OH227970   6.682   5.210  14.540  0.6237  0.0500 -0.0221
 2160TIP3    H127971   6.670   5.296  14.499  1.8225  0.3976  0.3112
 2160TIP3    H227972   6.718   5.230  14.626  2.5288 -0.8301 -0.5703
 2161TIP3   OH227973   0.403   3.261  12.320  0.5527 -0.5418  0.3619
 2161TIP3    H127974   0.376   3.170  12.327  2.3305 -1.1503 -0.0927
 2161TIP3    H227975   0.488   3.258  12.276 -0.0164  1.4537 -1.0440
 2162TIP3   OH227976   0.087   4.748   0.002 -0.1077 -0.1393 -0.4370
 2162TIP3    H127977   0.041   4.689  -0.058 -0.8047  0.5300 -0.5895
 2162TIP3    H227978   0.137   4.806  -0.056  1.2286 -1.0660 -0.2616
 2163TIP3   OH227979   2.402   3.937   2.029  0.1461 -0.1534 -0.0311
 2163TIP3    H127980   2.480   3.991   2.012  0.1711 -0.0071  0.5341
 2163TIP3    H227981   2.437   3.849   2.042  0.0969 -0.3315 -1.0491
 2164TIP3   OH227982   3.329   1.113  15.751  0.4926 -0.4024 -0.1542
 2164TIP3    H127983   3.334   1.179  15.821  2.0847 -0.2352 -0.3786
 2164TIP3    H227984   3.240   1.080  15.755  0.3115  0.1935  1.4195
 2165TIP3   OH227985   0.285   3.087   4.835 -0.1269  0.1479 -0.2887
 2165TIP3    H127986   0.328   3.166   4.804  4.0585 -1.4296  0.8568
 2165TIP3    H227987   0.222   3.117   4.901  1.0288  2.5391 -0.1873
 2166TIP3   OH227988   1.300   0.605  14.399 -0.0844 -0.3939 -0.2447
 2166TIP3    H127989   1.275   0.616  14.307  0.1706  2.2456 -0.0653
 2166TIP3    H227990   1.371   0.541  14.397 -1.8999 -2.5203 -1.5262
 2167TIP3   OH227991   2.717   0.767  17.007 -0.2188 -0.2951 -0.2264
 2167TIP3    H127992   2.641   0.814  16.974  0.3861 -0.0778 -1.3324
 2167TIP3    H227993   2.781   0.835  17.026  0.3442 -0.5950 -1.0120
 2168TIP3   OH227994   2.768   4.901  14.676  0.3025  0.1249 -0.3309
 2168TIP3    H127995   2.676   4.920  14.695  0.3751 -1.2530  1.6082
 2168TIP3    H227996   2.767   4.864  14.588 -1.0072  0.0344 -0.2965
 2169TIP3   OH227997   2.022   3.179   3.462 -0.1408  0.7260 -0.1159
 2169TIP3    H127998   2.030   3.182   3.557  0.7470 -0.0442 -0.1416
 2169TIP3    H227999   1.996   3.268   3.437  3.1691  2.0516  0.5873
 2170TIP3   OH228000   3.129   1.332  15.686  0.0748 -1.0380  0.0398
 2170TIP3    H128001   3.135   1.262  15.621  0.2476  0.1528 -1.2788
 2170TIP3    H228002   3.041   1.322  15.723  0.5283 -2.6672  0.7446
 2171TIP3   OH228003   4.601   5.042  14.005 -0.4433 -0.3818 -0.5966
 2171TIP3    H128004   4.522   5.042  13.950 -0.1524 -1.1285 -1.0319
 2171TIP3    H228005   4.668   5.083  13.951 -0.7545  1.1476  0.1369
 2172TIP3   OH228006   3.841   6.706   2.927 -0.3298  0.2929 -0.2173
 2172TIP3    H128007   3.839   6.612   2.913 -1.7955  0.2313  0.2982
 2172TIP3    H228008   3.931   6.731   2.905  0.4201 -1.3862  0.7488
 2173TIP3   OH228009   0.374   3.640   3.810  0.0370  0.2066  0.2314
 2173TIP3    H128010   0.466   3.642   3.834 -0.1842 -2.1745  1.5933
 2173TIP3    H228011   0.327   3.654   3.893 -0.8839  1.8247 -0.5014
 2174TIP3   OH228012   1.672   3.381   2.443  0.2644  0.1602  0.5512
 2174TIP3    H128013   1.649   3.427   2.362  0.4363 -0.6226  0.0456
 2174TIP3    H228014   1.764   3.358   2.432 -0.0249 -0.9910  0.4463
 2175TIP3   OH228015   0.248   4.117   4.991 -0.5085 -0.2854  0.7169
 2175TIP3    H128016   0.213   4.117   5.080  1.8081  0.9975  1.7332
 2175TIP3    H228017   0.342   4.100   5.002  0.1846  1.7597 -1.2597
 2176TIP3   OH228018   1.174   1.090   4.096 -0.6613 -0.5767 -0.3669
 2176TIP3    H128019   1.245   1.079   4.160 -2.8990  0.2265  2.4538
 2176TIP3    H228020   1.116   1.016   4.112 -2.5158  0.9655  0.3289
 2177TIP3   OH228021   0.902   0.519   6.634 -0.6536  0.8028 -0.2392
 2177TIP3    H128022   0.871   0.606   6.610 -2.5620 -0.0161 -0.9125
 2177TIP3    H228023   0.931   0.480   6.551  2.9008  1.6824  0.3846
 2178TIP3   OH228024   1.170   1.045  17.220 -0.1822 -0.0432 -0.4698
 2178TIP3    H128025   1.228   1.109  17.263  0.0254  0.1642 -1.0469
 2178TIP3    H228026   1.208   0.960  17.243  0.1613  0.0804 -0.5615
 2179TIP3   OH228027   3.885   3.698  13.863 -0.0390 -0.2833 -0.2251
 2179TIP3    H128028   3.978   3.709  13.844 -0.0973 -0.7616 -0.8111
 2179TIP3    H228029   3.878   3.608  13.895 -0.1958 -0.0178  0.5084
 2180TIP3   OH228030   4.427   0.015   2.081 -0.0700 -0.2662  0.1325
 2180TIP3    H128031   4.459   0.096   2.041  0.0776  0.6990  2.1061
 2180TIP3    H228032   4.505  -0.024   2.121 -0.3471 -0.8203  0.1343
 2181TIP3   OH228033   3.517   3.135   2.418 -0.1446  0.5630  0.4042
 2181TIP3    H128034   3.537   3.050   2.459 -1.2361  0.2761  0.3749
 2181TIP3    H228035   3.510   3.196   2.492  0.6062  0.6219  0.4283
 2182TIP3   OH228036   0.269   3.465  11.323  0.5059 -0.1371 -0.1664
 2182TIP3    H128037   0.213   3.526  11.275  2.4711  0.4786 -1.8411
 2182TIP3    H228038   0.274   3.388  11.266  3.1454  0.7320 -1.2866
 2183TIP3   OH228039   2.551   6.323  14.264 -0.3559 -0.4602  0.1997
 2183TIP3    H128040   2.641   6.291  14.274 -0.8626 -1.9971  0.1486
 2183TIP3    H228041   2.507   6.255  14.213 -1.0234  1.2832 -1.6977
 2184TIP3   OH228042   6.669   2.302  10.847  0.1596 -0.0672  0.3479
 2184TIP3    H128043   6.742   2.356  10.816 -0.2407 -0.0745 -0.6298
 2184TIP3    H228044   6.663   2.230  10.785 -0.5666 -0.1623  0.5100
 2185TIP3   OH228045   5.320   1.621   0.474 -0.1781 -0.0252 -0.7403
 2185TIP3    H128046   5.285   1.699   0.518 -1.2583  0.8660 -3.0438
 2185TIP3    H228047   5.290   1.548   0.528 -0.8375  1.0382  0.3879
 2186TIP3   OH228048   3.282   2.303   3.482  0.1441 -0.3587 -0.2040
 2186TIP3    H128049   3.214   2.366   3.505  0.3768 -0.6779  1.4408
 2186TIP3    H228050   3.358   2.328   3.535  0.8943 -0.8076 -1.0342
 2187TIP3   OH228051   0.175   4.474  13.089  0.0498  0.6657  0.1014
 2187TIP3    H128052   0.198   4.463  13.181  0.8007  0.2981 -0.1194
 2187TIP3    H228053   0.259   4.489  13.045 -0.3861  1.7715 -0.3984
 2188TIP3   OH228054   4.439   6.305   3.728 -0.3385  0.3062  0.0515
 2188TIP3    H128055   4.414   6.362   3.801 -0.7084  1.4816 -0.9552
 2188TIP3    H228056   4.419   6.217   3.759  0.6450  0.6613  1.8083
 2189TIP3   OH228057   2.452   1.893  14.622 -0.0669 -0.3338 -0.1835
 2189TIP3    H128058   2.366   1.931  14.603 -0.1673 -0.6869 -0.4458
 2189TIP3    H228059   2.438   1.798  14.619 -0.0376 -0.4193  1.4415
 2190TIP3   OH228060   2.726   4.324   0.236 -0.2186  0.1713  0.6544
 2190TIP3    H128061   2.736   4.251   0.298  1.2244 -1.2680 -1.1144
 2190TIP3    H228062   2.635   4.318   0.206 -0.3914 -0.2926  1.2468
 2191TIP3   OH228063   4.160   4.253   2.678 -0.5126  0.1529  0.4862
 2191TIP3    H128064   4.115   4.322   2.726 -1.0965 -0.3773  0.7053
 2191TIP3    H228065   4.094   4.186   2.663 -0.0496 -0.1919 -0.0702
 2192TIP3   OH228066   1.729   2.440  11.002 -0.5752 -0.6049 -0.0325
 2192TIP3    H128067   1.759   2.350  10.988 -2.0412 -1.0329 -0.5980
 2192TIP3    H228068   1.677   2.460  10.924  1.2011  1.4035 -0.8023
 2193TIP3   OH228069   2.485   2.440  16.967 -0.4003  0.0442 -0.5861
 2193TIP3    H128070   2.452   2.461  16.880 -1.9928 -1.7566 -0.4987
 2193TIP3    H228071   2.568   2.396  16.951 -0.5722 -0.0739 -1.1878
 2194TIP3   OH228072   2.397   6.179   6.289  0.1184 -0.3352  0.0340
 2194TIP3    H128073   2.314   6.137   6.268  0.6819 -1.7563  0.4795
 2194TIP3    H228074   2.394   6.194   6.383  0.4683 -0.6715  0.1044
 2195TIP3   OH228075   1.463   5.177   2.666 -0.1960  0.5329 -0.7628
 2195TIP3    H128076   1.461   5.233   2.743 -1.1843  0.5079 -0.7615
 2195TIP3    H228077   1.556   5.170   2.644  0.1883 -0.1432  0.9256
 2196TIP3   OH228078   0.493   2.460   1.958  0.0499 -0.2086  0.0241
 2196TIP3    H128079   0.447   2.506   1.887 -0.2163 -1.0280 -0.3463
 2196TIP3    H228080   0.585   2.481   1.944 -0.2238  2.6959  1.6551
 2197TIP3   OH228081   6.524   5.419   2.872  0.2369 -0.2223 -0.6578
 2197TIP3    H128082   6.548   5.507   2.842 -0.1588 -0.3295 -1.3201
 2197TIP3    H228083   6.607   5.371   2.873  0.9345  0.8534  2.3045
 2198TIP3   OH228084   6.067   0.929   2.511 -0.8999 -0.4439  0.2796
 2198TIP3    H128085   6.097   1.012   2.475 -0.1764 -0.1757  1.4421
 2198TIP3    H228086   5.981   0.916   2.472 -1.1751  1.0165  0.3407
 2199TIP3   OH228087   3.911   4.517  12.611 -0.2001 -0.1888  0.1528
 2199TIP3    H128088   3.995   4.472  12.619  0.2750  0.5179 -0.6615
 2199TIP3    H228089   3.910   4.579  12.684  0.2299  0.1710 -0.1428
 2200TIP3   OH228090   1.540   3.128  15.565  0.0934  0.5036 -0.2096
 2200TIP3    H128091   1.629   3.145  15.594 -0.1984 -0.0921  1.1471
 2200TIP3    H228092   1.485   3.178  15.626 -0.4921  1.3630 -1.4075
 2201TIP3   OH228093   3.448   0.880  13.494  0.1260 -0.2502  0.4908
 2201TIP3    H128094   3.542   0.898  13.494 -0.1862  1.5729  1.2556
 2201TIP3    H228095   3.438   0.804  13.436  1.9866 -0.0325 -0.1755
 2202TIP3   OH228096   0.540   1.101   5.961  0.1455 -0.0342 -0.3577
 2202TIP3    H128097   0.459   1.051   5.974 -0.5400  1.6224  2.4851
 2202TIP3    H228098   0.600   1.067   6.027  0.4110  1.3206  0.1390
 2203TIP3   OH228099   0.672   5.627   1.025 -0.2361  0.3834 -0.0175
 2203TIP3    H128100   0.678   5.573   0.946 -0.0517  0.7156 -0.2388
 2203TIP3    H228101   0.600   5.590   1.075 -2.5464  2.0924 -1.8548
 2204TIP3   OH228102   3.320   0.788   0.512 -0.6354 -0.2138 -0.5391
 2204TIP3    H128103   3.403   0.776   0.465 -0.8274 -0.0691 -0.9136
 2204TIP3    H228104   3.256   0.808   0.444 -0.8292  0.4245 -0.1782
 2205TIP3   OH228105   2.531   0.238  12.874  0.1047 -0.0924  0.3806
 2205TIP3    H128106   2.448   0.239  12.922 -0.3929  0.5944 -0.4509
 2205TIP3    H228107   2.563   0.149  12.883  0.3516  0.1705  2.4851
 2206TIP3   OH228108   3.960   2.895  16.705 -0.4969 -0.0040  0.2919
 2206TIP3    H128109   4.053   2.912  16.690 -0.6708  0.3348 -0.4676
 2206TIP3    H228110   3.944   2.809  16.667 -0.7458  0.4638 -0.6870
 2207TIP3   OH228111   1.823   6.275   4.817 -0.1767 -0.5133 -0.2374
 2207TIP3    H128112   1.770   6.343   4.859 -0.5930 -1.2387  0.4382
 2207TIP3    H228113   1.768   6.197   4.820  0.4628 -0.9860 -0.6245
 2208TIP3   OH228114   2.052   1.981   1.661  0.3592 -0.0561  0.3438
 2208TIP3    H128115   1.992   2.041   1.705  1.4029  0.7761  0.6748
 2208TIP3    H228116   2.042   2.002   1.568  0.6585  0.5920  0.4496
 2209TIP3   OH228117   1.253   4.833   1.645  0.1749 -0.5755  0.0337
 2209TIP3    H128118   1.218   4.903   1.589  0.5051 -0.0777  0.4344
 2209TIP3    H228119   1.202   4.839   1.726  1.1990  0.2000  0.6491
 2210TIP3   OH228120   4.687   6.045   5.856  0.1490 -0.3846  0.1703
 2210TIP3    H128121   4.675   6.140   5.855 -1.2852 -0.5358  0.0355
 2210TIP3    H228122   4.693   6.022   5.949  0.6309 -0.1549  0.1983
 2211TIP3   OH228123   4.337   1.776  14.825 -0.2440 -0.2090 -0.0185
 2211TIP3    H128124   4.279   1.814  14.760 -2.1301 -1.2057  0.9741
 2211TIP3    H228125   4.399   1.846  14.847 -0.4140  0.5666 -1.8454
 2212TIP3   OH228126   1.937   1.356  12.945 -0.2623  0.2651  0.0090
 2212TIP3    H128127   1.890   1.440  12.943 -1.6561 -0.5057 -0.6277
 2212TIP3    H228128   2.007   1.367  12.881 -0.6198  0.8477 -0.2906
 2213TIP3   OH228129   2.741   4.088   2.611 -0.0007 -0.9234  0.3848
 2213TIP3    H128130   2.681   4.162   2.603 -0.1101 -1.0036  0.4590
 2213TIP3    H228131   2.791   4.089   2.529  0.5272 -0.3142  0.7137
 2214TIP3   OH228132   4.535   2.980   0.236  0.0290  0.5547 -0.0294
 2214TIP3    H128133   4.523   3.044   0.307  0.2543  0.9674 -0.3556
 2214TIP3    H228134   4.501   3.024   0.158 -1.7525 -0.5068  0.0790
 2215TIP3   OH228135   2.530   0.300  10.972  0.1588  0.3391 -0.7301
 2215TIP3    H128136   2.580   0.232  10.925 -0.1066  0.9055 -1.8707
 2215TIP3    H228137   2.439   0.278  10.955  0.0532  0.3723 -0.2039
 2216TIP3   OH228138   2.758   1.183   3.417  0.0020 -0.7202 -0.0623
 2216TIP3    H128139   2.752   1.244   3.344  1.1952 -0.2347  0.2241
 2216TIP3    H228140   2.667   1.166   3.442 -0.3649  0.3771 -0.6123
 2217TIP3   OH228141   1.206   4.625   1.410 -0.6630  0.5037 -0.2974
 2217TIP3    H128142   1.254   4.704   1.385 -0.4723  0.3173 -0.5243
 2217TIP3    H228143   1.168   4.646   1.496 -2.4514  1.6505 -1.3040
 2218TIP3   OH228144   2.256   6.754   2.925  0.3557 -0.1199 -0.2915
 2218TIP3    H128145   2.167   6.719   2.928  0.3462 -0.0435  0.9229
 2218TIP3    H228146   2.277   6.759   2.832 -1.5279  1.4034 -0.7134
 2219TIP3   OH228147   2.960   4.259  12.995  0.3781  0.1228 -0.2138
 2219TIP3    H128148   2.914   4.279  12.913 -0.0808 -1.5221 -0.3800
 2219TIP3    H228149   3.051   4.246  12.969  0.5468  1.1794 -0.2060
 2220TIP3   OH228150   1.433   6.443   4.329 -0.2163  0.6739 -0.3847
 2220TIP3    H128151   1.519   6.432   4.371 -0.8201 -0.5945  0.5842
 2220TIP3    H228152   1.371   6.415   4.395 -1.4927  2.6736 -0.6511
 2221TIP3   OH228153   3.474   6.388   1.753 -0.1240  0.5456  0.2348
 2221TIP3    H128154   3.477   6.483   1.763 -0.4825  0.5768  0.0644
 2221TIP3    H228155   3.423   6.374   1.673  2.8235  0.3275 -1.7566
 2222TIP3   OH228156   6.088   3.872   2.770  0.3381  0.2276 -0.6968
 2222TIP3    H128157   5.996   3.894   2.753  0.1203  0.3647  0.5529
 2222TIP3    H228158   6.136   3.951   2.745 -0.0335  0.6634 -0.0807
 2223TIP3   OH228159   0.953   2.224   0.465 -0.1767  0.1465 -0.3081
 2223TIP3    H128160   0.952   2.234   0.370 -1.0909 -0.9461 -0.4239
 2223TIP3    H228161   0.883   2.162   0.484  1.0020 -0.8665  0.9445
 2224TIP3   OH228162   4.489   0.942  15.994 -0.1882 -0.4800  0.1445
 2224TIP3    H128163   4.449   0.961  16.079  0.0002  0.9120 -0.0586
 2224TIP3    H228164   4.462   0.852  15.975  0.7345 -1.2847  2.2177
 2225TIP3   OH228165   3.846   1.230   4.256 -0.1138  0.1987  0.0379
 2225TIP3    H128166   3.928   1.200   4.295 -0.9119 -1.5538  0.4814
 2225TIP3    H228167   3.871   1.258   4.167  0.8213 -1.3001 -0.2141
 2226TIP3   OH228168   2.051   2.874  15.764  0.1214  0.1673 -0.1981
 2226TIP3    H128169   2.066   2.783  15.791  1.9198  0.4395 -0.1251
 2226TIP3    H228170   2.052   2.871  15.668  0.1879  0.1060 -0.1954
 2227TIP3   OH228171   4.169   0.322   4.175 -0.3051 -0.4151  0.5324
 2227TIP3    H128172   4.207   0.242   4.138  2.0723  0.8526 -0.0085
 2227TIP3    H228173   4.149   0.300   4.266  2.4309 -1.0910  1.0715
 2228TIP3   OH228174   5.372   3.892   2.781  0.2771  0.4950  0.3735
 2228TIP3    H128175   5.305   3.901   2.849  1.6702 -0.6632  1.9762
 2228TIP3    H228176   5.346   3.956   2.715 -2.0922  0.4856  1.1675
 2229TIP3   OH228177   3.663   1.381   6.041 -0.3230  0.1635 -0.3188
 2229TIP3    H128178   3.707   1.384   6.126 -2.9012 -0.1948  1.1421
 2229TIP3    H228179   3.667   1.471   6.009  1.4806  0.1264 -0.3217
 2230TIP3   OH228180   2.601   0.812  13.509 -0.1293 -0.8759 -0.5231
 2230TIP3    H128181   2.608   0.868  13.432  0.5289  0.7292  0.6440
 2230TIP3    H228182   2.579   0.872  13.581  3.8297 -1.4495  1.4419
 2231TIP3   OH228183   0.628   3.389   6.178 -0.0977 -0.1683 -0.1779
 2231TIP3    H128184   0.643   3.437   6.259  2.9739  1.1326 -1.3733
 2231TIP3    H228185   0.640   3.297   6.202  1.3655  0.2459  0.7358
 2232TIP3   OH228186   1.617   1.338  14.596 -0.2232  0.3080  0.4739
 2232TIP3    H128187   1.615   1.433  14.599  1.4973  0.4001 -0.0780
 2232TIP3    H228188   1.612   1.316  14.503  3.3583  0.1058  0.1949
 2233TIP3   OH228189   0.784   6.157  15.853  0.4087  0.0316  0.4500
 2233TIP3    H128190   0.766   6.063  15.858  0.8262  0.0110  1.7858
 2233TIP3    H228191   0.755   6.192  15.937 -3.5558  1.8350 -1.4035
 2234TIP3   OH228192   4.825   0.714  10.961 -1.0122  0.3388  0.5638
 2234TIP3    H128193   4.871   0.787  10.918  0.1747  0.0285  1.2804
 2234TIP3    H228194   4.881   0.689  11.034 -2.7254  0.4839  1.9984
 2235TIP3   OH228195   6.393   4.384   4.622  0.1204  0.9294 -0.0041
 2235TIP3    H128196   6.435   4.469   4.603  0.6068  0.2357 -2.3812
 2235TIP3    H228197   6.458   4.319   4.595 -0.8137 -0.2089  0.4141
 2236TIP3   OH228198   5.475   5.169   3.360 -0.2759 -0.1466 -0.1161
 2236TIP3    H128199   5.558   5.143   3.319 -0.3858  0.6681 -0.8890
 2236TIP3    H228200   5.498   5.245   3.414 -0.8841  1.6901 -2.2598
 2237TIP3   OH228201   1.813   3.008   2.401 -0.1173  0.3478  0.4418
 2237TIP3    H128202   1.730   3.025   2.356  0.6682 -0.0369 -1.2434
 2237TIP3    H228203   1.843   3.094   2.429 -1.2085  0.4584  1.3534
 2238TIP3   OH228204   3.988   1.028   6.334 -0.5632  0.9121 -0.6493
 2238TIP3    H128205   4.040   0.970   6.389  1.0725  0.2931 -2.7055
 2238TIP3    H228206   3.930   1.074   6.395 -1.4342 -2.2932  1.1670
 2239TIP3   OH228207   1.340   0.104   1.286  0.6413 -0.7026  0.6361
 2239TIP3    H128208   1.365   0.118   1.377 -0.3838  1.5518  0.6521
 2239TIP3    H228209   1.422   0.105   1.238  1.0720 -0.1428  1.3627
 2240TIP3   OH228210   1.234   2.449  17.278 -0.1355 -0.7753  0.3983
 2240TIP3    H128211   1.158   2.391  17.284  0.0284 -0.9358  0.9902
 2240TIP3    H228212   1.302   2.405  17.330  0.4707 -0.7995 -0.4010
 2241TIP3   OH228213   4.680   2.828   4.685  0.0881  0.2143  0.0710
 2241TIP3    H128214   4.757   2.813   4.631  0.3656 -1.1221  0.8050
 2241TIP3    H228215   4.660   2.920   4.672  1.3172  0.3910 -0.7658
 2242TIP3   OH228216   1.079   6.571   5.580  0.0826  0.4332 -0.2104
 2242TIP3    H128217   1.115   6.660   5.578 -1.3583  1.0457 -0.1979
 2242TIP3    H228218   1.020   6.571   5.655 -1.4033  0.0669 -1.3510
 2243TIP3   OH228219   5.464   5.116  13.407  0.7926  0.0718 -0.3996
 2243TIP3    H128220   5.390   5.119  13.346  0.0808 -0.3429  0.4161
 2243TIP3    H228221   5.471   5.024  13.431  0.6929  0.3078  0.5741
 2244TIP3   OH228222   5.917   1.924   2.330 -0.5996 -0.0053  0.2492
 2244TIP3    H128223   5.905   1.999   2.388 -2.3558  0.8675 -1.1535
 2244TIP3    H228224   5.956   1.961   2.251 -0.3153 -0.7881  0.0156
 2245TIP3   OH228225   5.676   5.850   2.728 -0.3168  0.3082  0.5645
 2245TIP3    H128226   5.771   5.860   2.726 -0.2725  0.4178  1.9084
 2245TIP3    H228227   5.656   5.787   2.659  0.8572 -0.5975  1.0269
 2246TIP3   OH228228   4.529   4.393  17.094  0.3355 -0.5257 -0.0309
 2246TIP3    H128229   4.585   4.370  17.168  3.4026  0.2748 -1.9199
 2246TIP3    H228230   4.510   4.486  17.107 -0.8401 -0.8513  0.7304
 2247TIP3   OH228231   0.288   0.563   5.484  0.2041 -0.0664  0.1025
 2247TIP3    H128232   0.346   0.487   5.496 -0.2460 -0.8301 -2.0688
 2247TIP3    H228233   0.242   0.545   5.402 -1.7706  1.3917  0.8131
 2248TIP3   OH228234   5.569   1.955  15.641  0.1458 -0.2539 -0.1772
 2248TIP3    H128235   5.490   1.915  15.605 -0.7072  0.9052  0.3646
 2248TIP3    H228236   5.631   1.882  15.649 -0.5324 -1.0145 -1.4852
 2249TIP3   OH228237   5.532   1.731   0.304 -0.4162 -0.4746  0.0585
 2249TIP3    H128238   5.556   1.656   0.358 -0.3568  0.7060  1.7381
 2249TIP3    H228239   5.437   1.739   0.316 -0.2617  0.3656  0.7742
 2250TIP3   OH228240   1.250   1.627  16.392  0.2799 -0.1536  0.5952
 2250TIP3    H128241   1.234   1.710  16.346  0.2822  0.0832  1.0240
 2250TIP3    H228242   1.289   1.571  16.325  1.1639  0.4951  0.5387
 2251TIP3   OH228243   6.345   4.223  13.042 -0.3393  0.3538 -0.3922
 2251TIP3    H128244   6.315   4.179  13.121 -1.1526  0.1013 -0.8336
 2251TIP3    H228245   6.384   4.154  12.989  2.2977  0.8754  0.7306
 2252TIP3   OH228246   0.791   1.767  12.716  0.4571 -0.0499 -0.1425
 2252TIP3    H128247   0.700   1.782  12.740  0.6195  2.3463 -0.7674
 2252TIP3    H228248   0.791   1.682  12.671 -1.3739 -0.2662  0.2071
 2253TIP3   OH228249   6.624   1.614  12.065 -0.2248 -0.5825  0.2009
 2253TIP3    H128250   6.692   1.666  12.023 -0.9719 -0.1522 -0.5075
 2253TIP3    H228251   6.632   1.635  12.158  0.7940 -0.7653  0.1580
 2254TIP3   OH228252   3.575   3.573  12.794 -0.0222 -0.3844  0.3032
 2254TIP3    H128253   3.494   3.617  12.820 -0.2876 -0.8648  0.2947
 2254TIP3    H228254   3.547   3.486  12.766  0.3954 -0.2557 -0.5317
 2255TIP3   OH228255   0.448   3.245  16.118 -0.2330 -0.3665  0.0519
 2255TIP3    H128256   0.523   3.292  16.081 -0.5984 -0.1693 -0.4532
 2255TIP3    H228257   0.475   3.154  16.119  1.0152 -0.0263  2.3181
 2256TIP3   OH228258   3.195   2.817   6.238 -0.4798  0.0383 -0.4230
 2256TIP3    H128259   3.205   2.912   6.237 -4.9840  0.7773 -2.4996
 2256TIP3    H228260   3.184   2.795   6.330 -0.8513  1.8189  0.0013
 2257TIP3   OH228261   5.221   0.832   1.169  0.3310 -0.1768  0.0278
 2257TIP3    H128262   5.259   0.910   1.210 -0.1962  0.1077 -0.0045
 2257TIP3    H228263   5.269   0.758   1.207  0.3231  0.1259  0.6340
 2258TIP3   OH228264   4.911   0.371   4.839  0.4029  0.2681 -0.4563
 2258TIP3    H128265   4.949   0.350   4.755 -1.5770 -1.3883 -1.0245
 2258TIP3    H228266   4.981   0.417   4.887  1.7097  0.8602 -2.7809
 2259TIP3   OH228267   6.067   4.890  11.245  0.5954  0.2828  0.0829
 2259TIP3    H128268   6.122   4.934  11.310  0.2699  2.2026 -0.8727
 2259TIP3    H228269   5.978   4.919  11.266  0.1887 -0.9985  0.2215
 2260TIP3   OH228270   3.239   0.520   4.916  0.2793  0.4791  0.1828
 2260TIP3    H128271   3.297   0.596   4.920  1.5993 -0.5279  2.2969
 2260TIP3    H228272   3.204   0.512   5.005 -0.1640 -1.1215 -0.0964
 2261TIP3   OH228273   3.353   1.223  15.995 -0.1473  0.1076 -0.1138
 2261TIP3    H128274   3.262   1.229  16.024 -0.1542  2.5361 -0.4735
 2261TIP3    H228275   3.403   1.213  16.076 -0.5819  1.0085  0.2768
 2262TIP3   OH228276   6.648   1.654  12.335 -0.0532 -0.3329 -0.1557
 2262TIP3    H128277   6.734   1.640  12.377  0.8691  1.8396 -1.1391
 2262TIP3    H228278   6.613   1.732  12.379 -1.4458 -1.0461  0.0563
 2263TIP3   OH228279   0.267   1.741   5.731 -0.0452 -0.2573  0.2004
 2263TIP3    H128280   0.282   1.825   5.775 -1.9480  0.2091  0.0446
 2263TIP3    H228281   0.212   1.691   5.791 -1.0654 -0.3692 -0.7938
 2264TIP3   OH228282   4.341   4.429  11.310  0.2918 -0.0124 -0.1279
 2264TIP3    H128283   4.324   4.505  11.365  0.0836  1.5328 -2.2344
 2264TIP3    H228284   4.403   4.460  11.244  1.7954 -2.2387  0.1451
 2265TIP3   OH228285   1.514   2.788  14.849 -0.1856  0.1926 -0.5004
 2265TIP3    H128286   1.471   2.713  14.807  0.3223 -2.0885  2.7074
 2265TIP3    H228287   1.446   2.829  14.901 -0.1933  1.3892 -1.3992
 2266TIP3   OH228288   5.255   4.521   3.812  0.0064 -0.3850 -0.3009
 2266TIP3    H128289   5.219   4.442   3.773  0.3199  0.4735 -2.5094
 2266TIP3    H228290   5.279   4.576   3.736  1.0024  1.2616  1.1354
 2267TIP3   OH228291   1.846   4.888   2.651 -0.2043  0.3084 -0.0969
 2267TIP3    H128292   1.792   4.894   2.572 -1.3766  0.5631  0.6961
 2267TIP3    H228293   1.792   4.838   2.712 -0.5119  2.4261  1.4806
 2268TIP3   OH228294   3.029   1.307  13.841  0.4350 -0.2058  0.2917
 2268TIP3    H128295   3.024   1.356  13.924 -1.0891 -1.1525  0.7934
 2268TIP3    H228296   3.107   1.342  13.798  0.9427  0.7212  1.8650
 2269TIP3   OH228297   6.048   6.263  14.124 -0.1819  0.1830  0.6525
 2269TIP3    H128298   6.098   6.216  14.056 -1.2918  1.5376 -1.2065
 2269TIP3    H228299   6.112   6.280  14.193  1.3008 -0.3053 -0.5341
 2270TIP3   OH228300   3.007   3.541  11.964 -0.4813  0.0479  0.6257
 2270TIP3    H128301   3.099   3.557  11.982  0.1386 -2.3436  0.0046
 2270TIP3    H228302   2.994   3.574  11.875  0.0654 -0.5353  0.3223
 2271TIP3   OH228303   5.188   2.630   3.157  0.1460 -0.0521 -0.2720
 2271TIP3    H128304   5.222   2.595   3.239 -3.8780  1.0946  2.1767
 2271TIP3    H228305   5.216   2.722   3.157  1.5306 -0.4414 -1.1295
 2272TIP3   OH228306   4.613   6.447   4.011 -0.6090  0.0334  0.2860
 2272TIP3    H128307   4.673   6.510   4.050 -1.8747 -0.4613  3.3405
 2272TIP3    H228308   4.587   6.390   4.084 -3.7120 -0.6317 -1.1519
 2273TIP3   OH228309   3.630   5.563  12.622  0.3721  0.0753 -0.1392
 2273TIP3    H128310   3.596   5.635  12.675  1.1603 -0.0905  0.6212
 2273TIP3    H228311   3.563   5.494  12.628  0.2103  0.2632  0.1933
 2274TIP3   OH228312   1.576   6.186   1.687  0.5683  0.0804  0.2493
 2274TIP3    H128313   1.577   6.097   1.722 -0.6110  0.0016  0.1368
 2274TIP3    H228314   1.627   6.181   1.607 -2.3310 -1.3881 -1.6851
 2275TIP3   OH228315   0.918   5.899   4.352 -1.0511  0.0559 -0.2144
 2275TIP3    H128316   0.862   5.832   4.392 -0.8958 -1.1753 -1.9323
 2275TIP3    H228317   0.885   5.908   4.263  0.1665  0.8424 -0.6159
 2276TIP3   OH228318   0.757   2.362   0.952  0.2871 -0.2012  0.4759
 2276TIP3    H128319   0.718   2.396   1.033 -0.3941  0.0700  0.0444
 2276TIP3    H228320   0.726   2.422   0.884  0.4162 -0.7356 -0.0610
 2277TIP3   OH228321   1.750   2.144  11.993  0.0093  0.0302  0.3709
 2277TIP3    H128322   1.658   2.139  11.969  0.1413 -0.8372  0.0255
 2277TIP3    H228323   1.750   2.163  12.087 -0.5255 -0.9926  0.5863
 2278TIP3   OH228324   4.921   5.793   1.811  0.1949  0.2827 -0.0577
 2278TIP3    H128325   4.889   5.841   1.735  0.6746  0.6607 -0.0318
 2278TIP3    H228326   4.844   5.750   1.848 -0.0771  0.2800 -0.6251
 2279TIP3   OH228327   1.726   5.958   5.414  0.0581  0.1810 -0.1884
 2279TIP3    H128328   1.713   5.997   5.327  2.6349  1.4608 -0.0909
 2279TIP3    H228329   1.699   6.026   5.475  1.6284  0.6979 -0.0267
 2280TIP3   OH228330   6.343   2.829  17.186 -0.1140  0.0945  0.1597
 2280TIP3    H128331   6.305   2.879  17.258  1.3922 -0.4817  1.4263
 2280TIP3    H228332   6.346   2.739  17.219  2.4235  0.1308  0.2440
 2281TIP3   OH228333   3.398   0.673   3.168  0.1131  0.1721  0.1096
 2281TIP3    H128334   3.311   0.678   3.207  0.7525 -0.5387  1.7156
 2281TIP3    H228335   3.388   0.713   3.081 -2.3062 -1.9049 -0.6809
 2282TIP3   OH228336   5.834   6.645  12.497 -0.1863  0.2857 -0.6079
 2282TIP3    H128337   5.903   6.675  12.438  0.3960  0.3241  0.0747
 2282TIP3    H228338   5.792   6.573  12.450  1.8767 -1.3380 -0.0754
 2283TIP3   OH228339   1.293   2.391  10.924  0.1824  0.0807 -0.1147
 2283TIP3    H128340   1.302   2.295  10.928  0.3091 -0.1356 -3.1302
 2283TIP3    H228341   1.199   2.406  10.910  0.4643  0.1265 -2.4251
 2284TIP3   OH228342   6.481   1.038  13.482  0.5456 -0.1372  0.1681
 2284TIP3    H128343   6.420   1.106  13.452  0.3560 -0.5724 -0.4466
 2284TIP3    H228344   6.426   0.962  13.498  1.1519 -1.2564 -2.5863
 2285TIP3   OH228345   5.433   3.167   1.886 -0.2217  0.4520  0.1292
 2285TIP3    H128346   5.482   3.089   1.860  1.2448  1.2395  0.4193
 2285TIP3    H228347   5.423   3.158   1.981  0.6181  0.9623  0.2758
 2286TIP3   OH228348   5.008   4.281   5.518  0.1980  0.1731  0.1431
 2286TIP3    H128349   5.033   4.270   5.610 -1.8583 -0.3220  0.6880
 2286TIP3    H228350   5.060   4.216   5.471  0.5150 -0.2745  1.0933
 2287TIP3   OH228351   5.301   0.629   0.641 -0.0628  0.1528 -0.0267
 2287TIP3    H128352   5.211   0.653   0.615  0.0863  1.7444  0.8509
 2287TIP3    H228353   5.347   0.712   0.647  1.5178 -0.6569 -0.5187
 2288TIP3   OH228354   3.771   6.698  14.693  0.1547  0.4148 -0.9847
 2288TIP3    H128355   3.709   6.747  14.747 -0.1895 -1.4057  0.3761
 2288TIP3    H228356   3.715   6.648  14.633  0.3030 -0.7957 -0.1393
 2289TIP3   OH228357   0.146   5.217  12.723 -0.0716  0.1487 -0.1207
 2289TIP3    H128358   0.168   5.125  12.735 -2.1413 -0.2198  1.2891
 2289TIP3    H228359   0.103   5.243  12.804  0.1474  2.2793 -0.6180
 2290TIP3   OH228360   0.939   6.526   1.546  0.0865 -0.5295 -0.2014
 2290TIP3    H128361   1.000   6.465   1.587  1.0134  0.4988  0.0258
 2290TIP3    H228362   0.853   6.488   1.560  0.5461 -1.2173  0.9178
 2291TIP3   OH228363   3.191   6.344   3.362 -0.3794  0.3269  0.1552
 2291TIP3    H128364   3.175   6.372   3.452 -0.0667  1.0246 -0.0006
 2291TIP3    H228365   3.104   6.338   3.323 -0.4619  1.0626  0.2033
 2292TIP3   OH228366   6.128   4.252  12.903 -0.4136 -0.1301 -0.4777
 2292TIP3    H128367   6.212   4.260  12.946 -1.0619  1.1511  0.6200
 2292TIP3    H228368   6.122   4.159  12.879  1.0834 -0.3335 -0.1615
 2293TIP3   OH228369   1.498   1.441   6.203  0.1413 -0.1589 -0.2128
 2293TIP3    H128370   1.522   1.499   6.132 -2.0376  0.2880 -0.6273
 2293TIP3    H228371   1.487   1.355   6.162  1.1362 -0.4255  0.0257
 2294TIP3   OH228372   0.787   1.172  13.520  0.4040  0.6928  0.2582
 2294TIP3    H128373   0.702   1.212  13.539  0.8985  1.6636  0.5418
 2294TIP3    H228374   0.814   1.131  13.603  0.1063  0.1698  0.0986
 2295TIP3   OH228375   5.805   4.692   4.094  0.0418 -0.0250  0.1110
 2295TIP3    H128376   5.817   4.679   4.188  0.2079 -1.5991 -0.1001
 2295TIP3    H228377   5.813   4.787   4.081  0.2810  0.1809  1.6344
 2296TIP3   OH228378   5.451   4.213   4.461  0.4505  0.7418  0.4185
 2296TIP3    H128379   5.507   4.244   4.532  0.5373  3.2439 -0.6268
 2296TIP3    H228380   5.362   4.216   4.497  0.5825  1.0837  0.7258
 2297TIP3   OH228381   0.912   2.329  12.695  0.5166  0.1854  0.2672
 2297TIP3    H128382   0.983   2.272  12.665  0.2598  0.5543 -1.1187
 2297TIP3    H228383   0.882   2.373  12.616 -2.7107 -1.5141  0.3945
 2298TIP3   OH228384   0.564   0.716  14.495 -0.4263 -0.0872 -0.2816
 2298TIP3    H128385   0.587   0.700  14.403 -0.9241  0.2252 -0.4680
 2298TIP3    H228386   0.574   0.631  14.537  3.8858  0.4985  0.3355
 2299TIP3   OH228387   4.292   0.851   4.331 -0.3128 -0.3187  0.1682
 2299TIP3    H128388   4.306   0.808   4.246  0.6460 -0.6811  0.4911
 2299TIP3    H228389   4.217   0.805   4.368  1.0723 -2.2166  0.7801
 2300TIP3   OH228390   1.720   6.760   1.668 -1.0057 -0.3992 -0.1956
 2300TIP3    H128391   1.670   6.802   1.738 -0.3450 -0.3422  0.2503
 2300TIP3    H228392   1.727   6.669   1.695 -0.2428 -0.2544  0.1105
 2301TIP3   OH228393   3.352   6.022   5.442 -0.3012  0.0716  0.7834
 2301TIP3    H128394   3.298   5.955   5.485 -0.6977  1.0950  1.9482
 2301TIP3    H228395   3.353   6.095   5.504 -1.5140  1.9434 -1.2711
 2302TIP3   OH228396   0.399   0.590  10.476 -0.1531 -0.7118  0.5145
 2302TIP3    H128397   0.395   0.529  10.549  1.1355 -0.7195  0.6045
 2302TIP3    H228398   0.474   0.646  10.495  0.3068 -0.8058 -0.8551
 2303TIP3   OH228399   0.032   1.613  16.076  0.6079  0.3279 -0.3947
 2303TIP3    H128400  -0.050   1.565  16.081  0.6558  0.2930  0.1142
 2303TIP3    H228401   0.099   1.546  16.067  0.7686  0.2193  1.3493
 2304TIP3   OH228402   4.654   1.187   6.601 -0.0676  0.4127  0.2689
 2304TIP3    H128403   4.669   1.107   6.552 -1.6574 -0.1357  0.6035
 2304TIP3    H228404   4.695   1.256   6.549  0.1182 -0.4354 -0.7359
 2305TIP3   OH228405   3.552   5.588   2.339  0.2827 -0.2127 -0.4289
 2305TIP3    H128406   3.630   5.585   2.283  0.5096 -0.3285 -0.1091
 2305TIP3    H228407   3.491   5.527   2.298 -0.2104  0.9591 -1.5154
 2306TIP3   OH228408   5.230   1.485  11.634 -0.5992  0.2715 -0.1694
 2306TIP3    H128409   5.309   1.432  11.641  0.2450  1.3452 -1.2076
 2306TIP3    H228410   5.247   1.545  11.561 -2.0805  1.0152  0.0507
 2307TIP3   OH228411   0.403   2.395   5.137 -0.3245  0.4831  0.0039
 2307TIP3    H128412   0.477   2.342   5.107 -1.7088 -1.2520 -0.5352
 2307TIP3    H228413   0.393   2.462   5.070  1.6072  1.6640  0.8088
 2308TIP3   OH228414   1.184   4.470  16.235  0.3159  0.0199 -0.1936
 2308TIP3    H128415   1.097   4.444  16.265 -0.2524 -1.2725 -2.6716
 2308TIP3    H228416   1.216   4.395  16.186  1.8357  1.3172 -1.2986
 2309TIP3   OH228417   6.182   2.522  13.443 -0.4093 -0.0532 -0.1682
 2309TIP3    H128418   6.118   2.494  13.377 -2.6538  1.2088  1.3463
 2309TIP3    H228419   6.145   2.602  13.480  0.7138 -0.7202  2.6606
 2310TIP3   OH228420   3.750   6.587  15.611  0.2273  0.2917  0.2359
 2310TIP3    H128421   3.701   6.584  15.693  0.8232  1.4294  0.6606
 2310TIP3    H228422   3.823   6.527  15.624  0.0072  0.0414  0.3255
 2311TIP3   OH228423   0.493   2.646  17.115 -0.1239 -0.1001  0.0609
 2311TIP3    H128424   0.510   2.554  17.135  1.1931 -0.0828 -0.8513
 2311TIP3    H228425   0.401   2.659  17.139  0.4290 -0.8522  3.0630
 2312TIP3   OH228426   6.065   5.508  12.218 -0.1794  0.5548  0.0917
 2312TIP3    H128427   6.040   5.448  12.147 -0.6590  2.3631 -1.3474
 2312TIP3    H228428   6.137   5.559  12.181  0.1629  0.9280  1.2443
 2313TIP3   OH228429   1.342   5.832   1.066 -0.1680  0.2248  0.1906
 2313TIP3    H128430   1.344   5.926   1.049 -1.6895  0.4449  1.1147
 2313TIP3    H228431   1.345   5.824   1.161 -2.7148 -0.4982  0.2896
 2314TIP3   OH228432   6.281   2.501  10.937  0.1614 -0.0296 -0.0180
 2314TIP3    H128433   6.307   2.476  10.848 -0.4229  0.8850 -0.4527
 2314TIP3    H228434   6.272   2.596  10.934 -1.3660 -0.1224  0.5959
 2315TIP3   OH228435   1.892   0.595   3.132  0.0772  0.3950  0.0495
 2315TIP3    H128436   1.935   0.643   3.202  0.3754  3.0904 -1.8172
 2315TIP3    H228437   1.845   0.525   3.177  1.3457  1.1260  2.7619
 2316TIP3   OH228438   2.881   0.074   2.435 -0.9703  0.7073 -0.6282
 2316TIP3    H128439   2.969   0.097   2.463 -0.7517 -0.3160 -0.4167
 2316TIP3    H228440   2.826   0.092   2.512 -0.5726 -0.8309  0.0646
 2317TIP3   OH228441   2.431   6.312  15.758  0.5825  0.1196  0.3294
 2317TIP3    H128442   2.428   6.404  15.783 -0.3198  0.3621 -0.5866
 2317TIP3    H228443   2.448   6.265  15.840  1.7830  1.1346  0.6872
 2318TIP3   OH228444   2.212   4.068   5.843 -0.7258 -0.1888  0.1441
 2318TIP3    H128445   2.132   4.031   5.881 -1.2252  0.5732 -0.1213
 2318TIP3    H228446   2.199   4.163   5.850 -0.1142 -0.0575 -0.4592
 2319TIP3   OH228447   5.655   4.823  15.580 -0.6124 -0.2224 -0.1749
 2319TIP3    H128448   5.715   4.752  15.601 -0.5005 -0.3601 -0.9278
 2319TIP3    H228449   5.576   4.804  15.630 -1.2059 -1.8075 -1.6286
 2320TIP3   OH228450   1.323   3.648   1.951 -0.5892 -0.0787  0.4594
 2320TIP3    H128451   1.392   3.604   1.902  0.1214  1.2480  0.1998
 2320TIP3    H228452   1.243   3.603   1.925 -0.1105 -0.0282 -1.2130
 2321TIP3   OH228453   0.690   5.950  13.862  0.0177 -0.3833  0.8043
 2321TIP3    H128454   0.680   5.996  13.945  0.3887  1.3844 -0.0895
 2321TIP3    H228455   0.780   5.917  13.865 -0.1999 -0.9622  1.3810
 2322TIP3   OH228456   0.189   0.022   5.845 -0.3729  0.1312 -0.0725
 2322TIP3    H128457   0.132   0.053   5.916 -0.2272  0.2185  0.0062
 2322TIP3    H228458   0.146   0.054   5.765 -0.0286  0.8720  0.0245
 2323TIP3   OH228459   4.845   2.600  13.913 -0.1134 -0.6231 -0.0199
 2323TIP3    H128460   4.858   2.520  13.862 -1.1366  0.2482 -1.7750
 2323TIP3    H228461   4.769   2.582  13.968  0.1491 -1.1100  0.1912
 2324TIP3   OH228462   1.226   1.989   3.527  0.1878 -0.1089  0.3154
 2324TIP3    H128463   1.134   1.989   3.555  0.3230  0.3711  0.7949
 2324TIP3    H228464   1.223   2.014   3.435 -0.1121  0.9737  0.5935
 2325TIP3   OH228465   0.159   4.553   2.588  0.2278  0.7794  0.1165
 2325TIP3    H128466   0.174   4.519   2.677  0.9359 -0.4328 -0.4442
 2325TIP3    H228467   0.145   4.475   2.535 -2.3876  1.5543 -0.4885
 2326TIP3   OH228468   4.972   4.185  16.244  0.0715 -0.2377 -0.2864
 2326TIP3    H128469   5.034   4.137  16.189  0.1793 -0.8338  0.3479
 2326TIP3    H228470   4.902   4.212  16.184  1.3075  1.1168 -1.1619
 2327TIP3   OH228471   3.748   6.188   0.429  0.2032  0.5104  0.5500
 2327TIP3    H128472   3.812   6.224   0.490  0.7430  1.7763 -0.6847
 2327TIP3    H228473   3.666   6.232   0.452  0.3257  0.7089  0.6130
 2328TIP3   OH228474   6.359   4.844   0.134  0.2127  0.1406 -0.3296
 2328TIP3    H128475   6.368   4.756   0.097  0.0581 -0.0662  0.1151
 2328TIP3    H228476   6.280   4.879   0.093 -0.2870 -0.3080  0.2281
 2329TIP3   OH228477   2.171   6.783  13.962  0.1280 -0.2889  0.5688
 2329TIP3    H128478   2.095   6.836  13.986 -1.0754 -1.2371 -0.9687
 2329TIP3    H228479   2.238   6.847  13.936 -1.1217  0.5339 -0.7645
 2330TIP3   OH228480   3.290   4.277   0.993  0.6300  0.3476 -0.1069
 2330TIP3    H128481   3.230   4.241   1.059  0.7541 -0.8406 -0.6195
 2330TIP3    H228482   3.237   4.286   0.914  1.2596 -1.3623 -0.7604
 2331TIP3   OH228483   5.679   5.769   5.762  0.0642 -0.5701 -0.0840
 2331TIP3    H128484   5.640   5.796   5.679 -5.3342 -2.7359  1.3319
 2331TIP3    H228485   5.682   5.850   5.814  0.2280  0.1852 -1.2337
 2332TIP3   OH228486   6.066   3.240   4.211  0.1796 -0.0258  0.0334
 2332TIP3    H128487   6.091   3.239   4.304  0.9310  0.3999 -0.1516
 2332TIP3    H228488   6.144   3.206   4.166 -0.6322 -1.4551 -0.3575
 2333TIP3   OH228489   1.810   5.361  13.432  0.3093  0.2617  0.0459
 2333TIP3    H128490   1.886   5.303  13.439  0.2131  0.2384  1.0804
 2333TIP3    H228491   1.822   5.424  13.504 -0.2357  0.7509 -0.2845
 2334TIP3   OH228492   5.686   6.761  12.943 -0.3193 -0.1054 -0.3508
 2334TIP3    H128493   5.638   6.681  12.965  0.6788 -0.3204  1.1294
 2334TIP3    H228494   5.744   6.735  12.871  0.5173 -0.9149  0.5980
 2335TIP3   OH228495   2.784   2.394  14.947 -0.0499  0.2899  0.5262
 2335TIP3    H128496   2.814   2.310  14.983 -0.6907  0.1639  0.7674
 2335TIP3    H228497   2.692   2.379  14.925  0.7613 -0.2565 -3.0023
 2336TIP3   OH228498   3.393   6.704   2.901 -0.4413  0.2217  0.5113
 2336TIP3    H128499   3.438   6.650   2.966  0.9870  1.9337  1.0038
 2336TIP3    H228500   3.459   6.721   2.834 -1.3929 -0.0638 -0.5344
 2337TIP3   OH228501   2.421   3.273   3.753 -0.5290 -0.0255  0.3218
 2337TIP3    H128502   2.451   3.353   3.796 -0.5758 -0.0508  0.4044
 2337TIP3    H228503   2.489   3.251   3.690 -1.0601  0.7304 -0.5439
 2338TIP3   OH228504   4.603   2.241   5.247  0.4566 -0.0956 -0.3004
 2338TIP3    H128505   4.667   2.180   5.209  1.6265  0.0235  1.3310
 2338TIP3    H228506   4.643   2.327   5.237 -0.2332  0.1719 -0.7606
 2339TIP3   OH228507   2.219   3.279  12.101  0.3656  0.0219  0.0741
 2339TIP3    H128508   2.217   3.279  12.005  0.4641 -2.6505 -0.0254
 2339TIP3    H228509   2.135   3.240  12.126 -0.3821  2.1762  1.2036
 2340TIP3   OH228510   4.823   6.777   0.517 -0.4348 -0.2233 -0.1868
 2340TIP3    H128511   4.740   6.804   0.476  0.1835  1.3784 -0.4659
 2340TIP3    H228512   4.796   6.735   0.599 -1.5466 -0.3596 -0.5982
 2341TIP3   OH228513   5.292   1.494  17.220  0.0257 -0.0990  0.1225
 2341TIP3    H128514   5.374   1.452  17.195  0.1669 -0.3164  0.9240
 2341TIP3    H228515   5.229   1.422  17.227 -0.3047  0.1017 -0.7699
 2342TIP3   OH228516   1.233   5.794  13.629 -0.4699  0.5627 -0.1796
 2342TIP3    H128517   1.268   5.726  13.571 -0.9025  0.4717 -0.3350
 2342TIP3    H228518   1.308   5.821  13.682  0.0611  0.9828 -1.1030
 2343TIP3   OH228519   4.736   1.229   3.626 -0.1450  0.1699  0.3015
 2343TIP3    H128520   4.721   1.244   3.719 -0.4118 -1.6535  0.6017
 2343TIP3    H228521   4.720   1.135   3.614  2.0696 -0.0842 -1.1629
 2344TIP3   OH228522   0.796   6.588   2.598 -0.0087 -0.9337  0.3534
 2344TIP3    H128523   0.822   6.680   2.605 -0.1046 -0.7546 -1.3504
 2344TIP3    H228524   0.701   6.589   2.615 -0.0288 -0.7049  0.2268
 2345TIP3   OH228525   6.591   5.770  14.913 -0.6326  0.1964  0.1156
 2345TIP3    H128526   6.511   5.718  14.902 -0.2357 -0.7019  1.3027
 2345TIP3    H228527   6.592   5.827  14.836 -1.5246 -0.9733 -0.8166
 2346TIP3   OH228528   1.982   5.320   6.225 -0.2673 -0.5829 -0.2915
 2346TIP3    H128529   2.057   5.276   6.265  0.9064  1.2480 -0.3426
 2346TIP3    H228530   1.957   5.388   6.287 -0.0153  0.6730 -1.4918
 2347TIP3   OH228531   0.532   5.486  12.677 -0.0066  0.0906 -0.0635
 2347TIP3    H128532   0.625   5.482  12.653  0.0222 -0.9856  0.1716
 2347TIP3    H228533   0.532   5.518  12.767  0.0010  2.0584 -0.7107
 2348TIP3   OH228534   5.273   0.166  10.928 -0.0711  0.1015  0.2190
 2348TIP3    H128535   5.271   0.191  11.020 -0.3906  0.4437  0.1226
 2348TIP3    H228536   5.187   0.125  10.913  0.9641 -2.4236  0.7420
 2349TIP3   OH228537   2.998   2.924   2.528  0.6366  0.2999 -0.0452
 2349TIP3    H128538   2.968   3.014   2.517 -2.4926 -0.7546 -0.9991
 2349TIP3    H228539   3.093   2.930   2.516  0.5388  3.4126 -0.1998
 2350TIP3   OH228540   5.716   2.177  11.616 -0.6651  1.1006 -0.0345
 2350TIP3    H128541   5.793   2.127  11.645  0.1161  2.4401  0.3164
 2350TIP3    H228542   5.662   2.184  11.694 -0.9423  0.5407 -0.1689
 2351TIP3   OH228543   0.040   1.949   4.969  0.1243  0.4987 -0.4539
 2351TIP3    H128544  -0.036   1.985   5.013  0.2087  0.4603 -0.2767
 2351TIP3    H228545   0.113   2.005   4.996  0.3735 -0.1812  0.3421
 2352TIP3   OH228546   2.020   4.663  15.601  0.2560  0.1113  0.0604
 2352TIP3    H128547   2.037   4.572  15.576  1.7599  0.4017 -0.0470
 2352TIP3    H228548   2.044   4.714  15.524 -0.4200  0.6223  0.1810
 2353TIP3   OH228549   4.621   1.364  14.896 -0.0007  0.5080 -0.9914
 2353TIP3    H128550   4.554   1.373  14.964  1.7525 -0.6342  1.0403
 2353TIP3    H228551   4.596   1.427  14.828 -3.6354 -0.5886 -0.8568
 2354TIP3   OH228552   3.308   0.674  12.245  0.2809  0.8085 -0.2035
 2354TIP3    H128553   3.271   0.675  12.334 -0.5337  2.0839 -0.5124
 2354TIP3    H228554   3.297   0.584  12.215 -1.2441  0.7957  0.2946
 2355TIP3   OH228555   2.631   4.039  15.764 -0.3059 -0.1510  0.1564
 2355TIP3    H128556   2.543   4.043  15.802 -0.5645 -0.4774 -0.4087
 2355TIP3    H228557   2.660   3.949  15.778  0.1491  0.0848  0.7961
 2356TIP3   OH228558   3.139   6.227   1.661  0.1798  0.4134 -0.0393
 2356TIP3    H128559   3.118   6.188   1.746  1.4444  1.3507  0.7534
 2356TIP3    H228560   3.137   6.154   1.599 -1.3666 -0.1802  0.6660
 2357TIP3   OH228561   2.059   6.101  15.183  0.2454  0.1569  0.5498
 2357TIP3    H128562   2.099   6.014  15.184 -2.2099 -1.0641  2.2784
 2357TIP3    H228563   2.127   6.159  15.217  1.7637 -1.1332 -0.1300
 2358TIP3   OH228564   4.120   0.640   4.143 -0.6766  0.0608 -0.5456
 2358TIP3    H128565   4.159   0.559   4.178 -1.9171 -0.6583 -0.7516
 2358TIP3    H228566   4.062   0.671   4.212  0.4361  1.2876 -0.1212
 2359TIP3   OH228567   5.439   0.123  12.890  0.0094 -0.1957 -0.1264
 2359TIP3    H128568   5.394   0.044  12.918  0.3664 -0.5268 -0.4842
 2359TIP3    H228569   5.532   0.104  12.900  0.1081  1.2300  2.6581
 2360TIP3   OH228570   0.812   3.189  15.057 -0.0330 -0.2409  0.1842
 2360TIP3    H128571   0.862   3.224  15.130 -0.1382  0.9490 -0.2938
 2360TIP3    H228572   0.780   3.104  15.088  0.9646 -0.3200  1.0545
 2361TIP3   OH228573   1.102   5.319   0.482 -0.1693  0.5071  0.2191
 2361TIP3    H128574   1.183   5.314   0.532 -0.3528 -0.4636  0.4421
 2361TIP3    H228575   1.129   5.348   0.395  0.3596  0.6148  0.4183
 2362TIP3   OH228576   1.536   3.034  11.855  0.4361  0.0489  0.0456
 2362TIP3    H128577   1.466   2.991  11.904 -1.2145  0.4092 -1.8930
 2362TIP3    H228578   1.502   3.120  11.833  2.9912  1.7914  2.2653
 2363TIP3   OH228579   4.775   0.310   1.293  0.5640  0.2019 -0.0751
 2363TIP3    H128580   4.706   0.323   1.358 -1.7887  1.1710 -2.5650
 2363TIP3    H228581   4.768   0.218   1.270 -0.7991  0.5387 -1.1537
 2364TIP3   OH228582   1.708   1.142   1.132  0.2660  0.4212  0.3204
 2364TIP3    H128583   1.720   1.055   1.094  0.1943  0.4666  0.1956
 2364TIP3    H228584   1.755   1.137   1.215  0.5340  0.3635  0.1676
 2365TIP3   OH228585   4.285   2.207   4.308 -0.2306  0.2968  0.0663
 2365TIP3    H128586   4.223   2.179   4.375 -0.6119  3.1813  1.0865
 2365TIP3    H228587   4.371   2.184   4.342 -0.1623  4.0449  3.0784
 2366TIP3   OH228588   0.995   4.390  12.448  0.0870 -0.3003 -0.3595
 2366TIP3    H128589   1.007   4.472  12.400  0.7226 -0.5924 -0.7109
 2366TIP3    H228590   1.078   4.375  12.492 -0.1639 -0.5457  0.0392
 2367TIP3   OH228591   6.553   5.598  13.739  0.2470  0.8966 -0.6491
 2367TIP3    H128592   6.614   5.531  13.770  1.9269  2.3335 -0.6436
 2367TIP3    H228593   6.555   5.589  13.644  0.5044  0.9482 -0.6509
 2368TIP3   OH228594   0.388   5.332  11.907 -0.1071  0.0558  0.3102
 2368TIP3    H128595   0.433   5.299  11.985  1.1574 -0.3927 -0.5680
 2368TIP3    H228596   0.459   5.358  11.848 -0.7674 -3.7144 -2.4961
 2369TIP3   OH228597   6.540   5.281  11.331  0.2669 -0.0775  0.5977
 2369TIP3    H128598   6.450   5.270  11.299  0.9665  0.4320 -1.7644
 2369TIP3    H228599   6.588   5.208  11.291  1.4797  1.4155 -0.8135
 2370TIP3   OH228600   5.423   1.840  12.288  0.6003  0.3614 -0.0469
 2370TIP3    H128601   5.350   1.876  12.237 -0.6828 -1.3278  0.5111
 2370TIP3    H228602   5.439   1.905  12.356  0.2155  1.1532 -0.6941
 2371TIP3   OH228603   2.073   4.508   5.256  0.3448 -0.0826 -0.7070
 2371TIP3    H128604   2.084   4.413   5.251  0.3143 -0.1085 -0.2551
 2371TIP3    H228605   2.128   4.542   5.186  2.1557 -0.2987  0.5640
 2372TIP3   OH228606   3.168   6.514  11.480 -0.1475  0.1405 -0.0249
 2372TIP3    H128607   3.173   6.588  11.541 -1.1248  0.0861  0.1352
 2372TIP3    H228608   3.109   6.452  11.522  0.7632 -0.8071 -0.0980
 2373TIP3   OH228609   3.005   5.985  17.434  0.4446 -0.4557 -0.4188
 2373TIP3    H128610   3.070   5.969  17.502 -0.6344  0.4356  0.8912
 2373TIP3    H228611   2.927   5.939  17.464  0.1033 -0.5000 -1.3386
 2374TIP3   OH228612   4.641   4.873   2.277  0.4879 -0.3073  0.2378
 2374TIP3    H128613   4.594   4.910   2.203 -0.2812  0.0787  0.9043
 2374TIP3    H228614   4.574   4.830   2.330  1.0867 -0.9737  0.4896
 2375TIP3   OH228615   0.947   3.315   2.044 -0.0361  0.9377 -0.5480
 2375TIP3    H128616   0.883   3.263   1.997  1.5566  0.0334 -1.8063
 2375TIP3    H228617   0.913   3.320   2.133 -1.6879  0.2588 -1.1066
 2376TIP3   OH228618   0.004   4.218   6.507 -0.0553 -0.3513 -0.0900
 2376TIP3    H128619   0.078   4.163   6.481 -0.8466 -1.1132 -0.7782
 2376TIP3    H228620   0.044   4.291   6.555  1.3964  0.7623 -2.8177
 2377TIP3   OH228621   0.603   2.684  13.002  0.6827 -0.5205 -0.0920
 2377TIP3    H128622   0.612   2.764  12.950 -1.6548 -0.6798 -0.8424
 2377TIP3    H228623   0.657   2.620  12.955 -0.4676 -0.3510 -1.7526
 2378TIP3   OH228624   3.161   0.586   5.728 -0.1524 -0.1501 -0.2529
 2378TIP3    H128625   3.230   0.570   5.793 -1.1619  0.1030  0.9250
 2378TIP3    H228626   3.113   0.662   5.762 -1.4592 -0.7699 -0.6540
 2379TIP3   OH228627   6.776   6.495   0.772 -0.0716 -0.4089 -0.4889
 2379TIP3    H128628   6.774   6.479   0.866 -0.2736 -2.6413 -0.8012
 2379TIP3    H228629   6.688   6.524   0.750  0.1234  0.6239  0.0714
 2380TIP3   OH228630   3.799   0.075  13.719  0.0490 -0.7123  0.0261
 2380TIP3    H128631   3.827   0.166  13.735 -3.0527  0.2009  0.9341
 2380TIP3    H228632   3.796   0.067  13.624 -1.7549  0.9600 -0.1288
 2381TIP3   OH228633   6.263   4.590   1.666 -0.6677  0.4236  0.3656
 2381TIP3    H128634   6.241   4.662   1.724  0.1660  0.9526  0.0373
 2381TIP3    H228635   6.305   4.631   1.591 -0.6848 -0.3569 -0.0843
 2382TIP3   OH228636   3.769   3.119  17.326  0.6200 -0.0610 -0.5099
 2382TIP3    H128637   3.679   3.088  17.329  1.0876 -1.4660 -0.3029
 2382TIP3    H228638   3.768   3.200  17.377 -0.4040 -0.3704 -0.0056
 2383TIP3   OH228639   5.720   1.209   3.799  0.2075 -0.1055  0.6307
 2383TIP3    H128640   5.760   1.290   3.767 -0.9825  0.4170  0.4192
 2383TIP3    H228641   5.794   1.150   3.815  0.9266 -0.5277 -3.3152
 2384TIP3   OH228642   2.230   0.218  12.215  0.0897 -0.1473  0.5195
 2384TIP3    H128643   2.276   0.139  12.243  1.3404 -0.0857 -1.1671
 2384TIP3    H228644   2.290   0.290  12.235  1.2231 -0.1313 -2.4157
 2385TIP3   OH228645   2.630   3.550  14.901  0.4853  0.5439 -0.1580
 2385TIP3    H128646   2.639   3.467  14.946 -0.4282  1.2658  1.4540
 2385TIP3    H228647   2.599   3.611  14.969 -1.1781  1.6305 -1.7779
 2386TIP3   OH228648   1.666   1.024  17.267 -0.0314 -0.1669 -0.1014
 2386TIP3    H128649   1.581   1.062  17.244 -0.3734 -0.1165  1.1902
 2386TIP3    H228650   1.652   0.929  17.265 -0.2826 -0.1486  0.6975
 2387TIP3   OH228651   2.953   4.644   3.304 -0.3716 -0.3256  0.1867
 2387TIP3    H128652   2.995   4.661   3.389  1.2354 -0.0320 -0.6435
 2387TIP3    H228653   3.003   4.571   3.267 -0.9431 -0.3211 -0.6071
 2388TIP3   OH228654   5.175   1.727   0.280  0.2331  1.2171  0.2833
 2388TIP3    H128655   5.144   1.659   0.220 -0.9122 -0.2452  2.4118
 2388TIP3    H228656   5.241   1.684   0.334  0.5829  2.2384  0.7115
 2389TIP3   OH228657   1.828   5.824   1.862  0.0376 -0.0542  0.3620
 2389TIP3    H128658   1.908   5.820   1.809 -0.3685 -3.5541 -0.1771
 2389TIP3    H228659   1.778   5.747   1.836 -2.3814  0.6527  2.5392
 2390TIP3   OH228660   5.994   1.608  16.007  0.0993  0.7651  0.3717
 2390TIP3    H128661   6.045   1.589  15.929  0.5752 -1.2332  1.1131
 2390TIP3    H228662   6.039   1.682  16.048 -0.7584  2.5638 -1.7001
 2391TIP3   OH228663   2.356   1.644   2.707 -0.4918 -1.2274  0.1468
 2391TIP3    H128664   2.348   1.654   2.612 -1.1650 -2.2329  0.0888
 2391TIP3    H228665   2.269   1.666   2.740 -1.0497 -3.4528  0.2867
 2392TIP3   OH228666   0.744   0.239  16.339  0.2101 -0.7453 -0.1302
 2392TIP3    H128667   0.705   0.306  16.395 -0.3562 -0.9178 -0.3127
 2392TIP3    H228668   0.675   0.218  16.276  0.3291 -1.6187  0.0219
 2393TIP3   OH228669   5.438   4.564  16.060 -0.1781  0.0122  0.2898
 2393TIP3    H128670   5.505   4.513  16.014  1.2160  0.9940  1.1816
 2393TIP3    H228671   5.377   4.498  16.094  1.6380 -1.1149  1.5072
 2394TIP3   OH228672   2.716   6.136  17.442 -0.1051 -1.0358  0.2002
 2394TIP3    H128673   2.625   6.148  17.415  0.0633 -2.4080 -1.1800
 2394TIP3    H228674   2.714   6.057  17.496  0.2666 -1.1123  0.1030
 2395TIP3   OH228675   1.445   1.182   3.209  0.4747 -0.2335 -0.0484
 2395TIP3    H128676   1.409   1.101   3.245  1.1410 -0.1477  0.8510
 2395TIP3    H228677   1.377   1.248   3.225  0.5560 -0.3017  0.6195
 2396TIP3   OH228678   1.053   5.155  16.552  0.4613  0.3880 -0.1289
 2396TIP3    H128679   1.126   5.094  16.559 -0.5702 -0.9122 -0.3644
 2396TIP3    H228680   0.977   5.100  16.534 -0.8616  1.5226  1.5921
 2397TIP3   OH228681   5.330   1.205  12.196  0.2242 -0.6559  0.2741
 2397TIP3    H128682   5.411   1.251  12.173  1.3787 -1.5698  2.2253
 2397TIP3    H228683   5.289   1.185  12.112 -0.0923  3.3499 -0.7094
 2398TIP3   OH228684   5.130   3.175  15.789 -0.5191 -0.1456  0.0950
 2398TIP3    H128685   5.198   3.129  15.740 -1.6974 -1.0699 -0.7310
 2398TIP3    H228686   5.144   3.268  15.769  0.5312 -0.3116  0.0062
 2399TIP3   OH228687   3.015   3.605   5.662  0.5554  0.0376  0.6401
 2399TIP3    H128688   3.062   3.555   5.729 -0.3750  0.5252  1.6864
 2399TIP3    H228689   3.000   3.543   5.591  1.0561 -0.6421  1.1178
 2400TIP3   OH228690   5.254   2.096  17.195 -0.0785 -0.0408  0.7072
 2400TIP3    H128691   5.220   2.080  17.107  2.3185  0.1003 -0.3235
 2400TIP3    H228692   5.261   2.009  17.235  0.2265 -0.2639  0.1759
 2401TIP3   OH228693   3.532   4.283  11.864  0.0420 -0.3112  0.2981
 2401TIP3    H128694   3.517   4.356  11.923 -2.8765 -1.6429  1.3711
 2401TIP3    H228695   3.461   4.288  11.800 -0.1291 -2.0772  0.2868
 2402TIP3   OH228696   3.316   2.024   3.336 -0.0177 -0.4797  0.4738
 2402TIP3    H128697   3.392   1.967   3.352 -1.2489 -2.2888  0.2514
 2402TIP3    H228698   3.303   2.071   3.418  1.1621 -0.3628  0.6058
 2403TIP3   OH228699   3.386   2.598   1.407 -0.2207  0.1207 -0.2315
 2403TIP3    H128700   3.307   2.547   1.426 -0.6778  0.7947 -0.3161
 2403TIP3    H228701   3.451   2.563   1.468 -0.4338 -0.7829 -0.5007
 2404TIP3   OH228702   0.277   4.038   5.731 -0.0191 -0.2499 -0.5991
 2404TIP3    H128703   0.334   4.115   5.727 -0.4615  0.3941  2.4048
 2404TIP3    H228704   0.224   4.043   5.652 -0.0820  2.6525 -0.4995
 2405TIP3   OH228705   6.488   5.073   1.168  0.1668  0.1154 -0.2965
 2405TIP3    H128706   6.558   5.008   1.168  0.9525  0.9287 -1.2906
 2405TIP3    H228707   6.522   5.144   1.222 -0.5515 -0.1359  0.5102
 2406TIP3   OH228708   4.103   5.701  13.672 -0.3097  0.6657 -0.0309
 2406TIP3    H128709   4.144   5.631  13.722  0.5858  0.5914 -0.8235
 2406TIP3    H228710   4.174   5.763  13.656 -1.0763  1.7563  0.6301
 2407TIP3   OH228711   2.711   6.492  17.024 -0.0483  0.1181 -0.3329
 2407TIP3    H128712   2.641   6.558  17.027  1.4672  1.7772  0.2036
 2407TIP3    H228713   2.707   6.449  17.109  0.7476  1.5129  0.4385
 2408TIP3   OH228714   4.138   4.433   3.503 -0.6081 -0.1015  0.0003
 2408TIP3    H128715   4.220   4.420   3.455 -1.4699  1.2008 -1.9259
 2408TIP3    H228716   4.137   4.526   3.525 -0.9337 -0.3890  1.2904
 2409TIP3   OH228717   3.225   6.472  14.465 -0.5999  0.7629  0.1107
 2409TIP3    H128718   3.294   6.519  14.419  0.7358 -0.9436  0.2860
 2409TIP3    H228719   3.173   6.431  14.397  1.4176 -1.8226 -0.0234
 2410TIP3   OH228720   1.556   4.991   4.889 -0.3447 -0.5303  0.1622
 2410TIP3    H128721   1.545   4.897   4.872  0.6205 -0.6556  0.1703
 2410TIP3    H228722   1.640   5.013   4.848 -0.7184  0.4107 -0.1291
 2411TIP3   OH228723   3.751   1.861   2.933 -0.5477  0.4964 -0.1717
 2411TIP3    H128724   3.844   1.839   2.934 -0.1157  2.1414 -0.2273
 2411TIP3    H228725   3.743   1.934   2.996 -1.1527  2.5565 -2.4755
 2412TIP3   OH228726   0.465   3.748  14.337  0.1305  0.4049 -0.0902
 2412TIP3    H128727   0.370   3.761  14.332  0.2623  0.9682 -1.8705
 2412TIP3    H228728   0.482   3.672  14.282  0.7483  0.4569  0.0213
 2413TIP3   OH228729   1.688   0.577  17.390  0.0154  0.7152  0.2686
 2413TIP3    H128730   1.758   0.625  17.433  1.5165  0.4564 -1.7401
 2413TIP3    H228731   1.676   0.499  17.444  1.0812  0.9160  0.8183
 2414TIP3   OH228732   6.002   6.039  13.612  0.0119 -0.4815  0.2794
 2414TIP3    H128733   6.074   6.068  13.667 -2.9761  1.3705  3.5823
 2414TIP3    H228734   5.981   6.115  13.557 -1.0125 -0.0673  1.2111
 2415TIP3   OH228735   4.717   5.225  11.985  0.1535  0.0344  0.5153
 2415TIP3    H128736   4.667   5.254  12.061  0.1035  0.6294  0.2590
 2415TIP3    H228737   4.715   5.299  11.925  0.4699 -0.3118  0.0679
 2416TIP3   OH228738   2.460   0.399   1.811 -0.0587 -0.2450 -0.0694
 2416TIP3    H128739   2.467   0.391   1.716  1.0666 -0.9898  0.0507
 2416TIP3    H228740   2.545   0.436   1.837 -0.8644  1.2627  0.5263
 2417TIP3   OH228741   1.013   2.652  16.719  0.0009 -0.8871  0.3120
 2417TIP3    H128742   1.015   2.701  16.801 -0.5994 -0.2385 -0.0601
 2417TIP3    H228743   0.927   2.610  16.718 -0.5155  0.1477 -0.5821
 2418TIP3   OH228744   3.739   0.538   5.156 -0.0686  0.2632 -0.1782
 2418TIP3    H128745   3.706   0.502   5.074 -1.2078 -0.6382  0.6568
 2418TIP3    H228746   3.717   0.474   5.222  2.9522 -0.1819  0.5664
 2419TIP3   OH228747   5.528   0.444  15.167 -0.2146  0.0002  0.1278
 2419TIP3    H128748   5.458   0.405  15.219 -2.1933  1.6700 -1.1174
 2419TIP3    H228749   5.538   0.386  15.092 -1.0308  0.2886 -0.2121
 2420TIP3   OH228750   6.249   3.769  16.650  0.3377 -0.6579  0.2634
 2420TIP3    H128751   6.239   3.769  16.745  0.8614 -0.5385  0.3202
 2420TIP3    H228752   6.306   3.843  16.632  0.5169 -0.8878 -0.1167
 2421TIP3   OH228753   1.558   6.358  11.632  0.4341 -0.2022 -0.5689
 2421TIP3    H128754   1.629   6.392  11.685  1.7214  0.2242 -2.4663
 2421TIP3    H228755   1.484   6.417  11.649  0.6770 -0.3422  1.0302
 2422TIP3   OH228756   3.686   5.567   4.538  0.1437 -0.3093 -0.3775
 2422TIP3    H128757   3.710   5.648   4.494  0.3379 -0.5287 -0.6841
 2422TIP3    H228758   3.654   5.594   4.624 -0.9051  0.1934 -0.9025
 2423TIP3   OH228759   5.678   5.236  13.232 -0.2318 -0.7504  0.3121
 2423TIP3    H128760   5.726   5.165  13.190 -1.4132 -1.6037  0.3652
 2423TIP3    H228761   5.600   5.195  13.269  0.1485  0.1862  2.3043
 2424TIP3   OH228762   2.067   6.017   4.072  0.1325  0.3419  0.1114
 2424TIP3    H128763   2.101   5.963   4.001 -0.0627  1.0136 -0.4958
 2424TIP3    H228764   1.976   5.989   4.082  0.1610  0.2448  0.1006
 2425TIP3   OH228765   4.779   2.863   0.021 -0.3070  0.2843  0.7221
 2425TIP3    H128766   4.850   2.810  -0.016  0.3643  1.0006  0.9527
 2425TIP3    H228767   4.795   2.951  -0.013 -0.5673  0.6366  1.4938
 2426TIP3   OH228768   4.380   1.775  13.710 -0.2914 -0.2297 -0.0776
 2426TIP3    H128769   4.296   1.742  13.679  0.9257 -2.3493 -1.3001
 2426TIP3    H228770   4.422   1.809  13.631  0.5116 -0.3223  0.3105
 2427TIP3   OH228771   1.102   2.990  15.352 -0.2388 -0.4464  0.2138
 2427TIP3    H128772   1.068   2.917  15.404  1.4380 -0.8842  0.7363
 2427TIP3    H228773   1.189   3.007  15.387  0.0146  0.8053 -0.9239
 2428TIP3   OH228774   0.101   0.482  13.607 -0.2983  0.4453 -0.2003
 2428TIP3    H128775   0.176   0.452  13.557 -0.7194 -0.4663 -0.3016
 2428TIP3    H228776   0.056   0.402  13.635 -0.5642  0.9496  0.8875
 2429TIP3   OH228777   1.652   3.288   0.999  0.0697  0.1026 -0.3489
 2429TIP3    H128778   1.584   3.231   0.963 -0.7008  0.2653  0.7795
 2429TIP3    H228779   1.640   3.372   0.956 -1.2898  0.5006  0.7244
 2430TIP3   OH228780   4.381   0.633  17.057  0.4778  0.6630  1.2015
 2430TIP3    H128781   4.291   0.602  17.046  0.3924  0.7417  1.6680
 2430TIP3    H228782   4.430   0.587  16.989  0.4918 -1.1188  2.3433
 2431TIP3   OH228783   5.534   4.468   3.243  0.4209  0.1322  0.2922
 2431TIP3    H128784   5.483   4.393   3.274  0.5221 -0.0648 -0.0160
 2431TIP3    H228785   5.597   4.485   3.313  0.2041  0.1167  0.4931
 2432TIP3   OH228786   4.997   0.430  15.616 -0.1976  0.1452  0.2940
 2432TIP3    H128787   4.951   0.378  15.550  0.6288 -0.3596  0.1054
 2432TIP3    H228788   4.927   0.467  15.670 -0.9492  1.1736 -1.2839
 2433TIP3   OH228789   0.217   4.367   5.617 -0.4213  0.0591  0.7994
 2433TIP3    H128790   0.309   4.370   5.642 -0.2778 -0.2834  0.3308
 2433TIP3    H228791   0.182   4.291   5.663 -0.2003 -0.4637  0.1280
 2434TIP3   OH228792   1.387   1.314  13.050  0.3774 -0.3998 -0.3584
 2434TIP3    H128793   1.445   1.303  12.974  0.4197  0.0571 -0.3938
 2434TIP3    H228794   1.326   1.383  13.023 -0.0430 -0.7233 -0.2368
 2435TIP3   OH228795   5.925   2.243  15.754  0.4328 -0.2756 -0.3072
 2435TIP3    H128796   5.857   2.223  15.689  0.4083 -1.4614  0.0539
 2435TIP3    H228797   5.942   2.159  15.797  0.7047  0.4094  0.9769
 2436TIP3   OH228798   3.656   3.275   1.802  0.1619 -0.6311  0.4303
 2436TIP3    H128799   3.634   3.192   1.844 -0.5096 -0.4190  0.5087
 2436TIP3    H228800   3.751   3.271   1.791  0.4878 -0.4075  2.6022
 2437TIP3   OH228801   5.012   1.478  16.375 -0.5166 -0.3695  0.2839
 2437TIP3    H128802   4.978   1.445  16.292 -0.6308  0.3208  0.0478
 2437TIP3    H228803   4.982   1.569  16.378 -0.9796 -0.5445  1.3335
 2438TIP3   OH228804   1.976   0.874  14.942 -0.0729  0.0873  0.0509
 2438TIP3    H128805   2.036   0.931  14.988  1.8114 -0.3587 -1.6980
 2438TIP3    H228806   1.966   0.797  14.998  0.1147  0.6406  0.8453
 2439TIP3   OH228807   1.208   5.149   6.895  0.1355 -1.2613 -0.0610
 2439TIP3    H128808   1.241   5.148   6.985  0.6833  2.0234 -0.0961
 2439TIP3    H228809   1.282   5.181   6.843 -0.7771 -1.2235 -1.3652
 2440TIP3   OH228810   4.822   2.861   1.092 -0.0291 -0.5567 -0.1936
 2440TIP3    H128811   4.862   2.897   1.171  0.9249 -0.9172 -0.5114
 2440TIP3    H228812   4.728   2.859   1.113  0.0682  0.5333  0.4564
 2441TIP3   OH228813   3.594   6.235  14.526 -0.6878  0.1036  0.0670
 2441TIP3    H128814   3.550   6.151  14.521  0.5656 -0.5677 -0.1138
 2441TIP3    H228815   3.616   6.246  14.618  1.0842 -0.8448 -0.1899
 2442TIP3   OH228816   1.391   4.396  15.979 -0.5147  0.3830 -0.0785
 2442TIP3    H128817   1.371   4.410  15.887  2.0904  0.8231 -0.6644
 2442TIP3    H228818   1.388   4.484  16.017  1.8507  0.7457 -0.5885
 2443TIP3   OH228819   4.251   5.309   3.198  0.6799 -0.0746  0.4296
 2443TIP3    H128820   4.169   5.332   3.155  0.6526  0.5507  0.8131
 2443TIP3    H228821   4.292   5.245   3.140 -0.3770 -0.8803  0.5482
 2444TIP3   OH228822   2.695   3.217  16.596  0.0184  0.5462 -0.3389
 2444TIP3    H128823   2.744   3.182  16.671 -0.8014  0.3330  0.1043
 2444TIP3    H228824   2.638   3.145  16.570 -1.0799  1.2512  0.0489
 2445TIP3   OH228825   6.474   1.597  12.654  0.1906 -0.4776 -0.2552
 2445TIP3    H128826   6.557   1.549  12.663  0.1752 -0.4547  0.0149
 2445TIP3    H228827   6.500   1.682  12.618  0.2418 -0.6024 -0.5212
 2446TIP3   OH228828   5.119   1.437   5.237  0.6536 -0.4291 -0.0273
 2446TIP3    H128829   5.138   1.417   5.329  2.2310  0.3819 -0.1376
 2446TIP3    H228830   5.025   1.451   5.234  0.7574  0.9940  1.7844
 2447TIP3   OH228831   0.844   0.259   3.086 -0.5324  0.3182  0.5864
 2447TIP3    H128832   0.878   0.171   3.065 -1.5136 -0.1264  0.8325
 2447TIP3    H228833   0.911   0.297   3.143 -0.7080 -0.7722  1.5442
 2448TIP3   OH228834   3.602   5.421   4.091  0.3066 -0.1748  0.5770
 2448TIP3    H128835   3.531   5.366   4.058  0.8412 -1.6846  1.7883
 2448TIP3    H228836   3.564   5.509   4.099 -0.8738 -0.5715 -0.4856
 2449TIP3   OH228837   2.745   5.547  16.211  0.2495 -0.0464 -0.0733
 2449TIP3    H128838   2.799   5.472  16.235  0.0888 -0.2723 -0.4003
 2449TIP3    H228839   2.804   5.603  16.160 -0.0108 -0.6499 -1.0743
 2450TIP3   OH228840   2.944   1.042   1.382  0.6483 -0.1392 -0.0380
 2450TIP3    H128841   2.927   1.117   1.325 -0.0348 -0.8060 -0.7469
 2450TIP3    H228842   2.859   1.024   1.423  0.4186 -1.4339 -1.0202
 2451TIP3   OH228843   5.235   5.327  16.060  0.2283 -0.3211 -0.9778
 2451TIP3    H128844   5.252   5.239  16.028 -0.5334  0.0550 -2.5161
 2451TIP3    H228845   5.152   5.352  16.018 -0.2037  0.6641  0.3986
 2452TIP3   OH228846   5.736   3.631  15.855 -0.0619  0.6226  0.7057
 2452TIP3    H128847   5.647   3.667  15.863  0.2552  1.5754  0.1404
 2452TIP3    H228848   5.767   3.662  15.770  0.4054 -0.6528  0.3860
 2453TIP3   OH228849   3.140   3.511  16.313  0.1351 -0.4407  0.1214
 2453TIP3    H128850   3.234   3.504  16.296  0.2935  0.1935  0.7006
 2453TIP3    H228851   3.130   3.594  16.360 -0.6808 -0.6305  0.2973
 2454TIP3   OH228852   5.992   0.376  11.996 -0.3905 -0.4113 -0.0264
 2454TIP3    H128853   5.906   0.401  11.962 -1.3463 -3.2835 -0.0201
 2454TIP3    H228854   5.981   0.371  12.090  0.1287  0.3349  0.0783
 2455TIP3   OH228855   6.268   5.286  11.525 -0.0313 -0.1795  0.3599
 2455TIP3    H128856   6.247   5.252  11.439 -0.8015  0.9882  0.0572
 2455TIP3    H228857   6.303   5.374  11.508 -0.5405  0.2092  1.2535
 2456TIP3   OH228858   5.699   6.507  16.683  0.5543  0.2834 -0.1438
 2456TIP3    H128859   5.666   6.596  16.699  2.3643  1.2554 -1.4332
 2456TIP3    H228860   5.686   6.494  16.589  3.3567  0.5793 -0.6471
 2457TIP3   OH228861   4.533   2.141  15.143 -0.2755 -0.3852  0.2576
 2457TIP3    H128862   4.594   2.203  15.104 -1.0963  0.6998  0.6500
 2457TIP3    H228863   4.580   2.106  15.219  0.8232 -1.5240 -0.9029
 2458TIP3   OH228864   5.678   1.201  10.857 -0.1191 -0.5805 -0.0629
 2458TIP3    H128865   5.644   1.175  10.772  0.1930  0.2093 -0.4366
 2458TIP3    H228866   5.605   1.245  10.900 -0.5889 -1.8580  0.4944
 2459TIP3   OH228867   3.293   6.267  12.350 -0.1908 -0.0111 -0.7648
 2459TIP3    H128868   3.377   6.313  12.350  0.4456 -1.1185  0.3637
 2459TIP3    H228869   3.310   6.186  12.303 -0.6197 -0.2428 -0.5247
 2460TIP3   OH228870   3.191   1.322  12.028 -0.0758  0.0816 -0.0317
 2460TIP3    H128871   3.267   1.301  12.083 -0.2943 -1.1067 -0.1740
 2460TIP3    H228872   3.153   1.400  12.069  1.1634  0.6416  0.0956
 2461TIP3   OH228873   4.035   3.789  15.852 -0.1921 -0.1671 -0.0083
 2461TIP3    H128874   4.025   3.874  15.810 -2.3694 -0.5293 -0.3307
 2461TIP3    H228875   3.980   3.795  15.931  1.0355 -0.6993  0.9203
 2462TIP3   OH228876   6.369   5.296  14.955 -0.0483  0.4985  0.2212
 2462TIP3    H128877   6.457   5.325  14.933 -0.3140  0.2212 -1.3193
 2462TIP3    H228878   6.323   5.376  14.981  0.3290  0.8304 -0.1270
 2463TIP3   OH228879   0.049   1.312   1.089  0.1639  0.2869 -0.0064
 2463TIP3    H128880   0.112   1.240   1.091  2.0025  1.7708 -0.9597
 2463TIP3    H228881  -0.015   1.290   1.156  2.7495 -0.4077  2.4170
 2464TIP3   OH228882   4.361   3.337  14.639 -0.3909 -0.1705 -0.0899
 2464TIP3    H128883   4.350   3.318  14.732 -0.2029  0.9482  0.1770
 2464TIP3    H228884   4.455   3.325  14.622  0.1140  2.3114  0.5487
 2465TIP3   OH228885   2.613   4.136   6.555 -0.0624  0.4773 -0.0429
 2465TIP3    H128886   2.522   4.128   6.584  0.1425  0.5434  0.6336
 2465TIP3    H228887   2.632   4.230   6.561  0.2085  0.4029  0.3332
 2466TIP3   OH228888   6.557   6.400  15.624 -0.2070  0.3939 -0.4125
 2466TIP3    H128889   6.528   6.484  15.659  0.2704  0.5284 -0.3327
 2466TIP3    H228890   6.522   6.335  15.685  2.3742  0.7282  1.5506
 2467TIP3   OH228891   2.430   6.241  16.462  0.2361  0.1070 -0.5515
 2467TIP3    H128892   2.495   6.309  16.448 -0.0602  0.4481 -0.3051
 2467TIP3    H228893   2.384   6.268  16.542  0.6330 -0.7886  0.0025
 2468TIP3   OH228894   6.306   2.092   4.335  0.7126 -0.3263  0.0320
 2468TIP3    H128895   6.328   2.178   4.298 -0.4237  0.4421  1.0357
 2468TIP3    H228896   6.370   2.079   4.405  0.8687 -0.2841 -0.1021
 2469TIP3   OH228897   3.750   1.622   5.021 -0.2409 -0.4531 -0.1582
 2469TIP3    H128898   3.815   1.552   5.016  0.1318 -0.3275  2.1313
 2469TIP3    H228899   3.668   1.577   5.044 -0.6714 -0.4340 -1.5580
 2470TIP3   OH228900   0.934   3.263  13.182  0.3176 -0.1042 -0.6487
 2470TIP3    H128901   1.010   3.206  13.178 -0.4563 -1.2672  0.2540
 2470TIP3    H228902   0.864   3.213  13.140  0.4901  1.8464 -3.5446
 2471TIP3   OH228903   5.819   1.631   0.749  0.4147  0.4707  0.4026
 2471TIP3    H128904   5.765   1.597   0.678 -0.0344  1.0519  0.4613
 2471TIP3    H228905   5.840   1.720   0.722  0.6694  0.5197  0.7621
 2472TIP3   OH228906   2.779   2.646   4.107  0.7576 -0.3327  0.6994
 2472TIP3    H128907   2.841   2.670   4.039  0.9261 -0.7511  0.7031
 2472TIP3    H228908   2.800   2.555   4.128 -0.7197 -0.9408 -0.2672
 2473TIP3   OH228909   5.216   4.362   2.274 -0.3477 -0.1837 -0.1080
 2473TIP3    H128910   5.301   4.334   2.306  0.3584  0.7862 -1.0714
 2473TIP3    H228911   5.229   4.453   2.246 -1.2586 -0.5403 -1.8160
 2474TIP3   OH228912   2.731   3.510   5.796  0.2999 -0.5336  0.7003
 2474TIP3    H128913   2.821   3.502   5.766  0.1792  2.2106 -0.6869
 2474TIP3    H228914   2.692   3.576   5.739 -2.1764 -0.5703  2.1917
 2475TIP3   OH228915   5.176   4.284   4.456  0.0696  0.0560 -0.0531
 2475TIP3    H128916   5.117   4.317   4.523  0.6850  1.4503 -0.1571
 2475TIP3    H228917   5.238   4.355   4.441 -0.6519  0.2243 -2.8421
 2476TIP3   OH228918   2.081   1.779   2.475 -0.3382  0.2038  0.0916
 2476TIP3    H128919   2.163   1.733   2.459 -1.7848 -2.4579 -0.2255
 2476TIP3    H228920   2.050   1.746   2.559 -0.0508  2.9201  1.3829
 2477TIP3   OH228921   4.167   1.639   5.910 -0.6146 -0.0600  0.4703
 2477TIP3    H128922   4.177   1.604   5.999 -0.2761 -0.8681  0.1282
 2477TIP3    H228923   4.082   1.683   5.911 -0.8079 -0.4340  1.0795
 2478TIP3   OH228924   1.460   1.119  16.857  0.7049 -0.1775 -0.6247
 2478TIP3    H128925   1.387   1.080  16.904  0.9063 -0.5113 -0.5853
 2478TIP3    H228926   1.437   1.212  16.849 -0.7218 -0.6261 -2.4413
 2479TIP3   OH228927   1.174   1.197  16.806 -0.0781  0.0400  0.2781
 2479TIP3    H128928   1.145   1.268  16.862  1.5465 -0.2619  1.5939
 2479TIP3    H228929   1.181   1.236  16.719  1.0022  1.5819  1.0154
 2480TIP3   OH228930   2.018   0.825  14.190  0.2964  0.5308  0.4247
 2480TIP3    H128931   1.982   0.738  14.206  0.4059  0.6861  1.5613
 2480TIP3    H228932   1.955   0.866  14.130  0.5821 -0.5441 -0.6700
 2481TIP3   OH228933   1.635   2.865  12.381  0.3587  0.1368 -0.4368
 2481TIP3    H128934   1.548   2.849  12.418  1.0813  0.6909  1.6475
 2481TIP3    H228935   1.623   2.942  12.325  0.0280  2.1265  2.1976
 2482TIP3   OH228936   0.676   2.610  13.637  0.3101 -0.3431  0.2815
 2482TIP3    H128937   0.603   2.548  13.650 -0.2467  0.4563  1.1634
 2482TIP3    H228938   0.651   2.660  13.559  0.1185 -0.3682  0.3236
 2483TIP3   OH228939   3.399   2.558   5.545  0.1182  0.1490 -0.1814
 2483TIP3    H128940   3.422   2.477   5.591  1.4794 -0.0660 -1.1572
 2483TIP3    H228941   3.435   2.627   5.600 -0.5562  0.0660  0.3743
 2484TIP3   OH228942   2.786   5.139   5.531 -0.2458 -0.6524  0.2381
 2484TIP3    H128943   2.774   5.210   5.469 -1.4263 -0.7718  0.2970
 2484TIP3    H228944   2.832   5.179   5.605  0.8789 -0.4367 -0.5625
 2485TIP3   OH228945   3.435   5.430  16.507  0.1307 -0.3389 -0.5213
 2485TIP3    H128946   3.454   5.357  16.566  0.0929  0.0083 -0.0741
 2485TIP3    H228947   3.520   5.456  16.472  0.1112 -0.7800 -0.9016
 2486TIP3   OH228948   3.891   2.356   5.460 -0.4276 -0.6488 -0.2026
 2486TIP3    H128949   3.818   2.384   5.405 -1.1134 -2.0455 -0.0443
 2486TIP3    H228950   3.957   2.325   5.399  0.2120  0.9192 -0.3633
 2487TIP3   OH228951   1.998   5.072   1.556  0.3477 -0.2835  0.0531
 2487TIP3    H128952   1.994   5.067   1.460  1.3871  0.6924 -0.0687
 2487TIP3    H228953   1.907   5.087   1.583 -0.3025 -2.6293 -0.5907
 2488TIP3   OH228954   4.279   5.374  15.815 -0.1500  0.1779 -0.4439
 2488TIP3    H128955   4.305   5.296  15.767  2.2465  0.3308  0.4639
 2488TIP3    H228956   4.185   5.364  15.829  0.0315 -2.3508 -0.6632
 2489TIP3   OH228957   1.609   2.819   4.888 -0.3017  0.5572  0.3381
 2489TIP3    H128958   1.643   2.894   4.839  0.8800  0.3705  0.8472
 2489TIP3    H228959   1.589   2.854   4.975  2.4752 -0.1349  1.3580
 2490TIP3   OH228960   3.332   0.648  16.812  0.4333 -0.0789 -1.0141
 2490TIP3    H128961   3.403   0.597  16.852 -1.1230 -0.8239  0.9976
 2490TIP3    H228962   3.252   0.599  16.834 -0.8681  1.6585 -1.6534
 2491TIP3   OH228963   1.572   4.043   0.951  0.4241  0.7168  0.1849
 2491TIP3    H128964   1.556   4.012   0.862  3.2423  0.0538 -0.1728
 2491TIP3    H228965   1.540   4.133   0.951 -1.7650  0.0088 -0.7413
 2492TIP3   OH228966   5.877   6.394   2.504 -0.1590 -0.4837  0.2172
 2492TIP3    H128967   5.935   6.318   2.498 -0.8810 -1.0237 -0.0837
 2492TIP3    H228968   5.893   6.443   2.423 -1.1833 -1.4218 -0.5833
 2493TIP3   OH228969   5.881   5.622  13.083  0.7547 -0.3271 -0.1999
 2493TIP3    H128970   5.848   5.675  13.155 -0.6678  0.5233 -1.4412
 2493TIP3    H228971   5.971   5.600  13.109  1.2665  2.3075  0.5641
 2494TIP3   OH228972   0.931   5.973   5.366 -0.2886 -0.4367  0.2863
 2494TIP3    H128973   0.989   5.975   5.443 -0.5378 -0.2512  0.4710
 2494TIP3    H228974   0.927   6.063   5.337 -2.2070 -0.0454  1.5873
 2495TIP3   OH228975   3.988   5.681  12.349 -0.2241 -0.1300 -0.2576
 2495TIP3    H128976   3.995   5.601  12.296 -0.6590 -1.7503  1.9726
 2495TIP3    H228977   3.894   5.702  12.348 -0.4636 -1.0174  0.9591
 2496TIP3   OH228978   2.368   0.402  15.813 -0.2522 -0.2510  0.0767
 2496TIP3    H128979   2.395   0.478  15.762  0.1711 -0.0540  0.5975
 2496TIP3    H228980   2.311   0.353  15.753  0.1124  0.0601 -0.5317
 2497TIP3   OH228981   3.236   6.305   6.632 -0.5291  0.0629 -0.1275
 2497TIP3    H128982   3.295   6.378   6.654 -0.8467  0.2239  0.2063
 2497TIP3    H228983   3.186   6.290   6.712  0.4470 -1.4042  0.2301
 2498TIP3   OH228984   3.594   2.233  11.522  0.3598  0.5144 -0.6790
 2498TIP3    H128985   3.640   2.154  11.493  0.8730  0.5244  0.0655
 2498TIP3    H228986   3.662   2.284  11.567 -0.3251  0.6364  0.2353
 2499TIP3   OH228987   6.485   3.366   3.467 -0.1818 -0.0495  0.4658
 2499TIP3    H128988   6.579   3.358   3.451  0.3419  3.3066  0.9877
 2499TIP3    H228989   6.466   3.300   3.534  1.6004 -1.3509 -0.2463
 2500TIP3   OH228990   1.689   4.921   2.439  0.3854  0.3688  0.2720
 2500TIP3    H128991   1.603   4.881   2.446  0.4391  0.1716 -0.1822
 2500TIP3    H228992   1.675   5.001   2.389  0.2379  1.0487  1.3801
 2501TIP3   OH228993   1.376   0.527   4.597  0.2032  0.5523 -0.2899
 2501TIP3    H128994   1.392   0.612   4.638  1.7546 -0.7617  2.0921
 2501TIP3    H228995   1.461   0.484   4.597 -0.4275 -0.8273 -1.9629
 2502TIP3   OH228996   1.622   2.160  15.795  0.3308 -0.2197  0.0129
 2502TIP3    H128997   1.540   2.205  15.817  1.0169  1.6892 -1.0723
 2502TIP3    H228998   1.689   2.212  15.839  1.0142 -1.5886  0.6415
 2503TIP3   OH228999   6.338   4.368   1.424 -0.0850  0.4340  0.0277
 2503TIP3    H129000   6.286   4.378   1.504  0.8411  1.0473  0.5798
 2503TIP3    H229001   6.275   4.377   1.353 -0.7597  0.9860  0.6761
 2504TIP3   OH229002   1.936   3.141  12.225 -0.0893 -0.1018  0.3721
 2504TIP3    H129003   1.907   3.202  12.293  0.1966 -0.4027  0.7685
 2504TIP3    H229004   1.868   3.146  12.158  0.2408  1.1026  0.1126
 2505TIP3   OH229005   6.689   2.305   1.917 -0.7981 -0.4888  0.5206
 2505TIP3    H129006   6.617   2.298   1.979 -2.6358 -1.9408 -1.6240
 2505TIP3    H229007   6.656   2.361   1.847  1.1725  1.0277  0.7067
 2506TIP3   OH229008   1.861   4.660   5.261 -0.3147 -0.2614 -0.1891
 2506TIP3    H129009   1.932   4.596   5.263 -0.4411 -0.4087 -0.4031
 2506TIP3    H229010   1.901   4.740   5.227 -0.3336 -0.4480 -0.6552
 2507TIP3   OH229011   2.709   2.888   4.217  0.0766 -0.0203  0.1634
 2507TIP3    H129012   2.618   2.893   4.190  0.6306  1.2456 -1.5789
 2507TIP3    H229013   2.735   2.797   4.198 -0.8535 -0.4802  0.9591
 2508TIP3   OH229014   1.870   6.474  13.912  0.3973  0.3285  0.1672
 2508TIP3    H129015   1.847   6.550  13.965 -1.1411 -0.6479  1.0103
 2508TIP3    H229016   1.838   6.495  13.824 -0.9340  0.3152  0.6148
 2509TIP3   OH229017   5.149   2.062  11.076  0.6068 -0.5280 -0.1854
 2509TIP3    H129018   5.065   2.097  11.047  0.0086 -1.2797  0.5889
 2509TIP3    H229019   5.212   2.131  11.055 -0.5450  1.1302  1.4497
 2510TIP3   OH229020   6.241   2.390  16.921 -0.4288  0.2390  0.3684
 2510TIP3    H129021   6.267   2.473  16.882  1.1515 -0.1163  0.5882
 2510TIP3    H229022   6.180   2.352  16.858  1.6647 -0.0845 -1.6157
 2511TIP3   OH229023   0.049   6.237  11.539  0.0088 -0.5614 -1.2061
 2511TIP3    H129024   0.013   6.303  11.480 -1.7726 -0.5657 -0.2112
 2511TIP3    H229025   0.011   6.258  11.625  0.8658 -1.7760 -0.4938
 2512TIP3   OH229026   2.567   3.471  13.925 -0.2267 -0.0142  0.7212
 2512TIP3    H129027   2.477   3.450  13.950  0.2415 -0.5941  2.0174
 2512TIP3    H229028   2.613   3.480  14.009  1.1830 -0.8914  0.0785
 2513TIP3   OH229029   1.949   2.642   4.736 -0.3970 -0.1351  0.4774
 2513TIP3    H129030   1.953   2.594   4.653 -1.7630  0.4177  0.0641
 2513TIP3    H229031   2.022   2.608   4.787  0.5194 -0.4365 -0.9767
 2514TIP3   OH229032   1.055   4.495  13.391  0.0284  0.1805  0.0115
 2514TIP3    H129033   1.040   4.457  13.478 -2.3662 -0.9617 -0.8064
 2514TIP3    H229034   1.007   4.578  13.393 -0.2941  0.0025 -0.3163
 2515TIP3   OH229035   4.103   0.091  17.345 -0.2526 -0.0545  0.0329
 2515TIP3    H129036   4.169   0.046  17.398  1.7715  0.6347 -1.7954
 2515TIP3    H229037   4.023   0.041  17.361  0.7610 -1.2172  1.9585
 2516TIP3   OH229038   0.510   6.662   3.033 -0.2155 -0.5314 -0.1112
 2516TIP3    H129039   0.588   6.608   3.017  0.2156 -0.0804  0.3951
 2516TIP3    H229040   0.545   6.742   3.072 -0.8512  0.0764 -0.7618
 2517TIP3   OH229041   4.295   0.863  14.596 -0.1092  0.0818 -0.0658
 2517TIP3    H129042   4.263   0.802  14.662  1.1662 -1.1604 -0.5585
 2517TIP3    H229043   4.273   0.823  14.512 -0.5261  1.0000 -0.4089
 2518TIP3   OH229044   2.474   1.564   1.470 -0.6432  0.1247  0.2963
 2518TIP3    H129045   2.410   1.634   1.482 -0.5437  0.0749  1.1606
 2518TIP3    H229046   2.543   1.584   1.532 -1.3690 -1.6112  1.7415
 2519TIP3   OH229047   5.380   6.426  16.633 -0.2598 -0.3324  0.4688
 2519TIP3    H129048   5.472   6.419  16.660  0.4622  3.8384 -0.2539
 2519TIP3    H229049   5.335   6.359  16.685  3.1161 -2.7161  0.6990
 2520TIP3   OH229050   4.392   2.666  14.172 -0.1166  0.1767  0.1448
 2520TIP3    H129051   4.447   2.643  14.097 -2.2588  0.1104 -1.4981
 2520TIP3    H229052   4.354   2.583  14.201  0.6529  0.2106  1.2970
 2521TIP3   OH229053   1.616   5.494   2.774  0.2454 -0.3614  0.3830
 2521TIP3    H129054   1.685   5.430   2.758 -1.1396 -1.8526  0.0468
 2521TIP3    H229055   1.552   5.448   2.828 -0.4255  1.0325  0.8443
 2522TIP3   OH229056   5.375   6.174   5.575 -0.0483  0.0341  0.1793
 2522TIP3    H129057   5.448   6.231   5.551 -0.9883  1.9587  1.5870
 2522TIP3    H229058   5.305   6.234   5.601 -1.6429 -1.7654  0.2742
 2523TIP3   OH229059   3.192   5.979  15.596  0.7089 -0.0656 -0.6885
 2523TIP3    H129060   3.204   5.909  15.533  0.6326 -0.9793  0.2757
 2523TIP3    H229061   3.100   6.005  15.587  0.9599  0.5197 -1.6449
 2524TIP3   OH229062   4.304   6.037  15.535  0.0533 -0.0188 -0.3978
 2524TIP3    H129063   4.226   5.998  15.495 -0.2866  0.2277  0.0192
 2524TIP3    H229064   4.371   5.968  15.528 -1.1300 -1.6154  2.3711
 2525TIP3   OH229065   4.782   3.370   1.146 -0.2837  0.1444 -0.0007
 2525TIP3    H129066   4.802   3.289   1.099  0.4314  0.4495 -0.2354
 2525TIP3    H229067   4.866   3.398   1.183 -0.2976  1.3424 -0.8193
 2526TIP3   OH229068   6.618   2.514   3.546  0.6817 -0.0363  0.9135
 2526TIP3    H129069   6.556   2.474   3.606  0.3536 -0.7609  0.1139
 2526TIP3    H229070   6.582   2.600   3.527 -0.6426 -0.8110 -0.3079
 2527TIP3   OH229071   5.975   2.850  10.920  0.7916  0.6293  0.0844
 2527TIP3    H129072   5.972   2.938  10.957  1.0805  0.4135  0.6230
 2527TIP3    H229073   5.904   2.848  10.856 -1.8076  0.0359  2.7882
 2528TIP3   OH229074   3.692   5.679  14.787 -0.1767  0.5575 -0.1875
 2528TIP3    H129075   3.734   5.691  14.872 -2.5122  0.5400  1.0536
 2528TIP3    H229076   3.762   5.651  14.729  1.3181 -0.3582  1.9532
 2529TIP3   OH229077   0.585   1.157   3.646  0.5077 -0.2431 -0.0229
 2529TIP3    H129078   0.528   1.080   3.640 -0.4605  0.2007  2.4907
 2529TIP3    H229079   0.673   1.124   3.627 -0.2474 -1.3263 -1.9769
 2530TIP3   OH229080   1.714   1.813  17.431  0.1960  0.7807  0.2712
 2530TIP3    H129081   1.766   1.873  17.377  2.0949 -0.6043  0.4737
 2530TIP3    H229082   1.740   1.832  17.520 -1.9195  2.1027  0.6854
 2531TIP3   OH229083   4.110   6.415  13.586 -0.4864 -0.1461  0.7608
 2531TIP3    H129084   4.018   6.391  13.594  0.0086 -2.3431  0.4109
 2531TIP3    H229085   4.115   6.502  13.625 -2.2795 -0.9051  2.8832
 2532TIP3   OH229086   1.679   3.693   2.424 -0.1862 -0.0613  0.0141
 2532TIP3    H129087   1.759   3.740   2.447 -0.4383 -0.3196  1.5527
 2532TIP3    H229088   1.661   3.637   2.500 -2.3256  0.6790  0.1274
 2533TIP3   OH229089   1.013   0.039  14.198  0.5796  0.7591  0.0895
 2533TIP3    H129090   1.083   0.103  14.204  2.5703 -0.8623 -2.9517
 2533TIP3    H229091   0.969   0.059  14.116 -0.6014 -0.0331  0.5050
 2534TIP3   OH229092   5.418   0.354   5.203  0.8726 -0.4012 -0.2631
 2534TIP3    H129093   5.362   0.354   5.126 -0.4507 -0.8891  0.6554
 2534TIP3    H229094   5.496   0.305   5.177 -1.3325 -4.3463 -0.0878
 2535TIP3   OH229095   5.880   0.164   2.966  0.0433  0.8380 -0.3886
 2535TIP3    H129096   5.952   0.120   2.921  0.0149  0.8274 -0.4239
 2535TIP3    H229097   5.805   0.105   2.955  0.5207 -0.1833  1.4523
 2536TIP3   OH229098   4.054   1.517   2.415  0.0959 -0.0251 -0.6597
 2536TIP3    H129099   4.113   1.591   2.406  2.0659 -1.6345 -1.6191
 2536TIP3    H229100   4.009   1.511   2.330  0.2227 -0.1616 -0.7173
 2537TIP3   OH229101   2.555   4.829   1.387  0.3648  0.3633  0.1178
 2537TIP3    H129102   2.561   4.885   1.310  2.4589 -0.3532 -0.3361
 2537TIP3    H229103   2.518   4.747   1.353  1.1697  0.0909 -0.1503
 2538TIP3   OH229104   2.404   3.110   2.264  0.1874  0.3990  0.4481
 2538TIP3    H129105   2.464   3.120   2.190  1.3844 -0.2921  1.3016
 2538TIP3    H229106   2.320   3.087   2.223  1.1395 -1.3572 -0.6581
 2539TIP3   OH229107   3.442   3.943  13.984  0.1502 -0.4980 -0.0863
 2539TIP3    H129108   3.535   3.927  13.995  0.8134  3.1037  0.5411
 2539TIP3    H229109   3.428   3.937  13.889  1.1613 -0.3457 -0.2557
 2540TIP3   OH229110   3.241   6.437  17.009 -0.3102 -0.1064 -0.0355
 2540TIP3    H129111   3.238   6.341  17.008 -1.6734 -0.0829 -0.3904
 2540TIP3    H229112   3.150   6.464  17.003 -0.1013  1.2285  1.7998
 2541TIP3   OH229113   5.591   2.915  11.631  0.1159 -0.1915  0.2290
 2541TIP3    H129114   5.634   2.998  11.611  2.5176 -1.2853  0.5037
 2541TIP3    H229115   5.581   2.916  11.726  0.0274 -0.1629  0.2192
 2542TIP3   OH229116   3.897   6.754  12.450  0.7676  0.5577 -0.2525
 2542TIP3    H129117   3.956   6.687  12.485  0.5646  0.9322  0.8264
 2542TIP3    H229118   3.895   6.736  12.356 -0.4537 -1.8806  0.1659
 2543TIP3   OH229119   1.202   4.076   6.206  0.4869  0.8265 -0.0224
 2543TIP3    H129120   1.281   4.101   6.253 -1.1207 -1.3446  4.4048
 2543TIP3    H229121   1.214   3.983   6.187 -1.0045  0.3717  1.0260
 2544TIP3   OH229122   2.671   3.859  16.805  0.2190  0.3702 -0.0391
 2544TIP3    H129123   2.662   3.921  16.877 -2.1277  0.0746  0.0297
 2544TIP3    H229124   2.581   3.828  16.789  0.9091 -0.8702 -1.9432
 2545TIP3   OH229125   4.407   3.734  12.326 -0.1923  0.4674 -0.1863
 2545TIP3    H129126   4.467   3.665  12.353 -0.6188  0.5182  0.9278
 2545TIP3    H229127   4.342   3.690  12.271  0.2724  0.2306 -0.5479
 2546TIP3   OH229128   4.842   3.636  13.019 -0.1141 -0.3141 -0.0245
 2546TIP3    H129129   4.833   3.728  13.044  1.1814  0.0771 -0.9070
 2546TIP3    H229130   4.832   3.588  13.101 -0.8448  0.6014  0.4440
 2547TIP3   OH229131   2.103   0.783   0.561  0.1851 -0.3337  0.3161
 2547TIP3    H129132   2.027   0.745   0.605  0.0153  0.6561  0.9125
 2547TIP3    H229133   2.176   0.767   0.622  0.2251 -0.2038  0.3013
 2548TIP3   OH229134   2.614   3.716   3.787 -0.1019  0.7890  0.9143
 2548TIP3    H129135   2.577   3.630   3.806  1.7368 -0.9773 -2.6037
 2548TIP3    H229136   2.537   3.773   3.778 -1.6228 -1.2456  0.1954
 2549TIP3   OH229137   4.796   4.863  13.543 -0.1374  0.5378  0.2037
 2549TIP3    H129138   4.862   4.802  13.575  0.3828  1.3470  0.7192
 2549TIP3    H229139   4.837   4.949  13.551 -0.7228  0.9314 -0.8354
 2550TIP3   OH229140   2.214   6.352   1.109 -0.2411  0.0264  0.5671
 2550TIP3    H129141   2.196   6.337   1.202  0.9031 -1.5792  0.5773
 2550TIP3    H229142   2.143   6.305   1.064  0.8982 -1.8642  0.6454
 2551TIP3   OH229143   1.318   0.015   3.942  0.1812 -0.1760 -0.4273
 2551TIP3    H129144   1.238   0.066   3.950 -0.9000 -1.7656 -0.5575
 2551TIP3    H229145   1.316  -0.045   4.017  1.5478  0.1302 -0.1173
 2552TIP3   OH229146   1.563   3.165   4.083 -0.0330  0.5648  0.1454
 2552TIP3    H129147   1.574   3.239   4.022 -0.2095  0.4596 -0.0136
 2552TIP3    H229148   1.619   3.096   4.047 -1.9002 -0.3100 -1.1978
 2553TIP3   OH229149   5.040   6.056  13.329  0.4650  0.2476 -0.3442
 2553TIP3    H129150   4.975   6.099  13.273 -2.4423 -2.1350  0.9009
 2553TIP3    H229151   4.997   6.048  13.414  2.7932 -0.6819  0.8487
 2554TIP3   OH229152   4.759   1.995  16.058 -0.0494 -0.2648  0.1872
 2554TIP3    H129153   4.806   1.916  16.082  1.5960  0.7845  0.6026
 2554TIP3    H229154   4.684   1.998  16.117 -0.3481 -1.6819 -0.0932
 2555TIP3   OH229155   1.205   4.462  13.158 -0.2449  0.4841 -0.1084
 2555TIP3    H129156   1.285   4.507  13.184  0.5128 -0.0686 -1.3603
 2555TIP3    H229157   1.165   4.434  13.240  0.5116  1.3272  0.5660
 2556TIP3   OH229158   2.298   2.691  13.608 -0.3074 -0.6689 -0.1906
 2556TIP3    H129159   2.330   2.743  13.682 -0.1558  1.8218 -1.8947
 2556TIP3    H229160   2.368   2.628  13.592 -0.2278 -1.1045  1.5693
 2557TIP3   OH229161   6.434   4.089   4.815  0.2391 -0.2974 -0.1008
 2557TIP3    H129162   6.409   4.168   4.863  0.7555 -0.4911  0.4998
 2557TIP3    H229163   6.353   4.060   4.772 -0.2650 -0.1952  0.7602
 2558TIP3   OH229164   4.085   0.177   2.395  0.1133  0.1179  0.5978
 2558TIP3    H129165   4.174   0.209   2.408  0.5406 -1.3942  1.7767
 2558TIP3    H229166   4.071   0.181   2.300  0.7592  2.0174  0.5529
 2559TIP3   OH229167   3.790   5.991  15.987 -0.2422  0.6540  0.1058
 2559TIP3    H129168   3.772   5.902  16.019  1.5957  0.3729  0.4582
 2559TIP3    H229169   3.817   6.040  16.065  0.2416  1.0900 -0.3281
 2560TIP3   OH229170   5.178   0.354   0.084  0.7123 -0.1329 -0.0602
 2560TIP3    H129171   5.144   0.327   0.169 -0.7651 -0.9094 -0.8629
 2560TIP3    H229172   5.142   0.441   0.070  1.8464  0.4560  0.5654
 2561TIP3   OH229173   4.553   1.844   0.722 -0.0832  0.3626  0.3689
 2561TIP3    H129174   4.511   1.896   0.653  0.3019  0.4336  0.1870
 2561TIP3    H229175   4.645   1.867   0.717 -0.1954  1.1995  1.6239
 2562TIP3   OH229176   3.468   4.830  16.908  0.5323 -0.4261  0.3304
 2562TIP3    H129177   3.376   4.834  16.881  0.7307 -0.7393 -0.4038
 2562TIP3    H229178   3.506   4.761  16.853  1.3970  0.2630  0.0485
 2563TIP3   OH229179   3.676   2.193  12.587  0.4527  0.0118  0.3378
 2563TIP3    H129180   3.587   2.225  12.607  0.0242 -2.4446  3.1507
 2563TIP3    H229181   3.664   2.135  12.512 -0.7477 -1.6572  1.7404
 2564TIP3   OH229182   6.657   2.098  11.079 -0.4544 -0.2273  0.6900
 2564TIP3    H129183   6.593   2.044  11.033  0.1263  0.5470 -1.0985
 2564TIP3    H229184   6.670   2.174  11.022  1.5225 -0.0228  1.3330
 2565TIP3   OH229185   3.063   0.312  11.207 -0.1733  0.1131 -0.4606
 2565TIP3    H129186   3.084   0.406  11.202 -2.4520  0.6302 -1.5533
 2565TIP3    H229187   3.057   0.285  11.115 -0.1727 -0.9607 -0.1508
 2566TIP3   OH229188   4.543   3.010   1.164 -0.1996  0.2927 -0.0261
 2566TIP3    H129189   4.454   2.989   1.138 -0.8918  2.0755  0.7674
 2566TIP3    H229190   4.584   3.045   1.084  0.3149 -1.9313 -0.7969
 2567TIP3   OH229191   0.664   0.687   4.144  0.1793 -0.1778  0.0810
 2567TIP3    H129192   0.666   0.783   4.150  0.9636 -0.2568  1.3314
 2567TIP3    H229193   0.682   0.669   4.052  1.1580  0.8656  0.0417
 2568TIP3   OH229194   0.694   3.659  16.976 -0.3529  0.5326  0.9392
 2568TIP3    H129195   0.711   3.614  17.059 -1.4358 -2.0465 -0.1195
 2568TIP3    H229196   0.602   3.685  16.982 -0.3120  0.7274  0.7133
 2569TIP3   OH229197   5.296   1.278  16.194  0.0793  0.1909  0.0742
 2569TIP3    H129198   5.253   1.316  16.270 -0.1766 -1.5121  0.8067
 2569TIP3    H229199   5.366   1.340  16.173 -1.8866  2.3946 -0.3929
 2570TIP3   OH229200   0.573   3.539  14.842  0.2849  0.0546 -0.1354
 2570TIP3    H129201   0.646   3.598  14.823  2.2840 -1.0640  3.1484
 2570TIP3    H229202   0.603   3.453  14.810  1.2414 -0.7068  2.5125
 2571TIP3   OH229203   0.711   4.892  13.109  0.3312 -0.4034 -0.5497
 2571TIP3    H129204   0.679   4.806  13.080  0.7527 -1.0826  0.9078
 2571TIP3    H229205   0.800   4.875  13.138 -0.5234 -0.1344  2.5314
 2572TIP3   OH229206   4.680   3.961  14.693  0.1440 -0.4173 -0.2635
 2572TIP3    H129207   4.610   4.020  14.719  0.9188  0.0759  0.7764
 2572TIP3    H229208   4.687   3.971  14.598  1.2296  2.3034  0.0296
 2573TIP3   OH229209   6.037   5.396   3.801 -0.0081  0.2071  0.0824
 2573TIP3    H129210   6.068   5.344   3.727  0.8398  0.5333  0.2002
 2573TIP3    H229211   5.944   5.410   3.783 -0.2039 -1.1239 -0.0875
 2574TIP3   OH229212   0.575   0.587  15.520 -0.3746  0.0840  0.0166
 2574TIP3    H129213   0.641   0.551  15.460 -0.5932 -0.0097 -0.1693
 2574TIP3    H229214   0.558   0.674  15.487  0.1462  0.3637  0.4595
 2575TIP3   OH229215   1.427   5.908   1.593  0.3149 -0.4295 -0.1014
 2575TIP3    H129216   1.486   5.911   1.668  2.6847  1.2118 -1.8970
 2575TIP3    H229217   1.377   5.989   1.598  0.5485 -0.2695 -0.3434
 2576TIP3   OH229218   3.930   0.187  14.063  0.5089 -0.1032 -0.7481
 2576TIP3    H129219   3.991   0.156  13.996  0.5689 -0.7025 -0.4234
 2576TIP3    H229220   3.860   0.123  14.064 -0.1410  0.5924 -1.1226
 2577TIP3   OH229221   1.109   3.986   6.457  0.1225 -0.0325  0.1229
 2577TIP3    H129222   1.151   4.032   6.384  0.2747  0.5210  0.5530
 2577TIP3    H229223   1.017   3.977   6.430  0.4297 -0.9808 -0.6916
 2578TIP3   OH229224   5.549   6.161  13.641  0.0198  0.1273  0.2365
 2578TIP3    H129225   5.605   6.132  13.713 -0.9735 -1.1681  0.5045
 2578TIP3    H229226   5.589   6.244  13.614  1.1156  0.0594  1.4778
 2579TIP3   OH229227   2.009   5.670  15.515  0.2626  0.3722  0.0272
 2579TIP3    H129228   2.040   5.657  15.604  0.8260 -2.7163 -0.4918
 2579TIP3    H229229   2.082   5.644  15.459 -0.9916 -0.5913 -1.2734
 2580TIP3   OH229230   0.503   3.545   1.002 -0.0698 -0.1209 -0.1708
 2580TIP3    H129231   0.419   3.548   0.956  0.7925  1.1389 -1.7521
 2580TIP3    H229232   0.502   3.623   1.058 -0.2633 -0.5514  0.4455
 2581TIP3   OH229233   0.082   6.337   3.511 -0.0351 -0.0697  0.2012
 2581TIP3    H129234   0.066   6.376   3.425 -0.5976 -0.6693  0.0240
 2581TIP3    H229235   0.006   6.362   3.563 -0.0553 -0.3269  0.2965
 2582TIP3   OH229236   4.166   5.748  16.471  0.1136 -0.0207  0.0060
 2582TIP3    H129237   4.132   5.675  16.522  0.4627 -0.3267 -0.1945
 2582TIP3    H229238   4.230   5.789  16.530  0.8612 -0.6585 -0.3544
 2583TIP3   OH229239   2.681   2.217   1.261 -0.0900  0.1515 -0.3392
 2583TIP3    H129240   2.770   2.202   1.230  0.6291  1.0016  1.2201
 2583TIP3    H229241   2.668   2.311   1.252 -0.6843  0.0878 -0.1851
 2584TIP3   OH229242   4.039   2.925  16.261  0.5939  0.2781 -0.3313
 2584TIP3    H129243   3.959   2.977  16.253 -1.9937 -3.4072 -0.9751
 2584TIP3    H229244   4.068   2.913  16.171  1.4131  0.8162 -0.1562
 2585TIP3   OH229245   1.865   1.368   5.781 -0.2595 -0.6685 -0.2983
 2585TIP3    H129246   1.776   1.398   5.800 -0.0812 -1.0353  1.2016
 2585TIP3    H229247   1.920   1.408   5.848  0.8264  0.0380 -1.5662
 2586TIP3   OH229248   3.298   0.905   6.175 -0.3671  0.0073 -0.5620
 2586TIP3    H129249   3.373   0.918   6.234 -1.4367  1.0608  0.6097
 2586TIP3    H229250   3.304   0.976   6.112  1.0917 -1.4281 -2.1647
 2587TIP3   OH229251   6.530   4.498  11.787  0.3999  0.1194 -0.1127
 2587TIP3    H129252   6.558   4.478  11.876 -3.3519  0.6642  1.3812
 2587TIP3    H229253   6.507   4.413  11.750  1.1077 -0.0148 -0.2583
 2588TIP3   OH229254   1.716   1.534  12.694  0.0103  0.5530  0.3285
 2588TIP3    H129255   1.684   1.602  12.635 -1.4781  0.3306  0.8570
 2588TIP3    H229256   1.795   1.501  12.651 -0.5891  0.9508 -1.1296
 2589TIP3   OH229257   0.580   2.146   3.951  0.1436 -0.1481 -0.1680
 2589TIP3    H129258   0.562   2.192   3.870  0.5028  1.4809  0.6392
 2589TIP3    H229259   0.610   2.059   3.923  0.0408  0.2955 -1.7547
 2590TIP3   OH229260   3.443   3.415   5.723 -0.0516 -0.4253 -0.8672
 2590TIP3    H129261   3.499   3.394   5.649 -0.3189 -1.1277 -0.8806
 2590TIP3    H229262   3.480   3.495   5.760 -0.1484  0.1443 -1.9815
 2591TIP3   OH229263   0.188   3.940   4.795 -0.2911 -0.0902  0.5151
 2591TIP3    H129264   0.205   4.023   4.840  0.4781  0.0293  0.0209
 2591TIP3    H229265   0.268   3.889   4.807  0.3919  0.3831 -1.6491
 2592TIP3   OH229266   6.453   0.053  17.479  0.2304  0.4119  0.0973
 2592TIP3    H129267   6.386   0.036  17.412 -0.1307  3.3485 -0.4291
 2592TIP3    H229268   6.529   0.084  17.430  0.7948  0.3827  0.9327
 2593TIP3   OH229269   4.229   3.725  16.207  0.1957  0.3474 -0.3043
 2593TIP3    H129270   4.292   3.732  16.136 -1.4704 -1.2012 -2.0254
 2593TIP3    H229271   4.147   3.755  16.170 -0.1141  2.7545  2.0192
 2594TIP3   OH229272   1.751   0.290   1.024  0.2024 -0.5132  0.3983
 2594TIP3    H129273   1.761   0.344   0.946 -2.6909  0.0667  0.3057
 2594TIP3    H229274   1.839   0.257   1.042  0.9314 -1.2006 -3.4338
 2595TIP3   OH229275   0.309   4.318  17.065 -0.2746  0.5060  0.3229
 2595TIP3    H129276   0.392   4.313  17.018 -0.6599 -1.0293 -0.2368
 2595TIP3    H229277   0.284   4.411  17.059  1.0953  0.8853  0.0057
 2596TIP3   OH229278   0.400   3.252   2.127  0.7302  0.4002 -0.0282
 2596TIP3    H129279   0.351   3.299   2.059 -0.0881 -2.3074 -1.4421
 2596TIP3    H229280   0.415   3.165   2.090 -0.0105 -1.3118  3.3327
 2597TIP3   OH229281   6.226   0.351   1.258  0.8004  0.0740  0.1082
 2597TIP3    H129282   6.284   0.426   1.245  2.6807 -1.4110 -0.6810
 2597TIP3    H229283   6.141   0.380   1.227  1.3265  2.0460  0.3700
 2598TIP3   OH229284   1.853   4.951   4.910  0.0283  0.0681  0.1183
 2598TIP3    H129285   1.872   4.859   4.892  2.7546  0.8578 -1.5940
 2598TIP3    H229286   1.894   4.967   4.995 -0.6781 -0.3283  0.5444
 2599TIP3   OH229287   4.609   1.288  12.417  0.0408  1.3371 -0.6690
 2599TIP3    H129288   4.601   1.310  12.510  0.4244  0.5428 -0.4429
 2599TIP3    H229289   4.698   1.314  12.394  0.3955  0.3476 -0.4747
 2600TIP3   OH229290   4.928   4.709  16.828  0.1245 -0.5184  0.4723
 2600TIP3    H129291   4.975   4.785  16.793  0.6714 -1.6706 -1.4541
 2600TIP3    H229292   4.840   4.718  16.793  0.5036 -1.3466 -0.7482
 2601TIP3   OH229293   1.491   3.086   3.801 -0.4943  0.2273 -0.2735
 2601TIP3    H129294   1.483   3.141   3.879 -0.5642 -1.3775  0.8966
 2601TIP3    H229295   1.571   3.117   3.758  0.2802  0.2843  1.1524
 2602TIP3   OH229296   6.176   6.238  10.625 -0.0363  0.1727  0.5972
 2602TIP3    H129297   6.157   6.144  10.625  0.2067  0.0854 -1.1652
 2602TIP3    H229298   6.260   6.246  10.670  0.2509 -0.5561  0.2087
 2603TIP3   OH229299   4.013   5.145  12.758  0.3123 -0.0006 -0.4550
 2603TIP3    H129300   4.031   5.209  12.688  2.4852  1.3935  1.2350
 2603TIP3    H229301   4.012   5.196  12.838 -2.1175 -1.5652  0.6388
 2604TIP3   OH229302   2.361   0.334   4.579 -0.1711 -0.4600 -0.0834
 2604TIP3    H129303   2.434   0.300   4.526  2.5842  3.4511  0.7833
 2604TIP3    H229304   2.301   0.371   4.515 -0.4181 -1.8650 -0.7091
 2605TIP3   OH229305   1.902   2.755   0.176  0.1376 -0.3839 -0.6754
 2605TIP3    H129306   1.830   2.814   0.197 -0.9811 -1.7069 -0.6088
 2605TIP3    H229307   1.968   2.773   0.242  0.6484  2.0405 -1.7172
 2606TIP3   OH229308   6.418   4.352  17.416 -0.3942  0.0739 -0.6109
 2606TIP3    H129309   6.338   4.398  17.441  0.7585  3.2799 -2.1998
 2606TIP3    H229310   6.465   4.338  17.498 -2.0092 -0.7938  0.2080
 2607TIP3   OH229311   4.172   4.424  14.407 -0.3966 -0.3623  0.0260
 2607TIP3    H129312   4.113   4.351  14.388 -0.4411 -0.1779 -0.5673
 2607TIP3    H229313   4.113   4.498  14.425 -0.3504 -0.3468  0.1118
 2608TIP3   OH229314   1.724   1.055   2.736 -0.5909  0.3262 -0.5396
 2608TIP3    H129315   1.682   1.025   2.817 -1.1361 -2.9171 -1.8483
 2608TIP3    H229316   1.818   1.045   2.753 -0.7328 -1.4667 -0.6098
 2609TIP3   OH229317   6.196   5.163  17.296 -0.4537 -0.2505 -0.4518
 2609TIP3    H129318   6.261   5.096  17.275 -0.3957  0.2219 -1.9291
 2609TIP3    H229319   6.115   5.132  17.256 -0.6103  0.1849 -0.4817
 2610TIP3   OH229320   2.029   6.146   2.199  0.2721  0.4143 -0.4505
 2610TIP3    H129321   2.101   6.191   2.245  0.6145  0.6971 -1.2365
 2610TIP3    H229322   1.950   6.191   2.229  0.3619 -0.2198  0.8020
 2611TIP3   OH229323   6.276   5.415  11.935  0.8322 -0.4157  0.6276
 2611TIP3    H129324   6.267   5.496  11.984 -0.9713 -1.2825  1.8464
 2611TIP3    H229325   6.234   5.433  11.851  1.0310  0.0996  0.6369
 2612TIP3   OH229326   1.253   5.025   3.814 -0.2322 -0.1976  0.5178
 2612TIP3    H129327   1.192   4.995   3.747  0.5074 -0.9055  0.1401
 2612TIP3    H229328   1.326   4.963   3.810  1.5228  1.7745 -0.5056
 2613TIP3   OH229329   2.603   6.380  13.937  0.0592 -0.2975  0.3051
 2613TIP3    H129330   2.645   6.437  14.001  0.6616  3.3961 -3.0201
 2613TIP3    H229331   2.511   6.408  13.937  0.8445  3.0145 -3.2280
 2614TIP3   OH229332   0.071   2.919  12.230  0.3338 -0.0892 -0.3297
 2614TIP3    H129333  -0.008   2.925  12.175 -0.9263 -0.1530  1.4090
 2614TIP3    H229334   0.090   2.825  12.233 -1.3106 -0.4369  1.5775
 2615TIP3   OH229335   1.014   2.303  12.355 -0.4260  0.0767  0.0863
 2615TIP3    H129336   0.995   2.250  12.277  1.5950  0.0619 -0.4656
 2615TIP3    H229337   1.088   2.358  12.328 -1.2253  1.7976  1.2672
 2616TIP3   OH229338   3.674   2.695   6.016  0.2367 -0.2222 -0.1274
 2616TIP3    H129339   3.738   2.704   6.086  0.5486 -0.3052 -0.3964
 2616TIP3    H229340   3.592   2.727   6.053  0.6650  0.8943 -0.1292
 2617TIP3   OH229341   1.191   3.423  13.188  0.2012  0.3111 -0.3953
 2617TIP3    H129342   1.213   3.336  13.221 -0.2523  0.4247  0.2222
 2617TIP3    H229343   1.099   3.416  13.162 -0.1350  0.8659  0.5883
 2618TIP3   OH229344   4.444   5.343   1.019  0.1140  0.1946  0.2552
 2618TIP3    H129345   4.379   5.328   0.950 -0.4497  1.1611  0.5615
 2618TIP3    H229346   4.484   5.257   1.033 -0.1050 -0.1226 -0.9224
 2619TIP3   OH229347   2.799   5.999   2.453  0.7686  0.1066  0.7610
 2619TIP3    H129348   2.870   5.939   2.429  0.2442 -1.2119  2.2936
 2619TIP3    H229349   2.720   5.946   2.447 -0.0184  1.3558 -0.2095
 2620TIP3   OH229350   0.426   1.561  13.172  0.0400  0.3970  0.2981
 2620TIP3    H129351   0.345   1.517  13.144  0.4633 -0.7415  0.7886
 2620TIP3    H229352   0.409   1.585  13.264  0.7785 -1.2033  0.8826
 2621TIP3   OH229353   3.284   1.899  11.705  0.0376 -0.1320 -0.1769
 2621TIP3    H129354   3.338   1.967  11.745 -1.6657  2.1808 -1.5423
 2621TIP3    H229355   3.344   1.848  11.651  1.7753 -1.2899  2.6393
 2622TIP3   OH229356   0.524   1.527   4.574  0.4572 -0.2567 -0.6250
 2622TIP3    H129357   0.437   1.532   4.615 -0.1197 -0.2678 -1.7807
 2622TIP3    H229358   0.573   1.465   4.628 -0.4325 -0.6513 -0.2418
 2623TIP3   OH229359   5.686   3.028   2.498  0.3902  0.0471 -0.1323
 2623TIP3    H129360   5.667   2.994   2.586  1.8569  0.6420  0.4590
 2623TIP3    H229361   5.601   3.035   2.456 -0.1080 -2.9524  0.2004
 2624TIP3   OH229362   2.243   1.891   1.857  0.6276  0.1735  0.3558
 2624TIP3    H129363   2.162   1.925   1.819  1.1307  1.3601  0.3016
 2624TIP3    H229364   2.220   1.804   1.888  0.1913 -0.9176 -2.7040
 2625TIP3   OH229365   1.416   0.562  14.082  0.1851 -0.1527 -0.2891
 2625TIP3    H129366   1.321   0.577  14.086  0.5499  2.6501  0.1830
 2625TIP3    H229367   1.429   0.508  14.004 -1.6560  1.0526 -1.5035
 2626TIP3   OH229368   4.818   3.922   5.782  1.1654  0.0992  0.1392
 2626TIP3    H129369   4.758   3.984   5.743  1.6217  1.4747  1.5113
 2626TIP3    H229370   4.773   3.891   5.861  1.1911 -0.8797 -0.2130
 2627TIP3   OH229371   3.456   3.312  11.470  0.1858 -0.2645  0.2355
 2627TIP3    H129372   3.539   3.264  11.473  0.5540  0.2972 -0.5868
 2627TIP3    H229373   3.396   3.254  11.424  0.1154 -0.6798  0.8470
 2628TIP3   OH229374   3.186   3.226  14.128  0.2538  0.2600 -0.1244
 2628TIP3    H129375   3.188   3.319  14.151 -1.3293 -0.1021  1.7039
 2628TIP3    H229376   3.238   3.183  14.196 -1.5084 -0.4783  0.7912
 2629TIP3   OH229377   1.808   1.392  12.263  0.1382  0.1535  0.0228
 2629TIP3    H129378   1.861   1.316  12.238  0.5181 -0.0083  1.2472
 2629TIP3    H229379   1.867   1.467  12.257 -0.3178  0.4247 -1.4818
 2630TIP3   OH229380   3.856   0.956  16.422 -0.2531  0.1245  0.2136
 2630TIP3    H129381   3.910   1.015  16.370 -0.8832  0.7348  0.2228
 2630TIP3    H229382   3.893   0.869  16.408 -1.2677  0.0430 -2.4344
 2631TIP3   OH229383   1.503   0.934  12.193 -0.0580 -0.0864  0.4765
 2631TIP3    H129384   1.505   1.004  12.258 -2.4117  1.5362 -1.0577
 2631TIP3    H229385   1.534   0.976  12.112  1.0951 -1.5800  0.1012
 2632TIP3   OH229386   6.479   6.642   5.296  0.6146 -0.1334 -0.7601
 2632TIP3    H129387   6.475   6.640   5.200 -2.3087  2.7464 -0.8617
 2632TIP3    H229388   6.393   6.608   5.324  1.2962 -0.6174  0.8729
 2633TIP3   OH229389   0.891   4.872   3.990  0.0847  0.0639  0.9399
 2633TIP3    H129390   0.892   4.834   3.902  1.2939 -1.3793  1.5300
 2633TIP3    H229391   0.978   4.908   4.002  0.0566 -0.0950  1.6877
 2634TIP3   OH229392   2.212   1.236  15.982  0.4465 -0.0312 -0.4685
 2634TIP3    H129393   2.247   1.322  16.004  1.1618 -0.9366  2.2959
 2634TIP3    H229394   2.117   1.250  15.977  0.5503  0.9077 -0.0951
 2635TIP3   OH229395   4.888   2.537   0.348  0.2691 -0.3197  0.2773
 2635TIP3    H129396   4.794   2.539   0.366  0.3653  0.2714  0.7404
 2635TIP3    H229397   4.911   2.627   0.327  0.8665 -0.3063  0.9284
 2636TIP3   OH229398   4.831   2.475  17.070 -0.0789 -0.0729 -0.7545
 2636TIP3    H129399   4.855   2.535  17.141 -0.4768  0.2223 -0.8619
 2636TIP3    H229400   4.898   2.489  17.003  0.1149 -0.1131 -0.5688
 2637TIP3   OH229401   4.806   4.519   6.356  0.0543 -0.4405  0.3011
 2637TIP3    H129402   4.725   4.469   6.363  0.4295 -1.3212 -1.0940
 2637TIP3    H229403   4.874   4.460   6.390  0.0845  0.4545  1.8732
 2638TIP3   OH229404   0.412   5.214  16.587 -0.1695 -0.5014 -0.3367
 2638TIP3    H129405   0.490   5.161  16.604 -0.5683 -0.6507  1.1933
 2638TIP3    H229406   0.405   5.271  16.664 -0.5664  0.7785 -1.2776
 2639TIP3   OH229407   0.296   2.612   2.364  0.3629  0.4026 -0.3763
 2639TIP3    H129408   0.328   2.569   2.285 -0.9166 -0.0790 -0.6540
 2639TIP3    H229409   0.223   2.557   2.393  0.3692  0.9647  0.7434
 2640TIP3   OH229410   1.464   0.409   5.220 -0.3022  0.0478 -0.1860
 2640TIP3    H129411   1.373   0.434   5.235 -0.0183  0.2674  1.3748
 2640TIP3    H229412   1.515   0.482   5.254  0.4825  0.7000 -2.5911
 2641TIP3   OH229413   1.891   4.336   3.421  0.2552 -0.0163 -0.1330
 2641TIP3    H129414   1.907   4.424   3.388  1.8522 -0.0355  0.4958
 2641TIP3    H229415   1.899   4.344   3.516 -1.4217 -0.5091  0.0930
 2642TIP3   OH229416   1.100   1.428   3.499  0.0418 -0.6526 -0.0670
 2642TIP3    H129417   1.045   1.412   3.576 -0.5696 -1.1386 -0.5988
 2642TIP3    H229418   1.081   1.355   3.440  0.2331 -0.0870 -0.8366
 2643TIP3   OH229419   3.007   2.874   0.329 -0.1882  0.2039  0.1790
 2643TIP3    H129420   3.009   2.900   0.237 -1.3814  0.1027  0.1192
 2643TIP3    H229421   3.032   2.782   0.329  1.5879  0.6426  0.1537
 2644TIP3   OH229422   2.906   2.264   4.465 -0.3769  0.1635 -0.1102
 2644TIP3    H129423   2.888   2.272   4.372 -0.1611  0.2471 -0.1460
 2644TIP3    H229424   3.002   2.258   4.470 -0.4499 -1.0869  0.0106
 2645TIP3   OH229425   3.358   6.405   0.343 -0.5507  0.0223 -0.2898
 2645TIP3    H129426   3.268   6.373   0.354 -0.4422 -0.1778  0.0348
 2645TIP3    H229427   3.397   6.346   0.279 -0.5126 -0.1762 -0.0866
 2646TIP3   OH229428   1.404   5.728   2.332  0.0889 -0.5620  0.2112
 2646TIP3    H129429   1.377   5.688   2.250  0.9477  2.3504 -1.6591
 2646TIP3    H229430   1.430   5.817   2.307  3.1456 -0.4512  3.1637
 2647TIP3   OH229431   1.070   6.289  13.749 -0.1350  0.4519  0.3520
 2647TIP3    H129432   1.145   6.330  13.706 -0.0054  0.0146  0.1546
 2647TIP3    H229433   1.097   6.279  13.840  0.4958 -0.7484  0.0464
 2648TIP3   OH229434   4.717   5.852   4.050 -0.7274 -0.6686 -0.0510
 2648TIP3    H129435   4.700   5.797   3.973 -1.0679 -1.9776  0.9262
 2648TIP3    H229436   4.758   5.793   4.113 -0.5671  0.3561  0.8309
 2649TIP3   OH229437   6.430   5.856  11.969  0.1779  0.4288 -0.6983
 2649TIP3    H129438   6.491   5.926  11.993 -0.5029  0.7483  0.1544
 2649TIP3    H229439   6.344   5.897  11.976 -0.3040 -0.7892  0.8839
 2650TIP3   OH229440   6.564   0.326  15.810  0.1295 -0.3694 -0.4147
 2650TIP3    H129441   6.550   0.296  15.900 -1.1502 -1.3371 -0.9050
 2650TIP3    H229442   6.482   0.371  15.787  0.9990  1.2090 -0.6193
 2651TIP3   OH229443   1.116   5.404   0.236  0.1365  0.2334  0.6533
 2651TIP3    H129444   1.117   5.364   0.149  1.3017  0.2238  0.6574
 2651TIP3    H229445   1.133   5.496   0.220 -3.3343  0.9905  0.5691
 2652TIP3   OH229446   3.904   2.195  12.128 -0.1905 -0.2873  0.3950
 2652TIP3    H129447   3.812   2.211  12.108 -0.7741 -2.5660  0.9700
 2652TIP3    H229448   3.929   2.123  12.070  0.8749 -0.5213  1.1179
 2653TIP3   OH229449   5.926   2.093  11.787  0.5690  0.1197 -0.4471
 2653TIP3    H129450   5.895   2.093  11.877  0.7187  1.1358 -0.3844
 2653TIP3    H229451   5.911   2.004  11.756 -1.1904  0.2388 -0.0146
 2654TIP3   OH229452   5.887   3.776  12.753  0.3394 -0.3811  0.6037
 2654TIP3    H129453   5.820   3.769  12.684  0.6633 -1.7440  0.3928
 2654TIP3    H229454   5.920   3.687  12.763  0.9656 -0.0294  1.8787
 2655TIP3   OH229455   3.294   5.583   4.413  0.2669 -0.0656 -0.3486
 2655TIP3    H129456   3.319   5.666   4.371 -0.3765 -0.5541 -1.7570
 2655TIP3    H229457   3.368   5.525   4.396  1.0588  0.4145  1.3077
 2656TIP3   OH229458   5.051   5.243  14.271  0.5484  0.8430  0.3911
 2656TIP3    H129459   5.001   5.267  14.193  1.7603 -2.7815 -1.7565
 2656TIP3    H229460   4.986   5.215  14.335 -0.3508 -0.0040 -0.8611
 2657TIP3   OH229461   2.094   0.032  17.237 -0.0253  0.2833  0.1961
 2657TIP3    H129462   2.033   0.103  17.256  0.3323  0.5583  0.3258
 2657TIP3    H229463   2.073  -0.036  17.300  0.8054  0.9755  1.2564
 2658TIP3   OH229464   1.818   3.368   6.519 -0.4148  0.1475 -0.1259
 2658TIP3    H129465   1.872   3.391   6.594 -0.1861 -0.2700 -0.1613
 2658TIP3    H229466   1.749   3.313   6.556 -1.1997  1.1907  0.0278
 2659TIP3   OH229467   2.150   3.784  15.850  0.0819 -0.5477 -0.1092
 2659TIP3    H129468   2.162   3.690  15.838 -0.2776 -0.4991 -0.8960
 2659TIP3    H229469   2.150   3.797  15.945 -2.0378 -1.6284  0.0824
 2660TIP3   OH229470   0.711   3.992  14.167 -0.5125 -0.3522 -0.0797
 2660TIP3    H129471   0.769   3.977  14.093 -0.8401  0.2026 -0.4613
 2660TIP3    H229472   0.624   3.967  14.136 -0.6514 -0.1284  0.1161
 2661TIP3   OH229473   2.527   6.746   0.932  0.5676 -0.4133 -0.1270
 2661TIP3    H129474   2.448   6.726   0.881  0.2653  0.9037 -0.2229
 2661TIP3    H229475   2.546   6.666   0.980 -1.7696 -0.3292  1.1116
 2662TIP3   OH229476   5.179   3.438  15.729 -0.0252  0.3696 -0.2311
 2662TIP3    H129477   5.131   3.518  15.708  0.6486  0.8071 -0.1101
 2662TIP3    H229478   5.264   3.468  15.760 -0.0853 -0.3653  0.6802
 2663TIP3   OH229479   5.543   5.590  16.824  0.4550 -0.4930  0.3974
 2663TIP3    H129480   5.507   5.646  16.892  0.9802 -1.8913  1.9152
 2663TIP3    H229481   5.607   5.535  16.870  0.8164 -1.5053 -1.2228
 2664TIP3   OH229482   3.093   1.385  12.377  0.0043  0.0811 -0.9152
 2664TIP3    H129483   3.036   1.447  12.332 -0.1716  2.4570  2.2886
 2664TIP3    H229484   3.179   1.396  12.336 -0.7693 -0.2737 -2.7553
 2665TIP3   OH229485   3.755   3.968  11.735 -0.5492 -0.1361  0.0181
 2665TIP3    H129486   3.688   3.919  11.783 -0.4110  0.1791  0.5484
 2665TIP3    H229487   3.836   3.923  11.755 -0.5721 -0.3947 -0.4585
 2666TIP3   OH229488   0.748   4.770  13.791  0.5146 -0.3564 -0.5716
 2666TIP3    H129489   0.827   4.745  13.838  1.0839  1.8625 -0.2060
 2666TIP3    H229490   0.686   4.699  13.808  1.8405 -1.2785  0.6256
 2667TIP3   OH229491   3.852   1.997   0.557  0.2264  0.1618  0.5004
 2667TIP3    H129492   3.869   1.941   0.481  1.8492  0.6209  0.4991
 2667TIP3    H229493   3.834   1.935   0.628 -0.3031 -0.2953 -0.0246
 2668TIP3   OH229494   3.714   1.557  17.307 -0.0305  0.0744  0.2361
 2668TIP3    H129495   3.718   1.623  17.377  0.0087  0.1342  0.1770
 2668TIP3    H229496   3.711   1.474  17.354 -0.5719  0.1392  0.3236
 2669TIP3   OH229497   5.250   2.408   2.993 -0.4364 -0.1707 -0.5943
 2669TIP3    H129498   5.254   2.357   3.074  1.6909 -1.2095 -1.2995
 2669TIP3    H229499   5.249   2.499   3.023 -1.7009 -0.5559  0.6200
 2670TIP3   OH229500   4.568   2.742   3.103  0.4933 -0.4222 -0.4067
 2670TIP3    H129501   4.652   2.785   3.090  0.6744 -0.4819  0.4549
 2670TIP3    H229502   4.590   2.649   3.109  0.5212 -0.3493  0.9084
 2671TIP3   OH229503   4.489   4.906  15.527 -0.3499  0.3905  0.6435
 2671TIP3    H129504   4.504   4.993  15.492  0.0588  0.6703  1.4829
 2671TIP3    H229505   4.532   4.907  15.613 -1.3875 -0.2260  1.1967
 2672TIP3   OH229506   0.842   2.013  13.723 -0.2552  0.1346  0.0188
 2672TIP3    H129507   0.821   2.069  13.649  1.0303 -0.7651 -1.0625
 2672TIP3    H229508   0.794   2.051  13.797  2.1455  3.9157 -0.1372
 2673TIP3   OH229509   1.836   4.338   3.688  0.6253  0.1759 -0.1607
 2673TIP3    H129510   1.917   4.373   3.724  0.7479  0.1553 -0.4128
 2673TIP3    H229511   1.771   4.407   3.703  0.5043 -0.1209  0.7422
 2674TIP3   OH229512   1.640   0.664   2.990  0.4082 -0.0008  0.5103
 2674TIP3    H129513   1.685   0.650   2.907 -0.1915 -0.2262  0.2124
 2674TIP3    H229514   1.709   0.667   3.056  0.7765 -1.9478  0.2770
 2675TIP3   OH229515   5.644   1.044  10.633  0.0616  0.1274 -0.1033
 2675TIP3    H129516   5.607   0.957  10.647  1.5308 -0.8314 -1.8504
 2675TIP3    H229517   5.582   1.088  10.575  0.8767 -0.9753 -1.8923
 2676TIP3   OH229518   1.773   1.358  17.227 -0.6096 -0.0479 -0.2651
 2676TIP3    H129519   1.782   1.363  17.131 -0.3369 -0.7725 -0.2826
 2676TIP3    H229520   1.862   1.340  17.258 -0.7458 -0.0792  0.1044
 2677TIP3   OH229521   3.353   0.267  17.498 -0.4602  0.2144 -0.4194
 2677TIP3    H129522   3.300   0.188  17.511  0.1921 -0.1164  0.3284
 2677TIP3    H229523   3.396   0.254  17.414  0.9523 -1.0251  0.4433
 2678TIP3   OH229524   6.542   4.701   3.466  0.0131  0.0848 -0.0146
 2678TIP3    H129525   6.565   4.713   3.374  1.8456 -0.6684  0.3066
 2678TIP3    H229526   6.461   4.649   3.464 -0.0541  0.2066 -1.1913
 2679TIP3   OH229527   1.044   5.489   4.151 -0.6951  0.3864  0.3970
 2679TIP3    H129528   1.018   5.418   4.210 -1.0085 -2.2527 -2.6267
 2679TIP3    H229529   0.962   5.527   4.121 -0.5890  0.5491  0.3113
 2680TIP3   OH229530   4.566   6.538   2.670 -0.4733  0.0844 -0.1961
 2680TIP3    H129531   4.622   6.593   2.615  1.7330 -2.4423 -0.7142
 2680TIP3    H229532   4.478   6.570   2.654  0.4574  1.9089 -2.2333
 2681TIP3   OH229533   6.113   5.778   4.899  0.2124  0.2271  0.0089
 2681TIP3    H129534   6.036   5.806   4.949  0.6870  0.5954  0.5592
 2681TIP3    H229535   6.145   5.859   4.858  0.5043  0.1384  0.0608
 2682TIP3   OH229536   6.113   4.117   2.314  0.3574 -0.9195  0.1469
 2682TIP3    H129537   6.105   4.210   2.336 -0.1180 -0.5352 -1.4877
 2682TIP3    H229538   6.045   4.074   2.367  0.3173 -0.2904  0.6208
 2683TIP3   OH229539   2.170   6.711   3.903 -0.1840  0.8137 -0.6101
 2683TIP3    H129540   2.098   6.719   3.841 -0.8141  0.7501  0.1020
 2683TIP3    H229541   2.134   6.660   3.975  1.3671 -1.6841 -1.4652
 2684TIP3   OH229542   0.170   6.748  14.623  0.2449  0.0130  0.0389
 2684TIP3    H129543   0.232   6.677  14.638 -0.9893 -0.7120  2.0154
 2684TIP3    H229544   0.219   6.827  14.647  1.0519 -0.3031 -0.4901
 2685TIP3   OH229545   4.412   4.310   2.782 -0.2785 -0.5473  0.5440
 2685TIP3    H129546   4.437   4.369   2.712 -0.0131  0.4979  1.4894
 2685TIP3    H229547   4.322   4.283   2.761 -0.2642 -0.0988 -0.0840
 2686TIP3   OH229548   5.961   6.315   1.578  0.8947  0.2337 -0.0325
 2686TIP3    H129549   5.902   6.258   1.627  0.3923 -0.1593 -1.0530
 2686TIP3    H229550   5.947   6.290   1.487  0.8853  1.7804 -0.4883
 2687TIP3   OH229551   2.667   3.788  13.393 -0.0890 -0.2349 -0.0073
 2687TIP3    H129552   2.679   3.859  13.456  1.0591  1.3446 -1.8883
 2687TIP3    H229553   2.587   3.743  13.422 -1.1873  2.1764  0.9338
 2688TIP3   OH229554   2.243   1.525   3.806 -0.0179 -0.1862 -0.1213
 2688TIP3    H129555   2.185   1.575   3.748  0.0746 -0.7405 -0.6934
 2688TIP3    H229556   2.206   1.539   3.893  0.3220  1.3280 -0.1960
 2689TIP3   OH229557   3.794   3.425  12.720 -0.8677  0.1299 -0.2247
 2689TIP3    H129558   3.789   3.350  12.779 -0.2317 -0.8094 -1.3147
 2689TIP3    H229559   3.720   3.480  12.744 -2.6370 -1.8857 -0.7668
 2690TIP3   OH229560   1.231   2.369  11.968  0.0479 -0.0297 -0.2442
 2690TIP3    H129561   1.271   2.431  12.029  0.7381 -1.0995  0.4270
 2690TIP3    H229562   1.139   2.398  11.961  0.6341  1.8192 -0.9771
 2691TIP3   OH229563   1.025   2.520  12.122 -0.1255  0.2442 -0.4957
 2691TIP3    H129564   0.983   2.526  12.208 -1.4761 -2.3484 -0.8745
 2691TIP3    H229565   1.118   2.537  12.139 -0.5298  0.9300  1.2531
 2692TIP3   OH229566   3.163   2.162   4.481  0.7798 -0.6339  0.1075
 2692TIP3    H129567   3.257   2.146   4.489  0.8128 -0.7902 -0.5873
 2692TIP3    H229568   3.139   2.203   4.564  1.8338  1.2396 -0.4614
 2693TIP3   OH229569   0.289   4.621  14.782 -0.2412  0.0679 -0.5264
 2693TIP3    H129570   0.245   4.665  14.709 -0.2841 -0.5184 -0.8692
 2693TIP3    H229571   0.219   4.572  14.825 -0.1361  0.0685 -0.3538
 2694TIP3   OH229572   6.236   3.063  14.972  0.8357 -0.3998  0.4809
 2694TIP3    H129573   6.322   3.037  15.004  1.4466  0.0374 -0.7220
 2694TIP3    H229574   6.220   3.006  14.896  0.0980 -0.4254  0.6458
 2695TIP3   OH229575   2.676   3.000  15.360 -0.1297 -0.0277 -0.1062
 2695TIP3    H129576   2.592   3.027  15.322  0.2181  0.7151 -0.3638
 2695TIP3    H229577   2.739   3.011  15.289  0.9108  3.3866  1.1272
 2696TIP3   OH229578   1.280   3.785  15.806 -0.0316 -0.2094 -0.0070
 2696TIP3    H129579   1.252   3.877  15.807  1.2114  0.2227 -1.2781
 2696TIP3    H229580   1.375   3.789  15.816  0.0070 -1.3904  0.2165
 2697TIP3   OH229581   6.072   1.163   2.342 -0.5136 -0.5668  0.4591
 2697TIP3    H129582   6.046   1.253   2.320  0.7992 -0.3575 -0.3049
 2697TIP3    H229583   6.142   1.143   2.281 -1.0987 -2.2985  0.3119
 2698TIP3   OH229584   0.392   2.224  12.497 -0.2719  0.1182  0.2535
 2698TIP3    H129585   0.310   2.177  12.482  0.2995 -0.0761 -3.3995
 2698TIP3    H229586   0.366   2.317  12.497 -0.5900  0.0401 -0.3599
 2699TIP3   OH229587   5.300   5.492   4.867 -0.5666  0.8592 -0.7539
 2699TIP3    H129588   5.236   5.524   4.931  0.0538  0.9614 -0.1637
 2699TIP3    H229589   5.381   5.540   4.889 -0.1961  0.4668 -1.2462
 2700TIP3   OH229590   3.598   5.417   3.770  0.5415 -0.5987  0.0179
 2700TIP3    H129591   3.684   5.377   3.782  0.6263 -0.0131  1.5472
 2700TIP3    H229592   3.616   5.507   3.744  0.3786 -0.6343 -0.2233
 2701TIP3   OH229593   2.328   0.837   1.522  0.1880 -0.4659 -0.3430
 2701TIP3    H129594   2.415   0.801   1.538 -1.1005 -3.1009  1.4236
 2701TIP3    H229595   2.270   0.782   1.574 -2.5689  1.1224 -1.5609
 2702TIP3   OH229596   5.616   0.945   3.168 -0.1953 -0.2884 -0.0786
 2702TIP3    H129597   5.617   1.034   3.203 -0.1819 -0.2298 -0.2277
 2702TIP3    H229598   5.696   0.939   3.116  0.3404 -0.7220  0.7716
 2703TIP3   OH229599   4.611   1.792  17.470  0.0433 -0.5238 -0.1028
 2703TIP3    H129600   4.639   1.722  17.411 -1.3296  0.1122 -1.5709
 2703TIP3    H229601   4.533   1.828  17.429  0.6515  1.8127  0.6656
 2704TIP3   OH229602   1.878   4.962   3.333 -0.1143  0.5108  0.7130
 2704TIP3    H129603   1.962   4.986   3.372  0.1320  0.6786  0.0749
 2704TIP3    H229604   1.901   4.908   3.258 -0.5540  1.0313  0.1995
 2705TIP3   OH229605   4.071   4.541   2.769 -0.3910  0.1027  0.0951
 2705TIP3    H129606   3.976   4.540   2.754 -0.2789 -2.2210 -1.0170
 2705TIP3    H229607   4.108   4.560   2.682  0.1731  1.1232  0.5490
 2706TIP3   OH229608   4.181   1.386   3.356  0.2672  0.3586  0.4381
 2706TIP3    H129609   4.121   1.314   3.335 -0.0348  0.4321  1.0317
 2706TIP3    H229610   4.126   1.450   3.400  0.7962  0.4083  1.0309
 2707TIP3   OH229611   3.449   4.776  15.270 -0.0311 -0.8855  0.0591
 2707TIP3    H129612   3.409   4.725  15.200  0.6559 -1.6657  0.2171
 2707TIP3    H229613   3.406   4.745  15.350 -0.3183 -0.4973  0.0560
 2708TIP3   OH229614   2.138   1.624  12.176  0.1099  0.3311 -0.0962
 2708TIP3    H129615   2.130   1.532  12.148  1.1385  0.6141 -1.4304
 2708TIP3    H229616   2.227   1.632  12.209  0.1670  0.9465 -0.3864
 2709TIP3   OH229617   3.310   2.986  15.087  0.4615 -0.1977 -0.2427
 2709TIP3    H129618   3.379   2.978  15.021 -0.5833 -0.5204 -1.3371
 2709TIP3    H229619   3.240   3.034  15.043 -1.5420 -3.1130 -0.5198
 2710TIP3   OH229620   4.974   0.941   3.576  0.3956  0.4918  0.1195
 2710TIP3    H129621   5.042   0.873   3.574  1.6256  1.6791 -0.4783
 2710TIP3    H229622   4.989   0.993   3.497 -1.1135  0.8963  0.0729
 2711TIP3   OH229623   6.742   6.401  15.247 -0.2020 -0.0354  0.3532
 2711TIP3    H129624   6.676   6.468  15.261  0.7235  1.0760 -0.4158
 2711TIP3    H229625   6.821   6.436  15.288  0.1097 -1.0100  0.6204
 2712TIP3   OH229626   1.593   1.700   2.740  0.3666  0.7543 -0.1216
 2712TIP3    H129627   1.556   1.641   2.675  2.9336  0.5451 -1.5092
 2712TIP3    H229628   1.528   1.770   2.749 -0.3827  0.4126 -2.3919
 2713TIP3   OH229629   2.416   4.082  12.855  0.8695 -0.4783 -0.0989
 2713TIP3    H129630   2.420   4.041  12.768  3.1950  1.2020 -0.8930
 2713TIP3    H229631   2.507   4.083  12.885  0.0744 -1.5365  2.6978
 2714TIP3   OH229632   6.106   0.037  15.309  0.1236  0.8236 -0.5481
 2714TIP3    H129633   6.062   0.062  15.390 -1.6708 -0.1887 -1.1307
 2714TIP3    H229634   6.181   0.096  15.302  0.2055  1.0620  1.7205
 2715TIP3   OH229635   4.328   5.261  12.702  0.0706 -0.3948 -0.3867
 2715TIP3    H129636   4.255   5.208  12.670  0.4882 -1.2001 -0.0290
 2715TIP3    H229637   4.292   5.350  12.709 -1.1167 -0.9304  0.5873
 2716TIP3   OH229638   0.378   1.154   4.449  0.1823 -0.6616 -0.1112
 2716TIP3    H129639   0.401   1.144   4.356 -0.8319  1.3601 -0.6289
 2716TIP3    H229640   0.345   1.244   4.456 -1.4750 -1.3586  1.8620
 2717TIP3   OH229641   1.216   3.817   6.133  0.5017 -0.2605  0.2156
 2717TIP3    H129642   1.282   3.749   6.145  0.5057 -0.2084  0.4851
 2717TIP3    H229643   1.133   3.769   6.136  0.5135 -0.2824  0.1969
 2718TIP3   OH229644   0.470   4.659   5.121  0.1443 -0.1560  0.4763
 2718TIP3    H129645   0.444   4.709   5.043 -1.7659  3.3227  3.0675
 2718TIP3    H229646   0.401   4.593   5.130 -0.1768  0.0688 -0.2103
 2719TIP3   OH229647   0.259   4.662  15.928 -0.4099  0.3462 -0.2997
 2719TIP3    H129648   0.212   4.636  15.849 -0.6451  0.5774 -0.2363
 2719TIP3    H229649   0.263   4.582  15.981 -1.5169  0.5295  0.0906
 2720TIP3   OH229650   6.453   5.309  16.669 -0.2556 -0.5245 -0.2495
 2720TIP3    H129651   6.503   5.376  16.623 -0.6396  0.7260  1.0860
 2720TIP3    H229652   6.517   5.242  16.692  0.1298 -0.6458 -1.5963
 2721TIP3   OH229653   0.202   0.864  14.753  0.4425  0.5281  0.3459
 2721TIP3    H129654   0.206   0.772  14.779  0.9848  0.1488 -0.9784
 2721TIP3    H229655   0.110   0.888  14.763  0.0160 -0.5993 -0.6869
 2722TIP3   OH229656   5.098   5.043  12.842  0.0930  0.3181 -0.3296
 2722TIP3    H129657   5.042   5.121  12.836  1.2686  1.4904  2.3804
 2722TIP3    H229658   5.114   5.032  12.936  1.2871 -2.2759 -0.7498
 2723TIP3   OH229659   6.506   6.396   4.463 -0.3442 -0.0830 -0.4875
 2723TIP3    H129660   6.519   6.447   4.383 -1.7543  0.6458 -0.2802
 2723TIP3    H229661   6.530   6.307   4.438  1.0752  0.4537 -1.1726
 2724TIP3   OH229662   4.364   5.250   2.390 -0.0362 -0.0973 -0.1858
 2724TIP3    H129663   4.423   5.208   2.328 -0.0231  0.5726 -0.6355
 2724TIP3    H229664   4.420   5.311   2.439  0.2431 -1.5934  1.4555
 2725TIP3   OH229665   2.266   0.995  11.751 -0.8775 -0.1776 -0.1867
 2725TIP3    H129666   2.294   1.071  11.700 -2.0255 -0.2319 -0.9293
 2725TIP3    H229667   2.256   0.925  11.687  0.4378 -1.0675  0.5305
 2726TIP3   OH229668   3.837   3.384  16.333 -0.3917 -0.4417  0.2031
 2726TIP3    H129669   3.927   3.352  16.325  0.3963  1.5378  0.5719
 2726TIP3    H229670   3.822   3.387  16.428 -0.0365  1.2072  0.2419
 2727TIP3   OH229671   6.369   6.055   4.509 -0.0325  0.3498  1.1591
 2727TIP3    H129672   6.404   6.089   4.591 -0.3848  4.1515 -0.0664
 2727TIP3    H229673   6.440   6.067   4.446 -0.3082 -1.0456  0.5428
 2728TIP3   OH229674   2.954   4.940  15.863  0.3938 -0.3862  0.3125
 2728TIP3    H129675   2.959   4.963  15.770  0.5009 -2.6735 -0.3094
 2728TIP3    H229676   2.879   4.990  15.896  1.2573  1.6067 -0.6163
 2729TIP3   OH229677   2.553   6.378   5.580  0.0675 -0.4474 -0.1334
 2729TIP3    H129678   2.525   6.436   5.509  0.5346  0.1496  0.1630
 2729TIP3    H229679   2.548   6.433   5.659  1.1469 -0.6128  0.0612
 2730TIP3   OH229680   4.048   1.606  10.663  0.5863  0.6382 -0.0593
 2730TIP3    H129681   3.960   1.575  10.640 -0.1384  2.4687  0.0074
 2730TIP3    H229682   4.107   1.554  10.609 -0.3502 -1.9998  1.2968
 2731TIP3   OH229683   2.300   1.026   4.651 -0.5111  0.1188 -0.1838
 2731TIP3    H129684   2.391   1.018   4.621 -0.0851  1.2704  0.7242
 2731TIP3    H229685   2.256   1.075   4.581  0.3116  2.1938  0.6658
 2732TIP3   OH229686   0.926   0.844   0.226 -0.2943  0.4000 -0.2521
 2732TIP3    H129687   0.946   0.754   0.200 -0.7534  0.3270 -0.3621
 2732TIP3    H229688   1.007   0.877   0.263 -0.3962 -0.3736  0.6781
 2733TIP3   OH229689   6.697   5.023  14.334 -0.2380  0.7183 -0.1203
 2733TIP3    H129690   6.685   5.089  14.402  0.8103 -0.1884  0.9987
 2733TIP3    H229691   6.787   4.994  14.345 -0.2555  0.0758 -1.4866
 2734TIP3   OH229692   6.428   0.651   0.408  0.1436 -0.1409  0.0379
 2734TIP3    H129693   6.442   0.579   0.469  1.1532 -0.4264 -0.4985
 2734TIP3    H229694   6.421   0.609   0.323  2.1026  0.4412 -0.4633
 2735TIP3   OH229695   3.750   6.726  14.389 -0.0063  0.0986 -0.1110
 2735TIP3    H129696   3.709   6.643  14.416  0.8280 -0.5685 -0.8231
 2735TIP3    H229697   3.680   6.791  14.397 -0.8351 -0.7716 -0.0457
 2736TIP3   OH229698   0.829   0.891   3.761  0.2508  0.2585  0.3540
 2736TIP3    H129699   0.889   0.865   3.690  2.1888  0.7800  1.7257
 2736TIP3    H229700   0.743   0.861   3.731  0.7762  1.4243 -2.7263
 2737TIP3   OH229701   4.478   1.480  16.541  0.3074 -0.0372 -0.0049
 2737TIP3    H129702   4.419   1.473  16.617  0.2165  1.4338  0.0845
 2737TIP3    H229703   4.421   1.468  16.465  0.3676 -1.3291  0.1310
 2738TIP3   OH229704   1.904   0.497   2.490 -0.2165 -0.3192 -0.1796
 2738TIP3    H129705   1.927   0.417   2.442 -1.0239 -0.7176  0.0733
 2738TIP3    H229706   1.832   0.535   2.440 -1.0162 -0.6998  0.6626
 2739TIP3   OH229707   1.642   3.117   2.211  0.0281 -0.3590  1.4024
 2739TIP3    H129708   1.641   3.035   2.161 -2.1468  1.0435 -1.1230
 2739TIP3    H229709   1.710   3.170   2.170 -0.0286 -0.1195  1.6161
 2740TIP3   OH229710   2.303   1.069   0.664 -0.2096  0.4710 -0.3636
 2740TIP3    H129711   2.266   1.061   0.752 -0.1398  1.1304 -0.2734
 2740TIP3    H229712   2.234   1.038   0.606 -1.1911  2.3300 -0.2539
 2741TIP3   OH229713   4.710   3.505  15.083 -0.1391 -0.6066 -0.1043
 2741TIP3    H129714   4.631   3.550  15.052  0.5523 -0.7419 -2.1954
 2741TIP3    H229715   4.770   3.576  15.107 -0.8335 -0.5028  1.5210
 2742TIP3   OH229716   4.780   0.360   5.318  0.5109 -0.2203  0.0440
 2742TIP3    H129717   4.701   0.310   5.336 -1.1598  1.8427 -1.1281
 2742TIP3    H229718   4.824   0.367   5.403 -1.1542 -0.4183  0.9581
 2743TIP3   OH229719   0.245   2.837   1.753  0.8484  0.1143  0.0797
 2743TIP3    H129720   0.255   2.930   1.733 -0.2810  0.5557  1.4084
 2743TIP3    H229721   0.153   2.819   1.732  0.4036 -0.0942  2.0645
 2744TIP3   OH229722   2.765   4.243   1.745  0.5279  0.8413  0.4916
 2744TIP3    H129723   2.788   4.319   1.692 -1.9472  1.9360  0.8716
 2744TIP3    H229724   2.747   4.277   1.832 -2.1116  0.1281  0.3044
 2745TIP3   OH229725   1.466   2.507   1.050 -0.6514  0.1821  0.3518
 2745TIP3    H129726   1.384   2.483   1.006 -0.3356 -0.0394 -0.1282
 2745TIP3    H229727   1.477   2.600   1.031  0.7764 -0.4170 -2.2677
 2746TIP3   OH229728   1.033   6.765   0.756 -0.4737  0.5165 -0.0185
 2746TIP3    H129729   1.071   6.701   0.816  1.2053 -0.9365 -2.4078
 2746TIP3    H229730   1.020   6.843   0.809  0.0607 -0.9129  2.3916
 2747TIP3   OH229731   4.075   1.384   0.741 -0.4809 -0.0749  0.7894
 2747TIP3    H129732   4.079   1.313   0.804  0.9827 -0.3272  0.4603
 2747TIP3    H229733   4.128   1.353   0.667 -1.7600  0.4037 -0.3616
 2748TIP3   OH229734   1.965   2.135  11.824  0.4215 -0.2048  0.0768
 2748TIP3    H129735   1.898   2.121  11.890  0.8857  0.2279  0.6519
 2748TIP3    H229736   2.048   2.127  11.872  0.7730 -0.2595 -0.5251
 2749TIP3   OH229737   1.649   1.854  11.901 -0.3651  0.3528 -0.2220
 2749TIP3    H129738   1.561   1.847  11.938 -0.1687  1.1517  0.4354
 2749TIP3    H229739   1.697   1.906  11.965  1.2715 -2.0510  0.6756
 2750TIP3   OH229740   1.937   6.439  15.489 -0.0236 -0.2933 -0.0152
 2750TIP3    H129741   1.918   6.500  15.561  0.1809 -0.5904  0.2939
 2750TIP3    H229742   1.997   6.375  15.527  0.9817  0.1767 -0.7624
 2751TIP3   OH229743   4.191   0.258  10.993  0.4198  0.0332 -0.5758
 2751TIP3    H129744   4.270   0.313  10.991  0.2575  0.2975  0.0608
 2751TIP3    H229745   4.219   0.179  11.039  0.5184 -0.2052 -1.0426
 2752TIP3   OH229746   0.588   5.401  13.491 -0.3083 -0.2185 -0.4621
 2752TIP3    H129747   0.657   5.394  13.425  2.1040 -1.0106  1.9856
 2752TIP3    H229748   0.545   5.315  13.489 -0.0041 -0.3673 -0.7297
 2753TIP3   OH229749   5.064   4.049  13.655  0.6849  0.1352 -0.4076
 2753TIP3    H129750   5.064   4.112  13.583 -0.1501  0.9421  0.2720
 2753TIP3    H229751   4.982   4.001  13.646  0.4523  0.4126  0.1306
 2754TIP3   OH229752   5.331   0.197   5.420 -0.4337  0.2140 -0.5272
 2754TIP3    H129753   5.242   0.233   5.424 -1.4311 -1.8932 -1.9509
 2754TIP3    H229754   5.372   0.244   5.347 -1.0771 -0.1369 -1.1381
 2755TIP3   OH229755   4.020   3.931   6.557 -0.1668 -0.1428 -0.2648
 2755TIP3    H129756   4.055   4.014   6.524  2.2635 -0.3315  1.5522
 2755TIP3    H229757   4.091   3.894   6.609 -2.5167 -1.4184  2.3562
 2756TIP3   OH229758   2.209   1.594  15.803 -0.1583  0.0223 -0.2316
 2756TIP3    H129759   2.179   1.538  15.874 -0.2846  1.3835  0.8124
 2756TIP3    H229760   2.130   1.616  15.755 -0.1829 -0.2077 -0.2994
 2757TIP3   OH229761   2.116   4.301  12.593  0.2402 -0.3123  0.1485
 2757TIP3    H129762   2.147   4.234  12.533  1.3534  0.4178 -0.1256
 2757TIP3    H229763   2.156   4.280  12.677  2.0865  0.9880 -0.3506
 2758TIP3   OH229764   3.582   1.439   4.718 -0.0395 -0.0291 -0.2834
 2758TIP3    H129765   3.493   1.409   4.700  0.1446 -0.5439 -0.3451
 2758TIP3    H229766   3.572   1.531   4.742 -0.3539  0.6412 -2.6958
 2759TIP3   OH229767   2.197   2.796   3.784  0.3981  0.2134  0.2859
 2759TIP3    H129768   2.249   2.731   3.737  0.9154  1.3587 -0.7676
 2759TIP3    H229769   2.261   2.858   3.819 -0.1376  0.6075  0.5891
 2760TIP3   OH229770   3.637   3.406  13.949  0.0680  0.7300  0.0783
 2760TIP3    H129771   3.717   3.419  13.899 -0.6657  0.8588 -1.1103
 2760TIP3    H229772   3.579   3.476  13.920 -0.9424 -0.1453 -0.1031
 2761TIP3   OH229773   0.315   3.283  14.261 -0.0366  0.1684 -0.5072
 2761TIP3    H129774   0.345   3.257  14.174  1.6588 -0.2325  0.1470
 2761TIP3    H229775   0.330   3.206  14.315  0.0461  0.7944  0.3820
 2762TIP3   OH229776   0.487   1.342   2.061 -0.5818  0.4302 -0.1611
 2762TIP3    H129777   0.530   1.363   2.144 -0.0089 -0.5935 -0.1715
 2762TIP3    H229778   0.397   1.322   2.085  0.1482 -2.4629  0.6925
 2763TIP3   OH229779   0.071   5.169  13.272 -0.4007 -0.5858  0.3616
 2763TIP3    H129780   0.158   5.208  13.265 -0.9656  0.6781  0.1430
 2763TIP3    H229781   0.085   5.076  13.254  0.8162 -0.3059 -0.2448
 2764TIP3   OH229782   3.668   0.552  16.312  0.3434  0.5567  0.0067
 2764TIP3    H129783   3.719   0.633  16.306 -0.5078  1.3097  1.9255
 2764TIP3    H229784   3.651   0.527  16.222 -1.0665  3.6336 -0.7083
 2765TIP3   OH229785   2.105   6.313  15.668 -0.1593 -0.1390  0.2358
 2765TIP3    H129786   2.067   6.277  15.748  0.3587 -0.1407  0.4860
 2765TIP3    H229787   2.173   6.250  15.644  0.8579  0.7158  0.7612
 2766TIP3   OH229788   2.978   4.763  13.880  0.3055 -0.0299 -0.5564
 2766TIP3    H129789   2.934   4.816  13.947  0.4812  0.0641 -0.5139
 2766TIP3    H229790   2.907   4.723  13.830  0.1432 -1.6463  0.8832
 2767TIP3   OH229791   5.566   4.557   5.742  0.4224  0.3818 -0.1357
 2767TIP3    H129792   5.521   4.640   5.758  0.5578  0.8257 -1.8492
 2767TIP3    H229793   5.570   4.550   5.647 -0.6855 -2.2105 -0.0679
 2768TIP3   OH229794   6.291   6.123   5.316  0.3350  0.0877 -0.0999
 2768TIP3    H129795   6.230   6.051   5.300 -2.3402  1.6879  1.9698
 2768TIP3    H229796   6.247   6.200   5.278  0.6722  1.4198  2.0315
 2769TIP3   OH229797   0.185   3.909   5.943 -0.0985  0.2236  0.0011
 2769TIP3    H129798   0.224   3.939   5.861  0.4033 -0.9978 -0.2254
 2769TIP3    H229799   0.214   3.819   5.952  1.1425  0.7610  2.2777
 2770TIP3   OH229800   3.489   3.285   5.348  0.1929 -0.4997 -0.0388
 2770TIP3    H129801   3.444   3.229   5.411 -0.3715 -1.0726 -0.9166
 2770TIP3    H229802   3.418   3.333   5.305  0.5606 -0.1733 -0.2881
 2771TIP3   OH229803   3.502   1.337  12.836  0.5298 -0.2478  0.6980
 2771TIP3    H129804   3.501   1.429  12.812 -0.2721 -1.2403 -3.9067
 2771TIP3    H229805   3.410   1.316  12.854  0.3177 -0.6600 -0.8054
 2772TIP3   OH229806   3.576   4.030  17.337  0.0319  0.1687 -0.3543
 2772TIP3    H129807   3.509   3.963  17.351  0.3706 -0.2039 -0.4869
 2772TIP3    H229808   3.578   4.079  17.419  0.9441 -1.0414  0.3847
 2773TIP3   OH229809   1.131   1.816  12.226 -0.1843 -0.0017  0.0692
 2773TIP3    H129810   1.063   1.750  12.213  0.1643 -0.2239 -0.6903
 2773TIP3    H229811   1.104   1.864  12.304 -1.1921 -0.1110 -0.2102
 2774TIP3   OH229812   2.343   5.226   3.430 -0.2485 -0.3478 -0.2797
 2774TIP3    H129813   2.393   5.304   3.404  0.7415  0.2180  2.8096
 2774TIP3    H229814   2.326   5.240   3.523 -1.6272 -3.0434 -0.0426
 2775TIP3   OH229815   5.929   4.491   5.384  0.1539 -0.5779  0.6968
 2775TIP3    H129816   5.866   4.441   5.436 -1.0719 -0.9116 -1.0378
 2775TIP3    H229817   5.977   4.425   5.334 -0.2788 -0.1504 -0.3085
 2776TIP3   OH229818   5.531   6.192  11.441 -0.3438 -0.1081  0.4265
 2776TIP3    H129819   5.499   6.115  11.487  0.2135 -0.3838  0.3623
 2776TIP3    H229820   5.624   6.196  11.463 -0.1616 -0.0028 -0.3267
 2777TIP3   OH229821   4.083   3.081   6.210  0.2912  0.4788  0.0784
 2777TIP3    H129822   4.006   3.081   6.152 -0.1050  1.0553  0.5924
 2777TIP3    H229823   4.050   3.111   6.294  0.4115 -2.4024  1.2664
 2778TIP3   OH229824   3.435   3.797  16.202 -0.3398 -0.5898 -0.0432
 2778TIP3    H129825   3.400   3.711  16.179 -0.5726 -0.1332 -1.4733
 2778TIP3    H229826   3.405   3.812  16.292 -1.4629 -1.3980 -0.2631
 2779TIP3   OH229827   1.206   3.417   5.309 -0.1595  0.0458  0.0148
 2779TIP3    H129828   1.168   3.390   5.392  0.1666 -0.3022  0.0553
 2779TIP3    H229829   1.158   3.496   5.285  0.5716  0.8516  1.1332
 2780TIP3   OH229830   4.148   1.752  13.563 -0.2844 -0.0717 -0.0324
 2780TIP3    H129831   4.150   1.843  13.533 -2.1455 -0.1148 -0.3775
 2780TIP3    H229832   4.080   1.710  13.510 -1.2636 -1.0253  1.8671
 2781TIP3   OH229833   5.272   4.876  11.443 -0.0250 -0.8589  0.0836
 2781TIP3    H129834   5.361   4.840  11.441  0.9861  1.2365  2.1005
 2781TIP3    H229835   5.274   4.948  11.380 -0.3096 -0.8844  0.0458
 2782TIP3   OH229836   3.672   3.834  16.084 -0.0654 -0.3048 -0.3241
 2782TIP3    H129837   3.599   3.832  16.147  0.6271 -1.1196  0.4798
 2782TIP3    H229838   3.727   3.907  16.112  0.3920 -0.8433  0.2045
 2783TIP3   OH229839   1.163   5.323  15.392 -0.0541  0.4835  0.0741
 2783TIP3    H129840   1.197   5.341  15.479 -2.5313  1.9683  0.8463
 2783TIP3    H229841   1.195   5.395  15.338  0.0174  0.5362  0.1867
 2784TIP3   OH229842   5.312   3.483   4.307  0.0195  0.3833 -0.8423
 2784TIP3    H129843   5.263   3.562   4.329  0.9124  0.6879  0.1189
 2784TIP3    H229844   5.378   3.476   4.376  0.1507 -1.0294 -1.0945
 2785TIP3   OH229845   6.100   5.961  13.090  0.1586 -0.2715 -0.3557
 2785TIP3    H129846   6.177   5.904  13.098 -0.9716 -1.8836 -0.3424
 2785TIP3    H229847   6.032   5.904  13.052 -2.2578 -0.2339  3.2831
 2786TIP3   OH229848   6.464   2.423  15.630  0.0122  0.1806 -0.3466
 2786TIP3    H129849   6.457   2.514  15.602 -1.8654  0.2671  0.2587
 2786TIP3    H229850   6.376   2.387  15.619  0.7365 -1.6049 -0.6666
 2787TIP3   OH229851   5.600   5.304  15.170 -0.1881 -0.3876 -0.1445
 2787TIP3    H129852   5.601   5.316  15.265  0.5878 -0.2178 -0.1762
 2787TIP3    H229853   5.680   5.255  15.151 -1.6647 -2.9217 -0.3904
 2788TIP3   OH229854   1.951   3.689   0.589 -0.3991  0.8593  0.7308
 2788TIP3    H129855   1.958   3.594   0.581  0.1311  0.9327  0.2243
 2788TIP3    H229856   1.952   3.706   0.683 -3.4434  0.1741  1.0027
 2789TIP3   OH229857   2.925   3.836   0.813 -0.1261  0.0835  0.2962
 2789TIP3    H129858   2.888   3.772   0.873 -2.5395  1.5349  0.4758
 2789TIP3    H229859   2.921   3.795   0.727  1.5899 -1.2757  0.8143
 2790TIP3   OH229860   5.033   5.983   3.011 -0.4737 -0.5009  0.5646
 2790TIP3    H129861   5.069   6.071   3.015 -2.5417  0.5272 -1.3493
 2790TIP3    H229862   5.032   5.953   3.102  0.1845  1.4665  1.2727
 2791TIP3   OH229863   1.055   4.603   0.774  0.1335 -0.2562  0.4821
 2791TIP3    H129864   1.112   4.528   0.793  0.2936 -0.5624 -1.0456
 2791TIP3    H229865   0.975   4.587   0.825  1.2194 -0.0178  2.3475
 2792TIP3   OH229866   5.692   0.080  12.639  0.5712  0.1338  0.2816
 2792TIP3    H129867   5.623   0.021  12.670  1.1005 -0.0852  1.1051
 2792TIP3    H229868   5.715   0.048  12.552  0.7868 -0.8460  0.6810
 2793TIP3   OH229869   4.242   3.842  16.471  0.1249  0.7460  0.6513
 2793TIP3    H129870   4.229   3.780  16.399 -1.4358  1.0595  0.6322
 2793TIP3    H229871   4.325   3.816  16.510  1.2396  0.8224 -1.5095
 2794TIP3   OH229872   6.070   3.644   0.964 -0.4381 -0.1938 -0.4293
 2794TIP3    H129873   6.161   3.615   0.959 -0.4602 -0.0387 -2.4184
 2794TIP3    H229874   6.022   3.569   1.000  0.3787 -0.4510  0.1474
 2795TIP3   OH229875   1.077   6.140   0.502 -0.2650 -0.5097 -0.6175
 2795TIP3    H129876   1.015   6.146   0.429 -0.8258  0.0349 -0.1093
 2795TIP3    H229877   1.163   6.153   0.462 -0.5721 -0.1511 -1.1780
 2796TIP3   OH229878   0.934   3.476  16.112  0.2304  0.6800 -0.4235
 2796TIP3    H129879   0.975   3.417  16.050 -0.9651  0.5754 -1.1426
 2796TIP3    H229880   0.980   3.460  16.194 -0.5223 -1.8130 -0.3926
 2797TIP3   OH229881   1.946   4.144   0.070  0.0642 -0.3682  0.5033
 2797TIP3    H129882   2.031   4.103   0.054 -0.1319 -0.3130 -0.7109
 2797TIP3    H229883   1.923   4.115   0.159  2.6126  1.8245  2.0490
 2798TIP3   OH229884   1.584   1.929   1.113 -0.3349 -0.5994  0.2282
 2798TIP3    H129885   1.623   1.881   1.040  0.7346 -1.0597  1.0774
 2798TIP3    H229886   1.651   1.993   1.137 -2.1169  2.1430 -1.5616
 2799TIP3   OH229887   0.052   6.483  15.999  0.0225 -0.9957  0.0459
 2799TIP3    H129888   0.029   6.440  16.081 -0.6686 -1.0291 -0.1617
 2799TIP3    H229889   0.144   6.508  16.010  0.1330 -1.6142  0.5606
 2800TIP3   OH229890   6.537   5.195   6.119 -0.3452  0.1384 -0.1893
 2800TIP3    H129891   6.606   5.192   6.186  0.1963  0.9619 -0.6938
 2800TIP3    H229892   6.455   5.193   6.169 -0.0050 -2.2383  0.3634
 2801TIP3   OH229893   2.086   2.909   0.304  0.3804  1.0841  0.2207
 2801TIP3    H129894   2.155   2.861   0.258 -2.7654 -1.7787 -1.8923
 2801TIP3    H229895   2.067   2.984   0.247  1.3497  1.6496  0.6054
 2802TIP3   OH229896   0.068   3.707  13.480  0.6011  0.2117 -0.3652
 2802TIP3    H129897   0.111   3.664  13.553  1.0435 -0.7541 -1.1690
 2802TIP3    H229898  -0.025   3.701  13.499  0.7220  0.1132  0.1959
 2803TIP3   OH229899   3.511   5.899  11.361 -0.5378 -0.6118 -0.0136
 2803TIP3    H129900   3.575   5.879  11.293 -0.9259 -1.1454 -0.2304
 2803TIP3    H229901   3.540   5.849  11.437  0.3480  0.6106  0.4750
 2804TIP3   OH229902   2.857   4.082   2.844 -0.4185  0.1490  0.5820
 2804TIP3    H129903   2.815   4.097   2.760  0.4238  0.2400  0.1629
 2804TIP3    H229904   2.862   3.987   2.851 -1.7978  0.0975  1.2162
 2805TIP3   OH229905   1.760   5.472   1.059 -0.1708 -0.3610 -0.0443
 2805TIP3    H129906   1.770   5.458   0.965 -1.9619  0.3030 -0.3727
 2805TIP3    H229907   1.667   5.495   1.070 -0.2019 -1.2716  1.9902
 2806TIP3   OH229908   6.110   0.189  13.449 -0.1955  0.2404  0.1631
 2806TIP3    H129909   6.119   0.142  13.532 -1.1843 -0.5026 -0.1329
 2806TIP3    H229910   6.097   0.120  13.384 -0.3002  0.8626 -0.4821
 2807TIP3   OH229911   3.847   0.203   1.799  0.0892 -0.2538 -0.1167
 2807TIP3    H129912   3.922   0.144   1.789 -0.3014 -0.7970  0.0982
 2807TIP3    H229913   3.771   0.145   1.803 -0.3890  0.3143 -0.7893
 2808TIP3   OH229914   3.565   0.310  15.269  0.5411  0.0572 -0.5531
 2808TIP3    H129915   3.469   0.316  15.278  0.5407 -1.0800  0.5182
 2808TIP3    H229916   3.581   0.321  15.175 -0.7015 -0.2651 -0.8282
 2809TIP3   OH229917   3.283   0.642   6.277  0.0530  0.1193 -0.1502
 2809TIP3    H129918   3.259   0.710   6.214  0.9350  1.5604  1.0018
 2809TIP3    H229919   3.373   0.619   6.254  0.3646  0.6218  0.5393
 2810TIP3   OH229920   2.373   3.725   4.456  0.2754  0.3687 -1.2297
 2810TIP3    H129921   2.375   3.817   4.484  2.0442 -0.0534  0.1938
 2810TIP3    H229922   2.457   3.711   4.413  0.9658 -1.0957  0.4692
 2811TIP3   OH229923   6.012   5.428   2.055 -0.0671  0.0355  0.0888
 2811TIP3    H129924   6.095   5.435   2.101  0.3367 -0.9266 -0.4620
 2811TIP3    H229925   6.010   5.506   1.999 -0.0154  0.5880  0.8429
 2812TIP3   OH229926   4.098   6.654  13.730  0.0220 -0.2882  0.2348
 2812TIP3    H129927   4.079   6.589  13.797 -0.0667  0.8291  1.3269
 2812TIP3    H229928   4.070   6.737  13.768  1.8599  0.6695 -0.3625
 2813TIP3   OH229929   0.923   0.540   5.693 -0.1172  0.0781 -0.0549
 2813TIP3    H129930   0.997   0.597   5.714 -0.0005  0.3743 -1.1957
 2813TIP3    H229931   0.962   0.454   5.679  0.2505  0.5134 -2.0399
 2814TIP3   OH229932   1.761   5.515   3.647  0.1226 -0.2219  0.0288
 2814TIP3    H129933   1.670   5.545   3.647  0.5544  1.1629  0.1819
 2814TIP3    H229934   1.756   5.423   3.674 -1.2739 -0.3538 -0.5954
 2815TIP3   OH229935   6.338   2.283   1.506  0.1986 -0.7160  0.6154
 2815TIP3    H129936   6.431   2.279   1.484 -0.0786  0.1483 -0.9118
 2815TIP3    H229937   6.294   2.245   1.430 -0.7993  1.6086 -0.0707
 2816TIP3   OH229938   2.170   1.470  14.301  0.0993 -0.2182 -0.0008
 2816TIP3    H129939   2.259   1.494  14.329  0.6107  0.3485 -1.9553
 2816TIP3    H229940   2.163   1.506  14.213 -1.4133 -1.9163 -0.6144
 2817TIP3   OH229941   5.245   4.916  14.767 -0.4646 -0.4332  0.3512
 2817TIP3    H129942   5.175   4.868  14.724  0.4110 -1.8433  0.4440
 2817TIP3    H229943   5.217   4.922  14.859 -0.8588 -0.2191  0.2189
 2818TIP3   OH229944   6.128   3.513  12.195  0.3429 -0.5630 -0.0573
 2818TIP3    H129945   6.036   3.541  12.194  0.6673  0.5544  0.6318
 2818TIP3    H229946   6.128   3.431  12.146 -0.7357  0.3329 -1.6431
 2819TIP3   OH229947   4.579   1.448  15.906 -0.5824 -0.3763  0.1870
 2819TIP3    H129948   4.634   1.517  15.870 -0.1018 -1.3983 -1.1232
 2819TIP3    H229949   4.549   1.483  15.990 -0.7311  1.5840 -0.6357
 2820TIP3   OH229950   3.788   6.174  15.459  0.1443 -0.0918 -0.4084
 2820TIP3    H129951   3.717   6.120  15.495 -1.4942  0.1431 -2.9708
 2820TIP3    H229952   3.759   6.264  15.474  1.3300  0.0954  1.0091
 2821TIP3   OH229953   3.055   2.808   1.680  0.0328  0.7129 -0.0973
 2821TIP3    H129954   2.984   2.872   1.671 -3.6419 -2.8380  0.2030
 2821TIP3    H229955   3.045   2.773   1.768  0.0845 -1.9330 -1.0310
 2822TIP3   OH229956   6.698   2.888   2.767 -0.2572  0.4568  0.1998
 2822TIP3    H129957   6.648   2.969   2.783  1.3857  1.6162 -0.2896
 2822TIP3    H229958   6.702   2.846   2.853 -1.5354  0.6289  0.3715
 2823TIP3   OH229959   1.222   1.800   6.246 -0.3595  0.1306 -0.6739
 2823TIP3    H129960   1.155   1.868   6.252  0.9112  1.8348 -3.8339
 2823TIP3    H229961   1.303   1.844   6.271 -0.1414 -1.7440  2.4999
 2824TIP3   OH229962   4.845   2.296  14.845  0.3285  0.1403 -0.3285
 2824TIP3    H129963   4.821   2.205  14.825 -0.4488  0.0162  1.0316
 2824TIP3    H229964   4.814   2.346  14.770 -0.4789 -0.5508 -0.4729
 2825TIP3   OH229965   6.613   3.877   5.353 -0.1459 -0.4552 -0.0263
 2825TIP3    H129966   6.623   3.944   5.286 -0.7837 -0.1880  0.1370
 2825TIP3    H229967   6.530   3.898   5.395  1.2404  0.7560  2.3515
 2826TIP3   OH229968   3.349   6.705  11.179 -0.4506 -0.3166  1.1650
 2826TIP3    H129969   3.361   6.786  11.228 -0.7154 -0.0671  0.8195
 2826TIP3    H229970   3.309   6.732  11.097 -0.0956 -0.7488  0.8484
 2827TIP3   OH229971   3.673   2.851  15.949  0.7950  0.1539  0.1142
 2827TIP3    H129972   3.667   2.925  16.009  0.1329  3.0827 -3.2438
 2827TIP3    H229973   3.582   2.824  15.935  0.6879  1.0778 -1.2279
 2828TIP3   OH229974   0.469   2.223   5.734 -0.6145 -0.0550  0.8823
 2828TIP3    H129975   0.520   2.174   5.671 -1.4394 -2.9470  2.2742
 2828TIP3    H229976   0.526   2.233   5.810 -1.1993 -0.9445  1.4577
 2829TIP3   OH229977   5.333   6.475  14.564  0.6229 -0.1626 -0.0319
 2829TIP3    H129978   5.382   6.480  14.482  2.2785  0.3356  0.9383
 2829TIP3    H229979   5.284   6.556  14.568  0.7290 -0.0786 -0.4102
 2830TIP3   OH229980   5.255   6.753  14.607  0.0378 -0.6264  0.5540
 2830TIP3    H129981   5.274   6.758  14.513  1.2921 -0.9012  0.7753
 2830TIP3    H229982   5.166   6.786  14.615 -0.8795 -2.5155 -0.9745
 2831TIP3   OH229983   5.836   0.878   2.150 -0.2238 -0.0285  0.2088
 2831TIP3    H129984   5.916   0.833   2.123  1.6232  3.7041 -1.1618
 2831TIP3    H229985   5.842   0.882   2.245  2.0458  1.3803  0.0773
 2832TIP3   OH229986   5.235   3.452  13.103  0.7484 -0.0399 -0.3942
 2832TIP3    H129987   5.202   3.482  13.188  2.0908 -1.2592  0.5934
 2832TIP3    H229988   5.156   3.435  13.052 -0.1056  2.8821 -0.2657
 2833TIP3   OH229989   6.142   3.160   3.764  0.2166 -0.3766  0.4429
 2833TIP3    H129990   6.127   3.238   3.818  2.5025  0.5460 -0.1209
 2833TIP3    H229991   6.140   3.087   3.826 -0.7888  0.2235  1.1672
 2834TIP3   OH229992   5.722   2.633   2.751 -0.2832  0.6093  0.4828
 2834TIP3    H129993   5.734   2.621   2.657 -0.9295 -0.1826  0.4830
 2834TIP3    H229994   5.796   2.687   2.778 -1.5254  3.2109 -0.9311
 2835TIP3   OH229995   3.958   1.227   0.982  0.4173  0.5892 -0.1544
 2835TIP3    H129996   3.919   1.299   1.031 -1.4856 -0.7390  0.4212
 2835TIP3    H229997   4.052   1.243   0.985  0.1623  2.0569  1.5118
 2836TIP3   OH229998   5.645   1.364   4.634 -0.0086  0.0341 -0.4277
 2836TIP3    H129999   5.586   1.425   4.589 -0.9640  1.3458  2.3534
 2836TIP3    H230000   5.628   1.279   4.593 -1.8590  0.8839 -1.5456
 2837TIP3   OH230001   0.730   1.541   1.790  0.4402 -0.7920  0.6418
 2837TIP3    H130002   0.655   1.541   1.850  1.2097  1.1215  1.6903
 2837TIP3    H230003   0.751   1.449   1.777 -1.6323 -1.3517  0.8832
 2838TIP3   OH230004   2.788   3.528  11.684  0.0244 -0.8749  0.4942
 2838TIP3    H130005   2.769   3.535  11.777 -1.4689 -1.1412  0.2313
 2838TIP3    H230006   2.843   3.605  11.665 -0.0314 -0.5731  1.4981
 2839TIP3   OH230007   0.939   5.152   4.226  0.5471  0.3318  0.0612
 2839TIP3    H130008   1.002   5.116   4.163 -0.2380 -0.2124 -0.4357
 2839TIP3    H230009   0.900   5.075   4.266  1.1638  0.6754  1.3693
 2840TIP3   OH230010   0.688   2.667   2.081  0.3803  0.2044  0.1545
 2840TIP3    H130011   0.765   2.670   2.138  0.3990 -0.9090  0.2098
 2840TIP3    H230012   0.722   2.641   1.996  0.1578  0.4635 -0.0159
 2841TIP3   OH230013   4.414   0.034  15.896 -0.0045  0.6942  0.1550
 2841TIP3    H130014   4.477   0.047  15.825 -0.5564  0.8851 -0.3123
 2841TIP3    H230015   4.467   0.007  15.971  0.4912 -0.5114 -0.5995
 2842TIP3   OH230016   5.593   6.775   0.349  0.3395  0.3355 -0.0507
 2842TIP3    H130017   5.546   6.857   0.335 -1.9341 -0.5387  1.7452
 2842TIP3    H230018   5.680   6.802   0.378  0.1618  2.0719 -0.9999
 2843TIP3   OH230019   0.110   4.860   3.321  0.2522  0.3244 -0.1005
 2843TIP3    H130020   0.091   4.851   3.415 -1.1529 -0.1600 -0.4101
 2843TIP3    H230021   0.174   4.791   3.303  1.8661  1.4987  0.8186
 2844TIP3   OH230022   4.147   0.871  16.569 -0.2154  0.2754 -0.0190
 2844TIP3    H130023   4.114   0.940  16.512  0.1223 -0.4570 -1.1275
 2844TIP3    H230024   4.155   0.794  16.512  0.4316 -0.3931  0.9409
 2845TIP3   OH230025   2.456   6.119  11.601 -0.2095  0.1999 -0.2127
 2845TIP3    H130026   2.379   6.151  11.555  0.3347  0.5265 -0.9149
 2845TIP3    H230027   2.528   6.135  11.540  0.0069 -3.1005 -1.0261
 2846TIP3   OH230028   5.897   5.305  11.579  0.3722 -0.0153 -0.5967
 2846TIP3    H130029   5.934   5.381  11.533  0.2094  0.5372  0.1528
 2846TIP3    H230030   5.970   5.272  11.632  0.1063  0.4019  0.0424
 2847TIP3   OH230031   1.641   4.659  12.805 -0.0144  0.7035  0.3993
 2847TIP3    H130032   1.698   4.639  12.879  0.3472  2.4541  0.6211
 2847TIP3    H230033   1.699   4.692  12.737 -0.5257  0.4833 -0.1598
 2848TIP3   OH230034   4.435   2.590  12.518  0.1571 -0.0055  0.9726
 2848TIP3    H130035   4.488   2.564  12.594  0.0083 -1.7288  0.5188
 2848TIP3    H230036   4.372   2.652  12.553  0.0148 -0.8645  2.2901
 2849TIP3   OH230037   1.661   5.363   4.917 -0.3810  0.2798  0.2477
 2849TIP3    H130038   1.659   5.458   4.920  0.4641  0.2774  2.1105
 2849TIP3    H230039   1.585   5.335   4.968  0.2671 -0.0056  1.0896
 2850TIP3   OH230040   6.530   0.232   2.034  0.0413  0.0392 -0.1935
 2850TIP3    H130041   6.623   0.240   2.012  0.1935 -0.4544  0.2577
 2850TIP3    H230042   6.528   0.174   2.110 -0.6746 -0.4217 -0.5491
 2851TIP3   OH230043   2.295   0.697   0.785  0.4019 -0.6256 -0.1124
 2851TIP3    H130044   2.239   0.686   0.862  0.5624 -0.3254  0.0508
 2851TIP3    H230045   2.366   0.754   0.815 -0.9242  1.7057 -1.1559
 2852TIP3   OH230046   6.477   0.865  14.042 -0.1976  0.1707  0.7941
 2852TIP3    H130047   6.489   0.957  14.016  0.0772  0.1116  0.7113
 2852TIP3    H230048   6.488   0.866  14.137 -1.4851  0.4340  0.9650
 2853TIP3   OH230049   0.450   3.187   3.756 -0.8082  0.8286  0.3191
 2853TIP3    H130050   0.480   3.278   3.749  1.4528  0.1219 -0.1866
 2853TIP3    H230051   0.404   3.171   3.674  0.6794  0.9297 -0.5739
 2854TIP3   OH230052   4.372   1.560   2.357 -0.0826  0.0228  0.1886
 2854TIP3    H130053   4.353   1.640   2.405  0.0212 -0.2436  0.6744
 2854TIP3    H230054   4.339   1.577   2.269  1.0512  1.0599 -0.0625
 2855TIP3   OH230055   4.544   5.215  11.658  1.5263  0.2134 -0.5057
 2855TIP3    H130056   4.581   5.151  11.718  0.1061  0.4961  0.7202
 2855TIP3    H230057   4.515   5.164  11.582 -0.9526 -0.9040  1.0700
 2856TIP3   OH230058   1.875   6.660  15.632 -0.3009 -0.4796  0.0343
 2856TIP3    H130059   1.829   6.708  15.563  1.2783 -1.2096 -1.5933
 2856TIP3    H230060   1.850   6.704  15.713 -1.7501  0.7752 -1.0489
 2857TIP3   OH230061   6.134   3.433  16.531 -0.6272 -0.0967 -0.1902
 2857TIP3    H130062   6.053   3.485  16.535 -1.5080 -1.4091 -0.2644
 2857TIP3    H230063   6.107   3.350  16.491  1.1931  0.2034 -2.2311
 2858TIP3   OH230064   2.104   6.440  14.889 -0.7497 -0.2373  0.0097
 2858TIP3    H130065   2.146   6.451  14.804 -0.4664  1.1618  0.3078
 2858TIP3    H230066   2.119   6.523  14.935 -2.0634 -0.4583  0.9130
 2859TIP3   OH230067   4.822   4.586   6.090  0.0982  0.1814  0.0891
 2859TIP3    H130068   4.896   4.643   6.069 -0.4391  0.5014 -0.9758
 2859TIP3    H230069   4.801   4.607   6.181  2.8042 -1.6065  1.2833
 2860TIP3   OH230070   4.553   1.066   3.004 -0.0158 -0.4306  0.2004
 2860TIP3    H130071   4.637   1.033   3.036 -0.3472  0.3911  2.1104
 2860TIP3    H230072   4.575   1.150   2.964  0.2464 -0.8789 -0.6113
 2861TIP3   OH230073   0.055   5.919  11.971 -0.0414 -0.1088  0.5158
 2861TIP3    H130074  -0.023   5.954  12.013 -0.3278  0.6551 -0.5842
 2861TIP3    H230075   0.049   5.950  11.880  2.2364  1.1822  0.7175
 2862TIP3   OH230076   0.300   5.647   2.646  0.0002  0.5574 -0.0543
 2862TIP3    H130077   0.329   5.660   2.556 -0.5936 -1.4843 -0.5943
 2862TIP3    H230078   0.212   5.609   2.638  0.7642 -1.6602  1.2823
 2863TIP3   OH230079   1.022   2.419  10.863  0.5648 -0.1469 -0.3624
 2863TIP3    H130080   1.042   2.420  10.770 -1.9810 -0.4860 -0.9936
 2863TIP3    H230081   0.998   2.509  10.884 -0.8467 -0.4372 -0.5871
 2864TIP3   OH230082   3.319   1.707  15.123  0.2832 -0.2959  0.6444
 2864TIP3    H130083   3.396   1.651  15.115  0.6175  0.2198  0.2315
 2864TIP3    H230084   3.282   1.709  15.035 -1.0090 -1.6658  1.1129
 2865TIP3   OH230085   6.577   4.590   4.565 -0.1336 -0.1978 -0.4670
 2865TIP3    H130086   6.605   4.671   4.607 -1.7097  0.8823 -1.3825
 2865TIP3    H230087   6.649   4.566   4.507 -0.1849  1.3029 -1.1726
 2866TIP3   OH230088   6.754   3.628   2.547 -0.0918  0.1306  0.1080
 2866TIP3    H130089   6.694   3.686   2.501  0.6750  1.4503  0.7204
 2866TIP3    H230090   6.799   3.580   2.477 -1.6184 -0.6971 -0.3697
 2867TIP3   OH230091   0.236   1.436  10.892 -0.1799  0.1354 -0.2482
 2867TIP3    H130092   0.168   1.498  10.866 -1.6621 -0.6812  1.4317
 2867TIP3    H230093   0.242   1.375  10.818 -0.6667  0.6929 -0.7648
 2868TIP3   OH230094   5.467   2.807  13.467  0.3414 -0.0242  0.2548
 2868TIP3    H130095   5.396   2.864  13.436 -0.6394 -0.9343  0.7894
 2868TIP3    H230096   5.430   2.762  13.543  1.8598  0.2883  1.2258
 2869TIP3   OH230097   3.434   2.835   5.385 -0.2161 -0.3600  0.0182
 2869TIP3    H130098   3.471   2.898   5.323  0.3831 -0.6697  0.0577
 2869TIP3    H230099   3.497   2.764   5.388 -0.6668 -0.7527  0.3275
 2870TIP3   OH230100   1.225   0.178   3.191 -0.4009  0.4773  0.6130
 2870TIP3    H130101   1.285   0.251   3.201 -0.3839  0.4749  0.5307
 2870TIP3    H230102   1.144   0.208   3.233 -0.1833  0.2807  1.1857
 2871TIP3   OH230103   4.741   3.487   3.644 -0.8000  0.3025  0.2052
 2871TIP3    H130104   4.649   3.482   3.671 -0.6797  0.5065  0.6606
 2871TIP3    H230105   4.741   3.453   3.554 -0.8704 -2.5821  1.1741
 2872TIP3   OH230106   0.235   1.862   3.161 -0.3113  0.2111  0.3376
 2872TIP3    H130107   0.228   1.771   3.133  0.3974  0.2105  0.1461
 2872TIP3    H230108   0.319   1.867   3.207 -1.3986  0.2392  2.4237
 2873TIP3   OH230109   3.550   5.482  15.265 -0.3664 -0.6010  0.8725
 2873TIP3    H130110   3.589   5.397  15.288 -3.1681 -2.0155  0.8092
 2873TIP3    H230111   3.537   5.526  15.349  1.0748 -0.1801  0.9058
 2874TIP3   OH230112   1.421   2.589  14.695  0.1697 -0.0644  0.5819
 2874TIP3    H130113   1.335   2.572  14.733  0.4896 -2.3381  0.4310
 2874TIP3    H230114   1.456   2.502  14.675  1.9155  0.8682 -0.6846
 2875TIP3   OH230115   4.153   2.079   0.008  0.1451 -0.1659 -0.3287
 2875TIP3    H130116   4.190   2.026   0.078 -1.1849 -2.9084 -1.5477
 2875TIP3    H230117   4.084   2.131   0.051  0.9916  0.0782  0.7769
 2876TIP3   OH230118   4.958   5.211  11.493 -0.2334 -0.2977 -0.3819
 2876TIP3    H130119   5.038   5.170  11.458  0.0022  0.2011 -0.4395
 2876TIP3    H230120   4.890   5.188  11.429 -0.0352 -0.3188 -0.5879
 2877TIP3   OH230121   1.846   4.481  11.679 -0.2333  0.0436 -0.1105
 2877TIP3    H130122   1.838   4.509  11.770  1.2727  0.3762 -0.0594
 2877TIP3    H230123   1.805   4.552  11.629  0.6732  0.8327  0.2172
 2878TIP3   OH230124   3.211   5.523   0.797 -0.2693  0.2944  0.5281
 2878TIP3    H130125   3.233   5.457   0.731 -1.2888 -1.6098  1.9791
 2878TIP3    H230126   3.270   5.596   0.778 -0.0349 -0.4375 -2.0119
 2879TIP3   OH230127   4.146   0.586  13.135 -0.0107  0.4983  0.3557
 2879TIP3    H130128   4.094   0.511  13.109 -0.2836  0.3336  1.3372
 2879TIP3    H230129   4.219   0.587  13.073  0.1130 -0.7011  0.4600
 2880TIP3   OH230130   2.862   1.944  15.587  0.1774 -0.3254  0.7184
 2880TIP3    H130131   2.922   2.018  15.583  1.4859 -1.3937 -0.1737
 2880TIP3    H230132   2.861   1.918  15.679  1.5409 -0.6443  0.6603
 2881TIP3   OH230133   3.316   4.215  16.924 -0.1788 -0.4881 -0.5082
 2881TIP3    H130134   3.409   4.219  16.902  0.1501 -1.8635  0.4866
 2881TIP3    H230135   3.276   4.286  16.874  1.9592  2.6844  1.9465
 2882TIP3   OH230136   2.905   4.208  11.491  0.2815  0.4382 -0.1205
 2882TIP3    H130137   2.875   4.298  11.482 -1.6221 -0.1530 -0.1327
 2882TIP3    H230138   2.999   4.215  11.512  0.0092  2.4244  0.5791
 2883TIP3   OH230139   0.131   3.838  17.409 -0.0313  0.6317  0.0819
 2883TIP3    H130140   0.200   3.788  17.364 -1.5091  1.8198 -3.9089
 2883TIP3    H230141   0.083   3.772  17.460  1.6258 -0.8962 -0.2484
 2884TIP3   OH230142   4.073   6.287  14.300 -0.5723 -0.5691 -0.2073
 2884TIP3    H130143   3.996   6.235  14.323  0.1508 -1.1752  0.9479
 2884TIP3    H230144   4.060   6.371  14.343  0.2755 -1.3360  1.6732
 2885TIP3   OH230145   3.809   2.595   1.015  0.9054 -0.1733 -0.5133
 2885TIP3    H130146   3.859   2.653   0.957  1.9488  0.2881  0.8022
 2885TIP3    H230147   3.830   2.625   1.104 -1.6819  0.0214  0.1418
 2886TIP3   OH230148   5.085   4.245  17.413  0.2652  0.2765 -0.0043
 2886TIP3    H130149   5.128   4.318  17.368 -1.1267  0.7490 -0.6168
 2886TIP3    H230150   5.029   4.288  17.478 -2.1810 -0.0874 -1.7629
 2887TIP3   OH230151   4.771   4.098  13.779 -0.3848 -0.3567 -0.0494
 2887TIP3    H130152   4.685   4.133  13.758 -0.0371 -1.1068 -3.2762
 2887TIP3    H230153   4.821   4.173  13.812 -1.6490  0.5315 -0.1209
 2888TIP3   OH230154   4.313   4.160   3.645 -0.0460 -0.5726  0.8952
 2888TIP3    H130155   4.286   4.182   3.734 -0.2386 -0.4568  0.8073
 2888TIP3    H230156   4.273   4.075   3.628 -1.6260  0.2698  0.2140
 2889TIP3   OH230157   1.220   0.769  16.376 -0.3357  0.3562  0.4125
 2889TIP3    H130158   1.155   0.732  16.318 -0.8424  0.9827  0.5646
 2889TIP3    H230159   1.170   0.805  16.449  0.2968 -0.4949  1.2815
 2890TIP3   OH230160   2.935   5.034  14.284 -0.0381  0.0173 -0.0138
 2890TIP3    H130161   2.983   4.962  14.324  0.1462  1.7190  3.1117
 2890TIP3    H230162   3.002   5.098  14.261 -0.4762  1.2245  1.8320
 2891TIP3   OH230163   5.124   2.141   1.471  0.4631 -0.1606  0.3575
 2891TIP3    H130164   5.097   2.049   1.472  1.1855 -0.4135 -0.9439
 2891TIP3    H230165   5.094   2.176   1.555 -0.2438 -1.4576  0.6716
 2892TIP3   OH230166   4.607   4.589   4.911 -0.9111 -0.3115  0.0427
 2892TIP3    H130167   4.690   4.580   4.959  0.0855  2.2787 -0.9875
 2892TIP3    H230168   4.550   4.521   4.948  1.3043 -1.4914  1.5352
 2893TIP3   OH230169   3.725   5.312   4.554 -0.2862 -0.5286  0.5475
 2893TIP3    H130170   3.703   5.404   4.547 -1.4125 -0.8764 -1.0426
 2893TIP3    H230171   3.774   5.292   4.474 -0.3235 -1.3779  0.7192
 2894TIP3   OH230172   6.446   2.085   1.031  0.1629  0.1138 -0.7289
 2894TIP3    H130173   6.507   2.014   1.013  2.5695  1.6794  0.6580
 2894TIP3    H230174   6.386   2.049   1.096 -1.1518 -1.7851 -2.8705
 2895TIP3   OH230175   5.968   1.872   5.926  0.0465 -0.0724  0.0132
 2895TIP3    H130176   5.979   1.956   5.970 -2.6231  0.2450  0.1944
 2895TIP3    H230177   5.959   1.809   5.997  2.8163 -0.7398 -0.1038
 2896TIP3   OH230178   1.113   1.130   0.238  0.2465  0.4442  0.1496
 2896TIP3    H130179   1.120   1.127   0.142 -1.7658 -2.7201 -0.0473
 2896TIP3    H230180   1.024   1.162   0.254 -0.5419 -1.9059  0.7814
 2897TIP3   OH230181   0.936   4.994   3.393 -0.5015  0.3213 -0.4831
 2897TIP3    H130182   1.027   5.018   3.411 -0.2234  0.1181 -1.5193
 2897TIP3    H230183   0.889   5.077   3.392  0.0773  0.6711 -2.0148
 2898TIP3   OH230184   2.013   4.366  13.838 -0.2493  0.8318 -0.3607
 2898TIP3    H130185   1.961   4.335  13.912  0.3043  0.7191 -0.0086
 2898TIP3    H230186   1.955   4.425  13.791 -0.5922  0.9488  0.1969
 2899TIP3   OH230187   6.419   0.584   5.186 -1.0301 -0.3541 -0.4112
 2899TIP3    H130188   6.397   0.493   5.170 -0.4632 -0.3275 -1.4158
 2899TIP3    H230189   6.338   0.632   5.169 -0.5556 -0.3611 -3.0380
 2900TIP3   OH230190   3.391   0.755   4.918 -0.0400 -0.0833  0.7530
 2900TIP3    H130191   3.446   0.766   4.840 -1.6451 -0.5635 -0.5055
 2900TIP3    H230192   3.402   0.837   4.966 -0.6896  1.1862 -1.1269
 2901TIP3   OH230193   3.106   4.894   1.979  0.1157  0.5819  0.0736
 2901TIP3    H130194   3.164   4.818   1.975 -1.8534 -0.9817  0.1815
 2901TIP3    H230195   3.123   4.941   1.896  0.9356 -0.2551 -0.2520
 2902TIP3   OH230196   4.074   0.306  14.726 -0.0628 -0.4172 -0.3207
 2902TIP3    H130197   4.064   0.212  14.713 -0.0384 -0.9336  2.8447
 2902TIP3    H230198   3.996   0.344  14.685 -0.2480 -1.8022 -1.3278
 2903TIP3   OH230199   5.411   6.563   0.383 -0.0374 -0.4852  0.1297
 2903TIP3    H130200   5.446   6.651   0.369 -2.3936  0.6038  0.5606
 2903TIP3    H230201   5.487   6.511   0.408  1.1122  1.9853  2.2954
 2904TIP3   OH230202   0.814   3.953  11.232 -0.8830 -0.2475 -0.0100
 2904TIP3    H130203   0.801   3.886  11.165 -1.6452 -0.3196  0.1905
 2904TIP3    H230204   0.848   4.029  11.185 -0.7662 -0.5193 -0.3642
 2905TIP3   OH230205   5.989   6.144   5.687  0.4511 -0.3211 -0.1214
 2905TIP3    H130206   5.918   6.083   5.706  1.4084 -2.2400 -2.2330
 2905TIP3    H230207   6.052   6.092   5.637  3.3979  1.2492  1.6530
 2906TIP3   OH230208   6.420   0.309  16.532  0.1268  0.1979 -0.0234
 2906TIP3    H130209   6.353   0.246  16.506  1.1668 -1.2375  0.6116
 2906TIP3    H230210   6.439   0.358  16.452  0.1174 -1.1027 -0.8518
 2907TIP3   OH230211   3.834   5.253  11.535  0.3025 -0.5098  0.5707
 2907TIP3    H130212   3.797   5.169  11.508 -0.0282  0.1353 -1.0913
 2907TIP3    H230213   3.760   5.313  11.538  0.6358 -0.1032  1.1191
 2908TIP3   OH230214   6.616   0.254   0.361 -0.3218  0.5316  0.1710
 2908TIP3    H130215   6.642   0.210   0.441  0.7464  2.4334  0.9361
 2908TIP3    H230216   6.699   0.276   0.317 -0.8435  0.8921 -0.6662
 2909TIP3   OH230217   0.589   6.683   4.817  0.3887  0.3139  0.1059
 2909TIP3    H130218   0.537   6.606   4.796  1.9587 -0.3982 -1.4176
 2909TIP3    H230219   0.526   6.745   4.855 -1.0192 -1.4566  0.7915
 2910TIP3   OH230220   0.890   5.597   3.231 -0.5157 -0.3533  0.4008
 2910TIP3    H130221   0.954   5.649   3.184 -0.3869 -0.3995  0.5221
 2910TIP3    H230222   0.805   5.633   3.206 -0.4508 -0.4028  0.1055
 2911TIP3   OH230223   3.252   0.034  14.194 -0.1395  0.3259 -0.2867
 2911TIP3    H130224   3.257   0.040  14.099 -1.6579 -0.2790 -0.4376
 2911TIP3    H230225   3.260   0.125  14.224  4.5096  0.2680 -0.6215
 2912TIP3   OH230226   4.426   5.039   0.730 -0.7650  0.0507 -0.4148
 2912TIP3    H130227   4.335   5.054   0.755 -0.1440  2.5529  0.6726
 2912TIP3    H230228   4.434   5.079   0.644 -0.8177 -0.7148 -0.7819
 2913TIP3   OH230229   3.480   2.532  12.608  0.2228 -0.4199 -0.0222
 2913TIP3    H130230   3.458   2.556  12.518  1.1793  0.3080 -0.0741
 2913TIP3    H230231   3.445   2.444  12.618  1.9587 -1.3983 -1.8043
 2914TIP3   OH230232   5.820   0.191   0.572  0.3818 -0.6848 -0.3416
 2914TIP3    H130233   5.772   0.203   0.490  0.6077 -0.0456 -0.3909
 2914TIP3    H230234   5.859   0.104   0.565  0.7635 -0.4632 -1.1134
 2915TIP3   OH230235   4.737   0.165   1.647 -0.2187  0.0558 -0.0708
 2915TIP3    H130236   4.688   0.229   1.595 -0.0624  0.5301  0.3541
 2915TIP3    H230237   4.828   0.179   1.621 -0.3064 -0.8831 -0.9233
 2916TIP3   OH230238   2.689   2.375  12.512  0.3249 -0.5516 -0.1187
 2916TIP3    H130239   2.680   2.391  12.606  2.0694  0.7676 -0.1288
 2916TIP3    H230240   2.609   2.412  12.474  0.8867  1.5475  0.6072
 2917TIP3   OH230241   4.637   4.299   4.401 -0.1088  0.0117 -0.0134
 2917TIP3    H130242   4.646   4.209   4.370  0.7599  0.2028 -0.3349
 2917TIP3    H230243   4.650   4.353   4.323  0.2696  0.4392  0.3388
 2918TIP3   OH230244   0.577   2.777   0.875 -0.1872  0.2163  0.2872
 2918TIP3    H130245   0.514   2.714   0.911  1.0910 -0.1193  2.0767
 2918TIP3    H230246   0.610   2.735   0.796  0.4740 -1.3091  1.3327
 2919TIP3   OH230247   3.523   1.908  16.800 -0.2232 -0.2054  0.1122
 2919TIP3    H130248   3.600   1.904  16.857 -1.6754 -0.2077  2.1841
 2919TIP3    H230249   3.450   1.921  16.859 -1.8351 -0.0049 -1.8087
 2920TIP3   OH230250   1.204   1.563   3.751  0.2083  0.4047 -0.4258
 2920TIP3    H130251   1.156   1.536   3.673  0.3542 -1.9206  0.1926
 2920TIP3    H230252   1.273   1.620   3.718 -1.5482  1.9894 -1.5843
 2921TIP3   OH230253   0.304   0.894   0.376  0.1177 -0.3834  0.0017
 2921TIP3    H130254   0.220   0.856   0.349 -0.4247 -0.3951  1.6284
 2921TIP3    H230255   0.295   0.910   0.470  1.0735  1.8648 -0.2114
 2922TIP3   OH230256   6.048   3.983  14.639 -0.1109 -0.1776  1.3095
 2922TIP3    H130257   6.048   4.078  14.635  0.1687 -0.1962  0.9047
 2922TIP3    H230258   6.119   3.956  14.582 -0.8698 -0.6614  0.5707
 2923TIP3   OH230259   5.768   4.869   2.274 -0.1948  0.2792 -0.0931
 2923TIP3    H130260   5.678   4.902   2.281 -0.5190 -0.6475  0.2936
 2923TIP3    H230261   5.821   4.934   2.319 -1.0074 -0.4799  2.1272
 2924TIP3   OH230262   2.927   0.244   6.678  0.0278  0.2930  0.0035
 2924TIP3    H130263   2.853   0.296   6.646  0.2055  0.7002  0.2585
 2924TIP3    H230264   2.968   0.297   6.746  0.7897  0.2410 -0.3996
 2925TIP3   OH230265   3.969   6.753   4.317 -0.0023 -0.2927 -0.5733
 2925TIP3    H130266   4.034   6.807   4.361 -1.1341  0.0581  0.7496
 2925TIP3    H230267   3.894   6.811   4.304 -0.4777 -0.9859 -1.0325
 2926TIP3   OH230268   4.930   1.308  12.498 -0.8908  0.6130 -0.8037
 2926TIP3    H130269   5.025   1.315  12.493 -0.7979 -0.1642 -0.2365
 2926TIP3    H230270   4.914   1.251  12.573 -1.8197  1.1507 -0.5784
 2927TIP3   OH230271   0.943   0.886   2.345  0.1913 -0.5057  0.2631
 2927TIP3    H130272   1.027   0.908   2.385 -0.4631  0.4807  1.1407
 2927TIP3    H230273   0.925   0.797   2.376  1.9300 -1.6604 -1.7399
 2928TIP3   OH230274   3.146   6.025  15.076  0.0953 -0.1673  0.1556
 2928TIP3    H130275   3.136   5.930  15.085  0.8091 -0.3402 -0.7448
 2928TIP3    H230276   3.080   6.050  15.011 -0.7480  0.1252  1.0783
 2929TIP3   OH230277   0.078   5.300  17.328  0.0743 -0.1086  0.2872
 2929TIP3    H130278   0.166   5.271  17.306 -0.4561 -2.6142  1.0793
 2929TIP3    H230279   0.078   5.308  17.423 -0.5056  0.0685  0.2793
 2930TIP3   OH230280   4.531   3.376  13.620  0.0234  0.0284 -0.1645
 2930TIP3    H130281   4.521   3.303  13.558 -0.7223  0.0349 -0.0596
 2930TIP3    H230282   4.600   3.347  13.679  0.5132 -0.1170 -0.7996
 2931TIP3   OH230283   4.910   4.366   6.608 -0.1448 -0.6744 -0.0689
 2931TIP3    H130284   4.854   4.419   6.664 -0.0994 -1.5256  0.8011
 2931TIP3    H230285   4.991   4.416   6.601 -1.4756  1.3833 -2.6751
 2932TIP3   OH230286   0.684   5.954  16.678  0.0646 -0.1240  0.0791
 2932TIP3    H130287   0.642   5.985  16.598  0.1052 -0.9657 -0.2687
 2932TIP3    H230288   0.672   6.026  16.740  1.6008  1.3238 -1.1977
 2933TIP3   OH230289   2.789   5.051   6.010 -0.4494 -0.1585 -0.6367
 2933TIP3    H130290   2.880   5.074   5.996 -0.7403  1.2227 -0.4912
 2933TIP3    H230291   2.771   5.080   6.100 -0.6683 -1.7010 -0.1611
 2934TIP3   OH230292   6.036   0.785   2.733 -0.5972  0.0096 -0.6000
 2934TIP3    H130293   5.965   0.841   2.765  0.4792  0.9008  0.3288
 2934TIP3    H230294   6.054   0.818   2.645 -0.7096  0.4018 -0.4799
 2935TIP3   OH230295   6.206   0.593  17.083 -0.9837  0.2031 -0.4264
 2935TIP3    H130296   6.181   0.647  17.159 -2.1918 -1.6756  0.5925
 2935TIP3    H230297   6.298   0.613  17.069 -1.1909  1.9574  0.3671
 2936TIP3   OH230298   4.967   4.010  15.736  0.6058 -0.0847 -0.2710
 2936TIP3    H130299   4.920   3.970  15.663 -1.0594  0.6549  0.3228
 2936TIP3    H230300   5.005   4.089  15.699  1.1541 -0.5417 -0.7007
 2937TIP3   OH230301   0.688   2.499   1.192  0.3652  0.3261  0.2698
 2937TIP3    H130302   0.652   2.478   1.278  2.4914 -0.8598  0.9309
 2937TIP3    H230303   0.654   2.587   1.173 -1.7427 -0.1613  1.3865
 2938TIP3   OH230304   3.969   0.470   4.833 -0.0764 -0.4937  0.4128
 2938TIP3    H130305   3.887   0.455   4.881  0.6214 -1.5415  1.3350
 2938TIP3    H230306   4.009   0.383   4.827  1.6974  0.2263  1.3102
 2939TIP3   OH230307   3.568   1.392  10.748  0.1214 -0.0106 -0.0026
 2939TIP3    H130308   3.613   1.453  10.807 -0.8167  3.9290 -2.8706
 2939TIP3    H230309   3.475   1.403  10.768 -0.0171 -2.0207  0.6271
 2940TIP3   OH230310   4.980   3.967  15.433  0.4917  0.3372 -0.3536
 2940TIP3    H130311   5.013   3.884  15.468  0.3466  0.7071  0.7017
 2940TIP3    H230312   5.049   3.999  15.376  0.0154 -1.1406 -1.8378
 2941TIP3   OH230313   2.552   6.151  14.926 -0.1561 -0.0145  0.3783
 2941TIP3    H130314   2.503   6.198  14.859  0.0749 -0.0667  0.1728
 2941TIP3    H230315   2.560   6.062  14.893 -0.4325 -0.1560  0.6808
 2942TIP3   OH230316   3.845   1.195  14.682  0.6739 -0.0170  0.0015
 2942TIP3    H130317   3.807   1.282  14.696  2.7812  0.9373  0.2878
 2942TIP3    H230318   3.939   1.209  14.691  1.3264 -1.7536 -2.9497
 2943TIP3   OH230319   5.798   6.655   5.899  0.7280 -0.0542 -0.2287
 2943TIP3    H130320   5.886   6.620   5.911  0.2035 -1.5921 -0.6878
 2943TIP3    H230321   5.752   6.636   5.980  0.5196 -0.1816 -0.3744
 2944TIP3   OH230322   1.570   2.818   3.604  0.2356  0.1725  0.3558
 2944TIP3    H130323   1.556   2.910   3.625 -0.2665 -0.1797  1.7051
 2944TIP3    H230324   1.548   2.810   3.511  0.0502  1.3535  0.2868
 2945TIP3   OH230325   4.482   1.052  12.210  0.7551 -0.0294  0.1804
 2945TIP3    H130326   4.516   1.130  12.254 -0.2515  0.4889  0.0609
 2945TIP3    H230327   4.390   1.049  12.233  0.4769 -0.4468 -0.9035
 2946TIP3   OH230328   6.679   0.985  15.226  0.2285  0.3389  0.2990
 2946TIP3    H130329   6.627   0.958  15.150 -0.4787  0.5146  0.7116
 2946TIP3    H230330   6.667   1.080  15.230  1.4826  0.5435 -0.2471
 2947TIP3   OH230331   4.106   3.847   5.998  0.3661  0.3569 -0.1867
 2947TIP3    H130332   4.182   3.808   6.041  0.1141 -1.4121 -1.2790
 2947TIP3    H230333   4.139   3.874   5.912  0.3775  2.0834  0.3103
 2948TIP3   OH230334   0.150   5.221   2.124  0.5281 -0.0041 -0.3491
 2948TIP3    H130335   0.205   5.291   2.091 -0.9058  0.5626 -1.6558
 2948TIP3    H230336   0.064   5.238   2.086 -0.7611 -0.4246  2.1890
 2949TIP3   OH230337   2.442   5.622   6.019  0.4636 -0.1743 -0.4671
 2949TIP3    H130338   2.356   5.588   5.993  0.7989 -2.7490  1.3725
 2949TIP3    H230339   2.434   5.717   6.012 -2.7072 -0.3068  0.1168
 2950TIP3   OH230340   4.184   4.877   2.388  0.2806  0.6559 -0.3906
 2950TIP3    H130341   4.111   4.938   2.392 -0.3529 -0.1428  1.0157
 2950TIP3    H230342   4.250   4.914   2.447  0.8632  1.1654 -1.3433
 2951TIP3   OH230343   1.981   5.264  14.572  0.2174 -0.4294  0.0526
 2951TIP3    H130344   1.928   5.196  14.530 -1.7708  0.4825  0.9244
 2951TIP3    H230345   1.972   5.340  14.515  0.3803 -0.1816  0.3569
 2952TIP3   OH230346   5.035   3.115  15.284 -0.2859  0.1411 -0.2434
 2952TIP3    H130347   4.983   3.050  15.237  0.1380  1.1817 -2.2357
 2952TIP3    H230348   4.974   3.186  15.302  0.0052  0.6063 -1.0340
 2953TIP3   OH230349   0.200   6.168  11.956  0.4386 -0.4206  0.4796
 2953TIP3    H130350   0.197   6.073  11.948 -0.1808 -0.3015 -0.8566
 2953TIP3    H230351   0.108   6.196  11.951  0.6620  0.2918  0.2287
 2954TIP3   OH230352   4.839   0.644  17.155  0.4604  0.3723 -0.2996
 2954TIP3    H130353   4.777   0.571  17.154 -1.3478  1.8029  0.5035
 2954TIP3    H230354   4.891   0.633  17.076  0.0391 -1.5941 -0.3560
 2955TIP3   OH230355   1.032   0.106   1.548  0.2129  0.2800 -0.3261
 2955TIP3    H130356   1.109   0.059   1.516  0.8279  0.4675  0.8273
 2955TIP3    H230357   1.062   0.149   1.628 -0.3739  2.4839 -1.2219
 2956TIP3   OH230358   5.032   0.175   5.504 -0.0560 -0.3499  0.0090
 2956TIP3    H130359   5.094   0.160   5.576  0.3795  1.2191  0.0093
 2956TIP3    H230360   4.997   0.262   5.521 -1.1047 -0.5880 -0.8576
 2957TIP3   OH230361   2.322   0.791   1.999 -0.5544 -0.0412 -0.3332
 2957TIP3    H130362   2.282   0.709   2.029 -1.9981  1.0270  0.8254
 2957TIP3    H230363   2.289   0.803   1.910 -0.3002 -0.7138 -0.5284
 2958TIP3   OH230364   5.420   2.432  13.872  0.1953  0.0197 -1.0576
 2958TIP3    H130365   5.434   2.401  13.782 -1.9110 -2.0412 -0.7765
 2958TIP3    H230366   5.489   2.497  13.886  2.2032 -1.4591 -3.2681
 2959TIP3   OH230367   5.557   1.756  12.606  0.5498 -1.1578  0.0381
 2959TIP3    H130368   5.496   1.710  12.664 -1.6438  0.1686 -1.0515
 2959TIP3    H230369   5.602   1.687  12.559 -0.7688 -2.2258  0.2774
 2960TIP3   OH230370   2.655   4.843   3.769  0.0123 -0.3931  0.0563
 2960TIP3    H130371   2.621   4.910   3.710  0.8352 -0.3037 -0.3425
 2960TIP3    H230372   2.658   4.885   3.855 -3.0326 -1.1231  0.6370
 2961TIP3   OH230373   2.111   5.969  12.959 -0.3216 -0.3381 -0.6060
 2961TIP3    H130374   2.180   5.948  12.896 -0.1400  1.4558 -1.0627
 2961TIP3    H230375   2.045   6.015  12.907 -0.9958 -0.4081  0.1846
 2962TIP3   OH230376   1.246   1.489   4.620 -0.2080 -0.0072 -0.2901
 2962TIP3    H130377   1.226   1.396   4.616 -1.5717  0.1881  1.0225
 2962TIP3    H230378   1.164   1.532   4.596  0.3031  0.8563 -0.5318
 2963TIP3   OH230379   5.340   6.156   2.321 -0.0968  0.1050  0.2772
 2963TIP3    H130380   5.378   6.243   2.324  2.5765 -0.8930 -1.4926
 2963TIP3    H230381   5.289   6.155   2.239  0.8553 -0.3234 -0.3248
 2964TIP3   OH230382   3.498   4.139  16.546 -0.0332  0.4322  0.4680
 2964TIP3    H130383   3.404   4.136  16.560  0.2912 -1.0893  2.7155
 2964TIP3    H230384   3.524   4.225  16.579 -0.8588  1.9355 -2.4537
 2965TIP3   OH230385   3.900   3.635   4.798  0.5108  0.0519 -0.0632
 2965TIP3    H130386   3.948   3.691   4.738  2.0390  0.9378  1.8952
 2965TIP3    H230387   3.882   3.690   4.875 -1.3614 -1.0316  0.3530
 2966TIP3   OH230388   5.275   5.618  13.076 -0.0878 -0.3067  0.8370
 2966TIP3    H130389   5.344   5.670  13.034 -1.8630  0.5615 -1.2213
 2966TIP3    H230390   5.243   5.674  13.146  0.8376 -0.4587  1.4060
 2967TIP3   OH230391   4.441   0.914  12.970 -0.5632  0.0037  0.5250
 2967TIP3    H130392   4.485   0.979  13.025  0.4576  0.7917 -1.1322
 2967TIP3    H230393   4.493   0.834  12.982 -0.6107  0.0437  1.0214
 2968TIP3   OH230394   4.633   6.434  10.581  0.6745  0.1862 -0.2851
 2968TIP3    H130395   4.551   6.416  10.626  0.7484 -3.3180 -1.2637
 2968TIP3    H230396   4.614   6.417  10.489  2.2256  0.2927 -0.6555
 2969TIP3   OH230397   6.149   1.598   2.608 -0.2498  0.0327  0.0957
 2969TIP3    H130398   6.142   1.658   2.535  0.0201 -0.1052 -0.0442
 2969TIP3    H230399   6.242   1.599   2.632  0.4503 -2.6824 -1.9260
 2970TIP3   OH230400   0.690   4.848  15.375 -0.4487 -0.6132  0.1277
 2970TIP3    H130401   0.620   4.869  15.314  0.6459  1.2166 -0.5939
 2970TIP3    H230402   0.659   4.881  15.459 -0.7211 -0.4090 -0.0531
 2971TIP3   OH230403   0.615   5.114   2.248  0.1360 -0.4575  0.1865
 2971TIP3    H130404   0.706   5.086   2.259  1.2844  1.0634 -3.7295
 2971TIP3    H230405   0.616   5.209   2.263 -0.7951 -0.4086  0.0400
 2972TIP3   OH230406   2.887   0.531  12.776  0.0930  0.3814  0.1115
 2972TIP3    H130407   2.944   0.500  12.706 -1.1664  1.8497 -1.6320
 2972TIP3    H230408   2.890   0.626  12.769 -0.7764  0.5417  1.4965
 2973TIP3   OH230409   1.443   4.658   4.428 -0.1417 -0.2506  0.2225
 2973TIP3    H130410   1.507   4.620   4.488  0.4656  0.3433 -0.0361
 2973TIP3    H230411   1.358   4.634   4.465  0.2246 -0.9505  0.6347
 2974TIP3   OH230412   5.339   3.805  13.095  0.0071  0.1295 -0.5642
 2974TIP3    H130413   5.355   3.802  13.001 -4.0235 -0.1226 -1.4325
 2974TIP3    H230414   5.399   3.872  13.128  2.0342 -0.2876 -3.1341
 2975TIP3   OH230415   1.135   0.901   1.496 -0.2922  0.0306  0.3293
 2975TIP3    H130416   1.082   0.963   1.446  1.1445 -0.3100 -1.7652
 2975TIP3    H230417   1.110   0.916   1.587 -1.5742  2.1262 -0.2853
 2976TIP3   OH230418   3.462   0.807   5.797 -0.3423  0.4964  0.3907
 2976TIP3    H130419   3.388   0.850   5.840 -1.3837 -0.7042 -0.1305
 2976TIP3    H230420   3.530   0.874   5.794 -2.5573  2.8862 -2.3264
 2977TIP3   OH230421   4.232   2.940  13.119  0.1200 -0.1592 -0.1032
 2977TIP3    H130422   4.268   2.884  13.188 -0.2367  0.5595  0.6788
 2977TIP3    H230423   4.301   3.004  13.101 -0.0017 -0.0004 -0.0096
 2978TIP3   OH230424   0.585   4.611  15.421  0.3704 -0.1718  0.2709
 2978TIP3    H130425   0.517   4.668  15.457 -0.6676 -1.2813  0.1546
 2978TIP3    H230426   0.636   4.668  15.364 -1.5515  0.3659 -1.0202
 2979TIP3   OH230427   1.172   2.862   3.913 -0.5006  0.3814  0.4382
 2979TIP3    H130428   1.144   2.952   3.902  1.8032  1.0967 -0.0775
 2979TIP3    H230429   1.244   2.851   3.850 -0.0670 -1.4921  1.1903
 2980TIP3   OH230430   2.767   6.333   3.936  0.3064 -0.2281 -0.3529
 2980TIP3    H130431   2.774   6.362   4.027  2.1203  3.4296 -1.4725
 2980TIP3    H230432   2.698   6.387   3.899 -1.0625 -2.3151 -1.0650
 2981TIP3   OH230433   1.344   5.266   4.753 -0.4605 -0.5611  0.0422
 2981TIP3    H130434   1.278   5.285   4.687 -1.1698 -0.5514  0.7472
 2981TIP3    H230435   1.427   5.291   4.712 -0.8912 -0.5400 -0.8325
 2982TIP3   OH230436   0.222   0.089  15.555 -0.2318 -0.5653  0.1505
 2982TIP3    H130437   0.255   0.130  15.635 -1.9529  4.4525 -1.2979
 2982TIP3    H230438   0.294   0.098  15.492 -0.8055  1.0134 -0.3276
 2983TIP3   OH230439   4.364   4.900  16.429  0.0081 -0.1263 -0.2557
 2983TIP3    H130440   4.415   4.910  16.509 -0.5581 -0.0440  0.1045
 2983TIP3    H230441   4.397   4.820  16.389  0.4537 -0.0416 -0.0610
 2984TIP3   OH230442   1.693   2.518   4.716 -0.2331  0.3091 -0.2196
 2984TIP3    H130443   1.755   2.589   4.735 -1.8519  1.6472  0.3191
 2984TIP3    H230444   1.747   2.439   4.716  1.2863  1.2600  1.3722
 2985TIP3   OH230445   2.211   0.092   1.928  0.0460  0.3793  0.3097
 2985TIP3    H130446   2.116   0.093   1.917  0.0425  2.1278  0.2208
 2985TIP3    H230447   2.244   0.055   1.846 -0.5487 -0.0226  0.2476
 2986TIP3   OH230448   0.737   4.239  16.282  0.5650 -0.2171  0.1214
 2986TIP3    H130449   0.643   4.245  16.295  0.6688  1.0059  0.4548
 2986TIP3    H230450   0.748   4.180  16.207 -0.5462  0.9612 -1.0209
 2987TIP3   OH230451   0.141   4.256   2.416  0.5479  0.2524  0.3818
 2987TIP3    H130452   0.233   4.282   2.410  0.3773  0.7209 -0.2928
 2987TIP3    H230453   0.101   4.292   2.337  0.1597 -1.4684 -0.2451
 2988TIP3   OH230454   4.797   6.113   2.638 -0.4435  0.4846 -0.1072
 2988TIP3    H130455   4.859   6.158   2.696 -0.6633 -0.7015  1.0989
 2988TIP3    H230456   4.801   6.021   2.665 -1.5478  0.1225 -1.0846
 2989TIP3   OH230457   5.991   5.068  16.702  0.0012  0.6542 -0.3707
 2989TIP3    H130458   5.943   5.120  16.637  2.0600  0.4142 -2.2210
 2989TIP3    H230459   6.057   5.128  16.737 -1.1247  0.7996  1.6428
 2990TIP3   OH230460   4.613   0.237   0.927  0.0495  0.0508  0.3603
 2990TIP3    H130461   4.692   0.184   0.918  1.5592  1.9338  1.7683
 2990TIP3    H230462   4.551   0.180   0.972  0.4207 -1.5726 -1.0661
 2991TIP3   OH230463   6.684   4.092  10.791 -0.0163  0.3217 -0.0958
 2991TIP3    H130464   6.708   4.184  10.787 -0.7758  0.5138 -0.4450
 2991TIP3    H230465   6.761   4.049  10.829  0.1525  1.1602  0.5535
 2992TIP3   OH230466   4.776   5.735   5.914  0.2870  0.1632  0.1469
 2992TIP3    H130467   4.863   5.706   5.942  1.1658  2.2810 -0.2129
 2992TIP3    H230468   4.731   5.755   5.995 -0.1843 -1.6419  0.3799
 2993TIP3   OH230469   0.834   3.888   3.219 -1.0787 -0.7020 -0.1163
 2993TIP3    H130470   0.865   3.901   3.130 -3.1378 -0.0880 -0.7848
 2993TIP3    H230471   0.835   3.975   3.258 -2.3988 -0.5733 -0.3257
 2994TIP3   OH230472   1.015   0.079   4.798  0.3074 -0.2547  0.3771
 2994TIP3    H130473   1.036  -0.009   4.828 -0.1519  0.1826  2.0926
 2994TIP3    H230474   1.093   0.109   4.753  0.5273 -1.4747 -0.0758
 2995TIP3   OH230475   3.857   3.021   0.896 -0.0163 -0.3321  0.1397
 2995TIP3    H130476   3.885   3.105   0.859  1.7100 -0.8315  0.2535
 2995TIP3    H230477   3.838   3.041   0.988  0.4219 -0.0651  0.1746
 2996TIP3   OH230478   6.040   3.921   5.441 -0.1500 -0.0686 -0.1515
 2996TIP3    H130479   5.954   3.963   5.443  0.2868  0.8736 -0.3328
 2996TIP3    H230480   6.080   3.942   5.525 -0.1313 -0.5924 -0.0257
 2997TIP3   OH230481   4.622   0.502   0.365 -0.1221 -0.0856 -0.5471
 2997TIP3    H130482   4.601   0.439   0.296 -0.4333 -0.3674 -0.2016
 2997TIP3    H230483   4.549   0.565   0.364 -0.2832 -0.2623 -0.2824
 2998TIP3   OH230484   1.302   5.726  17.111  0.5703  0.0930  0.7921
 2998TIP3    H130485   1.234   5.661  17.127  0.8404 -0.7890 -1.3875
 2998TIP3    H230486   1.350   5.731  17.194  0.4740 -2.3983  1.0743
 2999TIP3   OH230487   3.881   5.538  14.325 -0.3537  0.2435 -0.0644
 2999TIP3    H130488   3.947   5.586  14.274 -0.4545  0.2526 -0.1873
 2999TIP3    H230489   3.839   5.481  14.261 -0.7908  0.5841 -0.0840
 3000TIP3   OH230490   2.826   5.991  12.232  0.5787  0.4181 -0.4706
 3000TIP3    H130491   2.812   6.014  12.140 -2.6608 -2.5431 -0.9239
 3000TIP3    H230492   2.788   6.064  12.280 -1.7264  0.0921 -1.6474
 3001TIP3   OH230493   5.493   4.228   0.767 -0.0945 -0.4026 -0.5833
 3001TIP3    H130494   5.514   4.187   0.851 -1.8987  2.6160  1.5305
 3001TIP3    H230495   5.399   4.215   0.757  0.2731 -1.7085 -2.7996
 3002TIP3   OH230496   1.071   0.717  17.098  0.6642  0.0625 -0.4036
 3002TIP3    H130497   1.090   0.623  17.102 -0.1138 -0.0438  1.3928
 3002TIP3    H230498   1.142   0.758  17.148  1.0205  0.4752 -1.2085
 3003TIP3   OH230499   2.917   0.861  12.779  0.0095 -0.5228  0.1624
 3003TIP3    H130500   2.930   0.950  12.810 -1.0053 -1.1178  2.5138
 3003TIP3    H230501   2.992   0.843  12.722  0.8933  1.3678  0.6772
 3004TIP3   OH230502   0.620   1.857  11.930 -0.3020 -0.0421 -0.1522
 3004TIP3    H130503   0.538   1.904  11.943  0.1680  0.8922 -0.4824
 3004TIP3    H230504   0.595   1.774  11.890 -1.1831 -0.2590  0.7986
 3005TIP3   OH230505   0.240   1.596  16.678 -0.2381  0.4451 -0.2325
 3005TIP3    H130506   0.234   1.539  16.755  0.1901 -0.5880 -0.9359
 3005TIP3    H230507   0.306   1.661  16.702 -1.1394  1.0180  0.7965
 3006TIP3   OH230508   1.302   5.159  11.974  0.2462 -0.9390  0.5979
 3006TIP3    H130509   1.338   5.073  11.996  2.7193 -0.2631 -0.5227
 3006TIP3    H230510   1.340   5.180  11.889  1.7175  2.2813  1.8772
 3007TIP3   OH230511   0.529   2.592  16.545 -0.1085  0.9118  0.5555
 3007TIP3    H130512   0.503   2.598  16.637  0.1246  0.1979  0.6735
 3007TIP3    H230513   0.620   2.622  16.544  0.3991 -0.5282  0.8225
 3008TIP3   OH230514   3.866   0.167   6.032 -0.3595 -0.5575 -0.4855
 3008TIP3    H130515   3.777   0.137   6.049 -0.8701  1.7286  1.3627
 3008TIP3    H230516   3.866   0.259   6.057  2.4358 -0.3668 -0.8257
 3009TIP3   OH230517   2.546   3.030   1.034 -0.0222  0.0558 -0.3173
 3009TIP3    H130518   2.487   2.959   1.007 -0.3893  0.4542 -0.5666
 3009TIP3    H230519   2.634   2.992   1.026 -0.2080 -0.3193 -0.6188
 3010TIP3   OH230520   1.656   6.175  11.419  0.6940  0.1785  0.1290
 3010TIP3    H130521   1.626   6.219  11.498  0.2588  0.4020 -0.1591
 3010TIP3    H230522   1.707   6.100  11.451  2.0056  1.2474  0.6395
 3011TIP3   OH230523   1.294   4.232  17.078  0.4653  0.3311  0.4824
 3011TIP3    H130524   1.290   4.154  17.133  0.1990  0.3917  0.5496
 3011TIP3    H230525   1.373   4.220  17.025  1.1334  0.6231  1.3932
 3012TIP3   OH230526   0.887   4.672   4.225 -0.4012 -0.0887 -0.4214
 3012TIP3    H130527   0.836   4.698   4.148 -1.1316 -0.0927  0.0488
 3012TIP3    H230528   0.822   4.632   4.283  0.1719 -0.2148  0.1348
 3013TIP3   OH230529   4.210   5.577   4.187 -0.1865 -0.5197 -0.3500
 3013TIP3    H130530   4.299   5.579   4.223 -0.1784 -0.7204 -0.3621
 3013TIP3    H230531   4.199   5.664   4.149  0.3039 -0.7683 -1.0710
 3014TIP3   OH230532   5.739   5.766  16.202  0.7478  0.9036 -0.1645
 3014TIP3    H130533   5.760   5.728  16.117  0.7945 -0.3945  0.4081
 3014TIP3    H230534   5.810   5.738  16.259  0.5253  1.4562  0.3936
 3015TIP3   OH230535   5.607   4.806  17.379 -0.0153 -0.2095  0.1651
 3015TIP3    H130536   5.554   4.885  17.365 -0.0827 -0.3923 -0.6785
 3015TIP3    H230537   5.618   4.801  17.474  1.4731  1.8108  0.1840
 3016TIP3   OH230538   4.084   0.140   6.950  0.1423 -0.4854 -0.5912
 3016TIP3    H130539   4.046   0.052   6.942 -0.0304 -0.9113  3.3149
 3016TIP3    H230540   4.175   0.129   6.920  0.0584 -1.9294 -0.4133
 3017TIP3   OH230541   1.665   5.384  15.939  0.2208  0.1377 -0.4920
 3017TIP3    H130542   1.715   5.323  15.992 -0.4527 -0.3575 -0.4160
 3017TIP3    H230543   1.716   5.394  15.859  0.9777  0.4772  0.0180
 3018TIP3   OH230544   5.897   2.514  13.575 -0.4740  0.4579 -0.1895
 3018TIP3    H130545   5.916   2.449  13.507 -0.4200 -1.1001  1.2407
 3018TIP3    H230546   5.804   2.533  13.564 -0.5957 -0.2095 -0.3747
 3019TIP3   OH230547   1.817   2.174  10.989  0.6023 -0.2386 -0.3193
 3019TIP3    H130548   1.889   2.165  10.927 -0.5278  0.2521 -1.7824
 3019TIP3    H230549   1.763   2.096  10.975  1.3458 -1.1281  1.4984
 3020TIP3   OH230550   4.665   5.673  12.611 -0.0458  0.2424 -0.5483
 3020TIP3    H130551   4.582   5.715  12.637 -0.9992 -1.1028 -1.2629
 3020TIP3    H230552   4.661   5.587  12.653  0.0275 -0.6075 -2.2009
 3021TIP3   OH230553   2.319   2.161   2.232 -0.2799  0.0149  0.0740
 3021TIP3    H130554   2.282   2.082   2.272  0.7331 -0.4786  0.0789
 3021TIP3    H230555   2.322   2.140   2.138 -1.1402  0.5355 -0.0801
 3022TIP3   OH230556   6.064   4.470  17.033  0.0766  0.8621  0.6472
 3022TIP3    H130557   6.137   4.459  17.095  0.5341  0.4360  0.0405
 3022TIP3    H230558   5.986   4.452  17.086  0.5174 -0.5041  0.8769
 3023TIP3   OH230559   0.791   5.492  13.685 -0.3521  0.3937 -0.0186
 3023TIP3    H130560   0.771   5.409  13.641  1.6995 -0.5612  0.6952
 3023TIP3    H230561   0.857   5.533  13.629  0.0680  0.6004  0.6120
 3024TIP3   OH230562   0.702   5.032   1.954 -0.2523 -0.1925  0.3259
 3024TIP3    H130563   0.651   4.952   1.962 -0.1744 -0.3423 -0.5710
 3024TIP3    H230564   0.639   5.099   1.931 -0.3398  0.0500  1.2183
 3025TIP3   OH230565   2.714   5.976   7.129 -0.3315 -0.0474  0.5732
 3025TIP3    H130566   2.717   5.883   7.153  1.6114  0.1225  1.1380
 3025TIP3    H230567   2.633   5.985   7.080 -1.3898 -1.6937  1.9149
 3026TIP3   OH230568   2.677   3.237   2.907 -0.5234  0.2434  0.3346
 3026TIP3    H130569   2.601   3.296   2.903 -0.8640 -0.1750  0.5680
 3026TIP3    H230570   2.749   3.289   2.872 -1.4318 -0.1786 -2.4691
 3027TIP3   OH230571   1.406   6.459  12.998  1.0696 -0.4127 -0.3220
 3027TIP3    H130572   1.456   6.480  12.920  0.9335  1.9480  0.1620
 3027TIP3    H230573   1.395   6.364  12.994 -0.5798 -0.2496 -4.1810
 3028TIP3   OH230574   0.830   3.763   1.306  0.0764  0.0602 -0.3628
 3028TIP3    H130575   0.748   3.811   1.316  0.4723  0.2996  2.7190
 3028TIP3    H230576   0.893   3.829   1.278 -0.3392  0.3093 -0.7244
 3029TIP3   OH230577   1.153   4.673  17.386  0.3043 -0.0033 -0.4424
 3029TIP3    H130578   1.204   4.592  17.390 -0.8817 -0.8777 -1.9233
 3029TIP3    H230579   1.070   4.647  17.348 -0.0951  1.9398 -1.0115
 3030TIP3   OH230580   5.657   1.945   4.002 -1.0610  0.2809 -0.1508
 3030TIP3    H130581   5.680   1.852   3.995 -1.5537  0.2409 -1.4154
 3030TIP3    H230582   5.561   1.945   4.009 -0.9563  0.5975  2.3217
 3031TIP3   OH230583   1.926   3.314   0.896 -0.1127  0.2476  0.1619
 3031TIP3    H130584   1.915   3.219   0.890 -0.4689  0.4030 -2.9670
 3031TIP3    H230585   1.848   3.344   0.942  0.6053 -0.9985  2.3767
 3032TIP3   OH230586   0.700   4.001  11.510 -0.8556  0.3416 -0.3994
 3032TIP3    H130587   0.747   4.077  11.545 -0.5828  0.3466 -0.7812
 3032TIP3    H230588   0.743   3.982  11.427 -1.5227  0.3415 -0.7458
 3033TIP3   OH230589   5.373   6.606   4.706 -0.3085  0.7259  0.2752
 3033TIP3    H130590   5.370   6.642   4.795 -0.1255 -1.2012  1.1064
 3033TIP3    H230591   5.281   6.606   4.678 -0.4013  1.0609  0.5588
 3034TIP3   OH230592   6.002   5.865   3.923  0.0843 -0.1862 -0.0039
 3034TIP3    H130593   6.055   5.902   3.992  0.4432 -1.6175  0.5301
 3034TIP3    H230594   6.006   5.770   3.937 -1.9103 -0.3938 -0.4558
 3035TIP3   OH230595   3.385   1.653   0.192 -0.2514  0.3477  0.2873
 3035TIP3    H130596   3.471   1.636   0.153 -0.1760 -1.0750  1.0326
 3035TIP3    H230597   3.351   1.727   0.142  0.3717 -0.6036 -1.6506
 3036TIP3   OH230598   3.312   6.117   3.575 -0.1477  0.5669  0.2133
 3036TIP3    H130599   3.384   6.180   3.580  0.2519  0.1292  0.0004
 3036TIP3    H230600   3.277   6.127   3.487  0.2739  0.1051 -0.0113
 3037TIP3   OH230601   5.996   6.782   2.786 -0.0674 -0.4506 -0.3067
 3037TIP3    H130602   5.946   6.708   2.753 -0.5351 -0.1187 -0.3440
 3037TIP3    H230603   6.061   6.799   2.718  0.7937 -1.5434  0.2001
 3038TIP3   OH230604   3.142   5.880  16.997  0.1163 -0.9213  0.0591
 3038TIP3    H130605   3.228   5.890  17.038 -0.1764 -3.2839  1.4116
 3038TIP3    H230606   3.093   5.823  17.056 -2.1487 -0.2417 -1.0586
 3039TIP3   OH230607   1.645   3.642  14.750 -0.4381  0.0799  0.2192
 3039TIP3    H130608   1.571   3.673  14.803 -0.3659  0.2610  0.2150
 3039TIP3    H230609   1.708   3.610  14.815  0.4350  1.9766  0.3712
 3040TIP3   OH230610   0.824   4.437  13.011 -0.8558 -0.0573  0.1316
 3040TIP3    H130611   0.806   4.408  12.921  2.0368  1.3003 -1.0339
 3040TIP3    H230612   0.829   4.357  13.062 -3.5232 -0.8191 -0.6287
 3041TIP3   OH230613   0.574   3.875  16.097  0.1504  0.5724  0.2379
 3041TIP3    H130614   0.655   3.876  16.046  0.2818  0.0703  0.4241
 3041TIP3    H230615   0.508   3.838  16.038 -0.2161  1.9719 -0.2806
 3042TIP3   OH230616   6.693   5.985   0.158 -0.2378  0.5492 -0.2795
 3042TIP3    H130617   6.752   6.055   0.182  0.2193  1.4714 -3.5688
 3042TIP3    H230618   6.614   6.029   0.127 -0.2489 -0.3395 -1.6561
 3043TIP3   OH230619   3.355   1.095   4.538  0.1382 -0.2686  0.0498
 3043TIP3    H130620   3.361   1.061   4.449 -0.2826  0.1960 -0.1599
 3043TIP3    H230621   3.313   1.025   4.588  0.7029 -0.6742 -0.0296
 3044TIP3   OH230622   5.292   3.364  12.395  0.8899  0.0848 -0.1391
 3044TIP3    H130623   5.229   3.429  12.425 -0.3246 -1.4678  0.8710
 3044TIP3    H230624   5.368   3.377  12.452  1.4782  1.8696 -1.2643
 3045TIP3   OH230625   2.458   1.740   3.897  0.0376 -0.0250 -0.0678
 3045TIP3    H130626   2.375   1.720   3.853  0.4559 -1.6278 -0.2179
 3045TIP3    H230627   2.451   1.698   3.982  0.2571  0.8225  0.3769
 3046TIP3   OH230628   4.453   1.132  15.765  0.5124  0.4644  0.3221
 3046TIP3    H130629   4.476   1.075  15.838 -1.0201  1.5617  1.7403
 3046TIP3    H230630   4.444   1.219  15.804 -0.8489  0.9964 -1.0587
 3047TIP3   OH230631   0.480   4.539   3.584 -0.0218 -0.1424  0.7779
 3047TIP3    H130632   0.509   4.629   3.574  2.2784 -0.9530 -0.7570
 3047TIP3    H230633   0.548   4.487   3.542 -1.0576 -2.6442  1.9636
 3048TIP3   OH230634   4.818   6.180   1.007 -0.1445  0.0359  0.1717
 3048TIP3    H130635   4.803   6.086   0.997 -2.5681  0.5684 -2.1561
 3048TIP3    H230636   4.803   6.196   1.100  2.8973 -2.1635  1.2192
 3049TIP3   OH230637   5.898   3.039  15.194  0.2678  0.0770  0.4161
 3049TIP3    H130638   5.979   3.019  15.241 -0.6711 -2.5620  1.1125
 3049TIP3    H230639   5.839   3.074  15.261 -0.1748 -1.0902  0.6686
 3050TIP3   OH230640   1.742   3.820   1.576  0.1434 -0.0914 -0.7408
 3050TIP3    H130641   1.744   3.725   1.565  1.8793 -0.4917  2.0598
 3050TIP3    H230642   1.657   3.837   1.619  0.3868 -0.5878 -0.0380
 3051TIP3   OH230643   1.580   6.767  10.963  0.1907  0.7851 -0.2951
 3051TIP3    H130644   1.611   6.819  10.889 -0.8282 -0.1636 -1.4320
 3051TIP3    H230645   1.622   6.682  10.952  1.4753  1.1511  1.2893
 3052TIP3   OH230646   5.512   1.015  11.874  0.5199 -0.0383 -0.2503
 3052TIP3    H130647   5.540   0.967  11.797 -1.2573 -0.8735 -0.4147
 3052TIP3    H230648   5.493   0.948  11.940 -2.4809  0.2715 -0.6361
 3053TIP3   OH230649   1.747   5.857   5.891 -0.1284 -0.0834 -0.2310
 3053TIP3    H130650   1.764   5.851   5.796 -0.3378  2.4611 -0.4982
 3053TIP3    H230651   1.795   5.935   5.919 -0.8235 -0.2624  1.5838
 3054TIP3   OH230652   5.149   3.632   3.342  0.2314 -0.0446 -0.6434
 3054TIP3    H130653   5.117   3.544   3.320 -0.4568  0.4576 -1.8063
 3054TIP3    H230654   5.069   3.685   3.348  0.7193  1.0509 -2.6689
 3055TIP3   OH230655   2.667   2.225   3.874 -0.0817  0.6229 -0.4400
 3055TIP3    H130656   2.734   2.230   3.806  0.6483  0.2887  0.2428
 3055TIP3    H230657   2.613   2.150   3.850 -0.9199  1.5557 -1.6074
 3056TIP3   OH230658   2.794   1.699   3.888 -0.5401 -0.6534  0.6715
 3056TIP3    H130659   2.872   1.655   3.852  0.0131  3.5344 -4.4968
 3056TIP3    H230660   2.722   1.660   3.839 -0.5037  1.1286 -0.9127
 3057TIP3   OH230661   1.669   5.583  16.716 -0.3111 -0.4184  0.4080
 3057TIP3    H130662   1.722   5.590  16.637 -0.7557 -0.6100  0.0920
 3057TIP3    H230663   1.733   5.575  16.787  0.3551  4.8309  0.7730
 3058TIP3   OH230664   0.115   5.965  12.808 -0.5279 -0.5345  0.0197
 3058TIP3    H130665   0.188   6.027  12.815 -0.8202 -0.0596 -0.9640
 3058TIP3    H230666   0.145   5.899  12.746 -0.7469 -0.6150 -0.0009
 3059TIP3   OH230667   4.316   0.357  12.782  0.8244 -0.3977 -0.1859
 3059TIP3    H130668   4.309   0.447  12.815 -0.5321 -0.3293 -0.6069
 3059TIP3    H230669   4.318   0.303  12.861  2.4343  0.0118  0.1017
 3060TIP3   OH230670   2.910   2.843  15.655  0.4114  0.5346  0.2024
 3060TIP3    H130671   2.849   2.915  15.668 -1.4579 -1.0679  0.8500
 3060TIP3    H230672   2.925   2.808  15.743  1.6045  0.3809 -0.0540
 3061TIP3   OH230673   2.556   4.300   0.553 -0.2786  0.4508  0.0879
 3061TIP3    H130674   2.610   4.333   0.625  0.6234 -0.3795 -0.1864
 3061TIP3    H230675   2.498   4.236   0.594  0.7074 -0.5402  0.0044
 3062TIP3   OH230676   1.752   0.829   4.688 -0.1822  0.0208 -0.4568
 3062TIP3    H130677   1.788   0.799   4.605  0.9727  1.0916 -0.3767
 3062TIP3    H230678   1.765   0.924   4.687 -0.4206  0.0867  0.8087
 3063TIP3   OH230679   6.387   3.634   0.370  0.1178  0.0079 -0.4014
 3063TIP3    H130680   6.341   3.558   0.336  0.9383 -0.5106 -0.3876
 3063TIP3    H230681   6.477   3.604   0.383  0.0300  0.4122  1.4636
 3064TIP3   OH230682   1.546   1.028  14.912 -0.3006 -0.1233 -0.4206
 3064TIP3    H130683   1.494   1.102  14.881  0.0987 -0.4599 -1.9306
 3064TIP3    H230684   1.541   0.963  14.843 -0.0471 -1.2402  0.5724
 3065TIP3   OH230685   0.608   0.738   1.610  0.5928  0.5530 -0.1698
 3065TIP3    H130686   0.669   0.698   1.547  0.7439 -0.2115  0.4457
 3065TIP3    H230687   0.560   0.664   1.647 -1.2687  1.2034 -1.1881
 3066TIP3   OH230688   5.521   5.545   3.165 -0.0798 -0.2783  0.0844
 3066TIP3    H130689   5.595   5.485   3.159 -1.3369 -1.7346 -2.8754
 3066TIP3    H230690   5.514   5.585   3.078 -0.0413  3.4125  1.5951
 3067TIP3   OH230691   1.113   2.417  10.604 -0.1479 -0.5426 -0.0903
 3067TIP3    H130692   1.134   2.352  10.538  0.4241  0.3484 -0.8142
 3067TIP3    H230693   1.177   2.487  10.590 -2.4350  1.4626 -1.1769
 3068TIP3   OH230694   1.695   0.716   5.503 -0.0691  0.4791  0.1358
 3068TIP3    H130695   1.708   0.647   5.568  1.3210 -0.6400 -1.2423
 3068TIP3    H230696   1.777   0.765   5.502  0.3361 -0.1688 -1.4511
 3069TIP3   OH230697   0.643   5.028  17.099  0.7856 -0.0569 -0.3862
 3069TIP3    H130698   0.692   5.100  17.059  0.3514 -0.1578 -1.1051
 3069TIP3    H230699   0.711   4.969  17.132  1.1520  0.8465  0.5534
 3070TIP3   OH230700   6.747   6.657   4.030 -0.2366 -0.2098 -0.9762
 3070TIP3    H130701   6.778   6.566   4.021 -1.6545 -0.6109 -2.1883
 3070TIP3    H230702   6.750   6.692   3.941  0.5413  1.0443 -0.4744
 3071TIP3   OH230703   4.072   6.524   3.416 -0.0316 -0.4490  0.3485
 3071TIP3    H130704   4.085   6.571   3.498 -0.4104  0.7371 -0.2354
 3071TIP3    H230705   4.049   6.593   3.353 -1.1073 -1.4854 -0.4364
 3072TIP3   OH230706   4.505   0.692   0.814  0.4977  0.7789 -0.0212
 3072TIP3    H130707   4.554   0.764   0.774 -0.0335  0.6379 -0.9384
 3072TIP3    H230708   4.503   0.714   0.907 -1.4115  3.0776 -0.4968
 3073TIP3   OH230709   4.942   2.976  14.906  0.1860 -0.6798 -0.6601
 3073TIP3    H130710   4.899   2.981  14.820 -0.4114 -1.3335 -0.4115
 3073TIP3    H230711   5.035   2.987  14.887 -0.0856  1.0055 -1.1915
 3074TIP3   OH230712   5.924   6.269  10.824 -0.3581  0.4568  0.1771
 3074TIP3    H130713   6.001   6.229  10.864 -0.1750  0.3274 -0.2949
 3074TIP3    H230714   5.938   6.259  10.730 -2.1462 -1.8903  0.0606
 3075TIP3   OH230715   0.925   0.283   0.012  0.1469 -0.1216 -0.0927
 3075TIP3    H130716   0.838   0.242   0.015 -0.0908  0.2125 -1.5454
 3075TIP3    H230717   0.976   0.235   0.076 -0.6334 -1.5006 -0.4613
 3076TIP3   OH230718   0.449   4.855  15.241  0.1473  0.2793 -0.0515
 3076TIP3    H130719   0.417   4.917  15.307  1.8843  1.4396 -0.2367
 3076TIP3    H230720   0.394   4.873  15.164 -1.5656 -0.7501  0.8759
 3077TIP3   OH230721   5.274   4.669  15.264  0.1541 -0.3132 -0.2592
 3077TIP3    H130722   5.287   4.582  15.228  1.0766 -0.7396  1.0446
 3077TIP3    H230723   5.289   4.659  15.358  0.4545  1.2759 -0.1053
 3078TIP3   OH230724   0.517   2.530   3.925  0.2847 -0.7883  0.3036
 3078TIP3    H130725   0.480   2.457   3.876  0.6574 -0.3700 -0.6336
 3078TIP3    H230726   0.452   2.550   3.992 -0.9848 -0.3866 -0.9794
 3079TIP3   OH230727   6.437   6.233   3.697  0.5427 -0.2533 -0.3027
 3079TIP3    H130728   6.368   6.190   3.746  0.1940 -0.6073 -1.0890
 3079TIP3    H230729   6.398   6.316   3.670  1.1263  0.4761  0.9891
 3080TIP3   OH230730   1.198   6.204  14.628  0.2794 -0.1688  0.2596
 3080TIP3    H130731   1.127   6.153  14.670  0.6177 -0.9436 -0.0850
 3080TIP3    H230732   1.205   6.166  14.541  1.3162 -0.2910  0.3910
 3081TIP3   OH230733   5.780   4.150  16.698  0.3975  0.0267 -0.0163
 3081TIP3    H130734   5.779   4.246  16.695 -1.1424  0.0175 -1.5847
 3081TIP3    H230735   5.688   4.125  16.689  0.9783 -1.5917 -3.0139
 3082TIP3   OH230736   2.705   3.797   5.361  0.0096 -0.4459  0.3782
 3082TIP3    H130737   2.761   3.720   5.358 -0.9009 -1.1612  1.1076
 3082TIP3    H230738   2.655   3.795   5.279  1.8836  0.8926 -0.8784
 3083TIP3   OH230739   2.365   6.557  12.674  0.3548 -0.1451  0.5495
 3083TIP3    H130740   2.321   6.510  12.745  0.2292 -1.0272 -0.0974
 3083TIP3    H230741   2.428   6.494  12.640  0.1218  0.1325 -0.4018
 3084TIP3   OH230742   1.721   5.507   4.305 -0.6729 -0.0523 -0.0283
 3084TIP3    H130743   1.777   5.584   4.318 -1.4865  0.2150  2.1547
 3084TIP3    H230744   1.655   5.536   4.242  0.3370  0.2971 -0.9645
 3085TIP3   OH230745   3.181   0.640  12.483  0.4132 -0.3030 -0.6998
 3085TIP3    H130746   3.098   0.688  12.482 -0.3172 -1.5207 -1.4636
 3085TIP3    H230747   3.158   0.552  12.516  1.6857 -0.2128  0.5383
 3086TIP3   OH230748   1.052   2.914  12.596  0.3359 -0.5010  0.3841
 3086TIP3    H130749   1.025   2.923  12.687 -0.2119  0.4187  0.1440
 3086TIP3    H230750   1.120   2.847  12.597 -0.3255 -1.1867  1.3393
 3087TIP3   OH230751   2.703   1.820   4.120 -0.2802 -0.3665 -0.6151
 3087TIP3    H130752   2.744   1.754   4.064 -0.3223 -0.5391 -0.4418
 3087TIP3    H230753   2.749   1.812   4.203 -0.1686 -0.0599 -0.6460
 3088TIP3   OH230754   2.997   3.637   6.934  0.2294 -0.1820  0.1782
 3088TIP3    H130755   2.961   3.707   6.881  0.6005 -0.0879  0.0470
 3088TIP3    H230756   3.089   3.632   6.909  0.6589  0.5188  1.4903
 3089TIP3   OH230757   5.361   3.943   3.555  0.6115 -0.3778  0.2721
 3089TIP3    H130758   5.317   4.023   3.585  0.3384 -0.8334  1.1371
 3089TIP3    H230759   5.404   3.910   3.634 -0.4696 -1.8506  0.2674
 3090TIP3   OH230760   3.913   4.939   6.538 -0.2014 -0.2828  0.4220
 3090TIP3    H130761   3.884   4.949   6.629 -0.3745  1.0509  0.2293
 3090TIP3    H230762   3.844   4.887   6.497  0.1847 -1.4500  1.1898
 3091TIP3   OH230763   2.202   0.745  11.615  0.2674 -0.0612 -0.2895
 3091TIP3    H130764   2.136   0.698  11.564 -1.0601  2.6049 -1.2252
 3091TIP3    H230765   2.219   0.688  11.690 -2.6033 -1.1899 -0.3480
 3092TIP3   OH230766   2.324   3.886   1.643  0.4484 -0.0687 -0.1086
 3092TIP3    H130767   2.407   3.910   1.603  0.9277 -1.4587  0.0157
 3092TIP3    H230768   2.293   3.812   1.592 -0.4781  0.1097  0.1668
 3093TIP3   OH230769   2.350   4.950  14.494  0.5696  0.2480  0.3525
 3093TIP3    H130770   2.348   5.042  14.518 -2.3405 -0.3962  3.3110
 3093TIP3    H230771   2.279   4.940  14.430  0.1423 -0.1130  0.8799
 3094TIP3   OH230772   2.053   4.670  13.816 -0.0547 -0.5272  0.3203
 3094TIP3    H130773   2.104   4.612  13.872  0.2795  0.6311  1.2679
 3094TIP3    H230774   1.965   4.668  13.854  0.0908 -0.0025  0.6976
 3095TIP3   OH230775   4.203   6.422   6.516 -0.1931  0.2150  0.2641
 3095TIP3    H130776   4.248   6.355   6.567  1.1801 -0.2547 -1.4456
 3095TIP3    H230777   4.135   6.374   6.468 -1.3874  0.6297  1.4799
 3096TIP3   OH230778   3.677   1.106   6.059  0.2585 -0.0463  0.0492
 3096TIP3    H130779   3.764   1.120   6.095 -0.1004  0.5998  0.6857
 3096TIP3    H230780   3.637   1.193   6.056 -0.5365 -0.3906  0.2226
 3097TIP3   OH230781   0.827   0.160  14.585 -0.4873 -0.1233 -0.3149
 3097TIP3    H130782   0.840   0.238  14.640 -0.9124  0.8558 -1.5346
 3097TIP3    H230783   0.906   0.108  14.596 -0.6495 -0.0422  1.3531
 3098TIP3   OH230784   1.384   3.634   4.223  0.1308 -0.5438  0.0023
 3098TIP3    H130785   1.472   3.601   4.243 -0.4298 -1.7843  0.5510
 3098TIP3    H230786   1.396   3.728   4.209  1.4533 -0.5987  0.6096
 3099TIP3   OH230787   1.957   3.507  11.413  0.4287  0.3850 -0.5271
 3099TIP3    H130788   1.881   3.465  11.374  1.4965 -1.6853 -0.5432
 3099TIP3    H230789   1.924   3.547  11.494 -0.4616 -1.6747  0.1831
 3100TIP3   OH230790   1.336   4.744  11.490  0.2215  0.4556  0.3626
 3100TIP3    H130791   1.258   4.693  11.512  0.3456 -0.0674 -0.3683
 3100TIP3    H230792   1.304   4.811  11.429  0.6923 -1.2130 -1.8463
 3101TIP3   OH230793   1.475   2.078   3.426  0.6328 -0.2836  0.1804
 3101TIP3    H130794   1.450   2.114   3.341  0.3582 -1.4461 -0.2489
 3101TIP3    H230795   1.394   2.042   3.462  0.6387  0.6355  1.1790
 3102TIP3   OH230796   6.283   0.116   4.178  0.1375 -0.3496  0.2655
 3102TIP3    H130797   6.281   0.021   4.193 -0.1285 -0.2336  0.9683
 3102TIP3    H230798   6.337   0.126   4.099  0.3946 -1.0655  0.3435
 3103TIP3   OH230799   2.499   5.287   4.730  0.2775  0.0977  0.4183
 3103TIP3    H130800   2.415   5.330   4.715 -0.3402  0.1342  3.3477
 3103TIP3    H230801   2.555   5.355   4.765  0.1573 -0.7593  2.4341
 3104TIP3   OH230802   0.214   4.557   5.119  0.0027 -0.2917 -0.1210
 3104TIP3    H130803   0.215   4.505   5.200 -0.8008  0.0098  0.0856
 3104TIP3    H230804   0.162   4.506   5.058  2.2856 -1.5446 -1.1738
 3105TIP3   OH230805   6.405   5.044  12.814  0.4344 -0.2824 -0.1789
 3105TIP3    H130806   6.444   4.985  12.879  1.1592  0.3556 -0.0234
 3105TIP3    H230807   6.467   5.116  12.806  0.0512 -0.0397 -1.1254
 3106TIP3   OH230808   0.224   0.764   1.524  0.1577 -0.2173  0.4967
 3106TIP3    H130809   0.204   0.671   1.513  2.0439 -0.6725  0.5540
 3106TIP3    H230810   0.275   0.768   1.605  0.7324  0.7470  0.1107
 3107TIP3   OH230811   2.573   1.885   1.782  0.0509  0.0421  0.1068
 3107TIP3    H130812   2.527   1.801   1.784 -0.6657  0.4293  0.2427
 3107TIP3    H230813   2.539   1.930   1.705 -1.7322  1.3770  1.5945
 3108TIP3   OH230814   0.922   3.761  16.351 -0.2930  0.0060  0.1961
 3108TIP3    H130815   0.942   3.787  16.441  1.1794  0.7307 -0.3049
 3108TIP3    H230816   0.983   3.690  16.332 -0.6485 -0.1972 -0.2045
 3109TIP3   OH230817   1.374   3.870  14.409 -0.0090 -0.3599 -0.3279
 3109TIP3    H130818   1.341   3.813  14.478 -0.7163 -0.2060 -0.5306
 3109TIP3    H230819   1.469   3.866  14.418 -0.0797 -0.7873  0.2887
 3110TIP3   OH230820   3.962   0.249   5.743 -0.1543 -0.1559  0.1894
 3110TIP3    H130821   3.923   0.177   5.794  0.5799 -1.0369 -0.4709
 3110TIP3    H230822   4.056   0.237   5.753  0.0093 -0.3204 -1.3261
 3111TIP3   OH230823   5.365   2.446  12.913 -0.5310 -0.4300  0.3961
 3111TIP3    H130824   5.426   2.373  12.921 -0.2209 -0.1636  0.4936
 3111TIP3    H230825   5.386   2.485  12.828  0.5831  0.6830  1.1560
 3112TIP3   OH230826   5.754   1.071   2.553 -0.1294  0.2482 -0.2756
 3112TIP3    H130827   5.714   1.142   2.604 -0.5152  1.1424 -1.7664
 3112TIP3    H230828   5.786   1.114   2.473  0.3792 -1.1268 -0.8362
 3113TIP3   OH230829   0.200   1.544   4.077  0.4561 -0.4622  0.1408
 3113TIP3    H130830   0.141   1.474   4.107 -0.9369  0.6097 -0.0072
 3113TIP3    H230831   0.247   1.570   4.156 -2.2756  1.4688  1.2626
 3114TIP3   OH230832   1.948   3.379  16.206  0.5828  0.5578  0.3873
 3114TIP3    H130833   1.907   3.430  16.276 -0.1096 -1.3448  1.4442
 3114TIP3    H230834   2.031   3.423  16.189 -0.3551  2.5139  0.6074
 3115TIP3   OH230835   6.064   5.246   3.018 -0.1172  0.3894 -0.1519
 3115TIP3    H130836   6.157   5.227   3.006  0.3645  0.7292  2.3904
 3115TIP3    H230837   6.023   5.161   3.032  0.4461  0.4096  2.0073
 3116TIP3   OH230838   2.532   0.065   1.539 -0.0100  0.2064 -0.2526
 3116TIP3    H130839   2.506   0.123   1.467  1.2196 -0.1940 -1.0534
 3116TIP3    H230840   2.483   0.097   1.615 -0.6418  1.2124 -1.0607
 3117TIP3   OH230841   1.288   4.275   2.002 -0.0422  0.1802  0.7088
 3117TIP3    H130842   1.242   4.291   1.920 -2.2495 -0.7295  1.7033
 3117TIP3    H230843   1.283   4.180   2.015  1.1455  0.1898  1.4295
 3118TIP3   OH230844   0.450   2.153  14.819 -0.3220 -0.4029 -0.7285
 3118TIP3    H130845   0.354   2.147  14.824 -0.1999 -1.8164  2.1022
 3118TIP3    H230846   0.480   2.062  14.829  1.3254  0.1323 -0.5072
 3119TIP3   OH230847   5.610   3.184   0.935  0.2036  0.0508  0.1352
 3119TIP3    H130848   5.582   3.241   0.864 -1.4087 -3.2020 -2.1321
 3119TIP3    H230849   5.685   3.136   0.898 -0.4645 -1.4777  0.6578
 3120TIP3   OH230850   3.052   2.351  14.402 -0.1179 -0.1788 -0.3441
 3120TIP3    H130851   3.051   2.303  14.484  0.1841  1.2191  0.5229
 3120TIP3    H230852   3.074   2.286  14.335  0.2171 -1.2260  0.7639
 3121TIP3   OH230853   1.171   0.755   0.024 -0.6228 -0.6644  0.3201
 3121TIP3    H130854   1.248   0.707   0.053 -0.5900 -1.6109 -1.2373
 3121TIP3    H230855   1.099   0.718   0.075 -0.5642 -2.2547 -0.6831
 3122TIP3   OH230856   1.976   6.255  17.443 -0.1238  0.5494  0.3632
 3122TIP3    H130857   1.898   6.202  17.423  0.2446 -0.3124  1.1110
 3122TIP3    H230858   2.035   6.237  17.370 -0.6426  1.2745 -0.2521
 3123TIP3   OH230859   0.394   4.804   4.875  0.4587  0.3364 -0.1939
 3123TIP3    H130860   0.379   4.729   4.817  0.4164  0.1223  0.0926
 3123TIP3    H230861   0.384   4.880   4.818 -2.1535  0.2482  0.0122
 3124TIP3   OH230862   2.200   4.437  15.143 -0.1907 -0.2730  0.1371
 3124TIP3    H130863   2.177   4.345  15.130  1.6321 -0.7365 -0.0794
 3124TIP3    H230864   2.259   4.437  15.219  0.6072  0.5690 -0.4548
 3125TIP3   OH230865   5.786   2.847  12.849 -0.3479  0.6379 -0.4481
 3125TIP3    H130866   5.850   2.815  12.912  0.0661  2.1570 -0.0690
 3125TIP3    H230867   5.763   2.770  12.797  1.0963 -0.1171 -0.0038
 3126TIP3   OH230868   4.228   0.949   1.268  0.6932 -0.2565 -0.1005
 3126TIP3    H130869   4.195   0.870   1.225  1.7358 -1.4831  1.2606
 3126TIP3    H230870   4.195   0.942   1.358  1.4458  0.4587  0.2402
 3127TIP3   OH230871   1.518   5.234  13.260 -0.3595  0.4972 -0.1083
 3127TIP3    H130872   1.469   5.263  13.183 -1.5917  0.5982  0.6779
 3127TIP3    H230873   1.590   5.296  13.268 -0.5861  0.8560 -0.8188
 3128TIP3   OH230874   3.897   3.017   4.189  0.0557 -0.6892  0.2026
 3128TIP3    H130875   3.961   3.000   4.120 -1.2424  1.0567 -1.5340
 3128TIP3    H230876   3.933   3.091   4.238  0.4281 -1.2060  0.7400
 3129TIP3   OH230877   5.886   5.296  16.831 -0.0509  0.0269  0.1693
 3129TIP3    H130878   5.842   5.211  16.839  0.3278 -0.0889  1.0150
 3129TIP3    H230879   5.970   5.284  16.874 -0.1890  0.9725  0.7271
 3130TIP3   OH230880   5.766   1.156   5.288  0.4899 -0.2487 -0.0472
 3130TIP3    H130881   5.700   1.174   5.222  1.1516 -0.2491 -0.7304
 3130TIP3    H230882   5.717   1.124   5.363 -0.3575  0.5917 -0.2161
 3131TIP3   OH230883   1.141   1.708   2.807 -0.8778 -0.1092  0.2045
 3131TIP3    H130884   1.182   1.785   2.847  0.4794  0.3171 -1.8380
 3131TIP3    H230885   1.195   1.635   2.835  0.2186  0.2187 -0.9569
 3132TIP3   OH230886   2.989   0.578   1.666 -0.7877  0.2267 -0.3358
 3132TIP3    H130887   3.064   0.633   1.691 -0.9206 -0.5030  1.8917
 3132TIP3    H230888   3.028   0.505   1.619 -0.0544 -0.1521  0.8045
 3133TIP3   OH230889   3.126   2.788   5.684  0.1064 -0.0326 -0.0960
 3133TIP3    H130890   3.134   2.795   5.589  0.2042 -1.2641 -0.1941
 3133TIP3    H230891   3.208   2.822   5.718  1.6397 -2.8663 -0.6415
 3134TIP3   OH230892   4.189   3.570   4.925  0.2030 -0.2989  0.1424
 3134TIP3    H130893   4.133   3.495   4.945 -1.1081  1.0858  2.0622
 3134TIP3    H230894   4.128   3.641   4.905  1.2742  0.9035  0.9330
 3135TIP3   OH230895   1.290   1.592   1.715 -0.9702  0.1696 -0.0655
 3135TIP3    H130896   1.360   1.650   1.743 -0.1055 -1.5427  1.5578
 3135TIP3    H230897   1.293   1.594   1.619  1.4325 -0.0044 -0.0308
 3136TIP3   OH230898   1.657   0.315   0.372  0.1277  0.6708 -0.1702
 3136TIP3    H130899   1.571   0.336   0.337  0.3286 -1.7183 -2.4127
 3136TIP3    H230900   1.638   0.258   0.447 -0.2351  0.9647 -0.0329
 3137TIP3   OH230901   2.567   1.210   6.495  0.2416  0.7633  0.0068
 3137TIP3    H130902   2.595   1.285   6.547  1.8936  0.6382 -0.6453
 3137TIP3    H230903   2.513   1.158   6.555  0.8995  1.3505  1.1342
 3138TIP3   OH230904   1.101   6.765   0.047  0.5244  0.3968 -0.3263
 3138TIP3    H130905   1.182   6.714   0.058  0.5702  0.5333 -0.0356
 3138TIP3    H230906   1.069   6.780   0.136  1.5298  2.4933 -0.2544
 3139TIP3   OH230907   3.688   5.499  13.217  0.6505  0.4193  0.3270
 3139TIP3    H130908   3.665   5.591  13.223  0.8842  0.6690 -1.7930
 3139TIP3    H230909   3.627   5.455  13.277  0.0926  1.8565  0.8619
 3140TIP3   OH230910   2.791   4.107   3.709  0.5958  0.5030 -0.1648
 3140TIP3    H130911   2.766   4.104   3.617  2.4339  2.7240 -0.8179
 3140TIP3    H230912   2.735   4.041   3.751 -0.9704  0.1025 -2.6676
 3141TIP3   OH230913   0.762   3.828  16.732 -0.1490  0.0562  0.2076
 3141TIP3    H130914   0.757   3.736  16.758 -0.8933 -0.1765 -0.7173
 3141TIP3    H230915   0.676   3.847  16.695  0.0985  1.0486  0.1315
 3142TIP3   OH230916   3.811   2.641  17.322  0.5192 -0.0527  0.6138
 3142TIP3    H130917   3.819   2.558  17.274 -0.9737 -0.3195  0.7592
 3142TIP3    H230918   3.896   2.683  17.312  0.1735  0.1303 -2.6901
 3143TIP3   OH230919   5.116   4.522   6.429  0.1280 -0.0819 -0.2084
 3143TIP3    H130920   5.209   4.512   6.449  0.5797  1.6670 -1.2232
 3143TIP3    H230921   5.083   4.579   6.499  0.0757  0.1639 -0.4299
 3144TIP3   OH230922   4.934   2.460   2.007  0.4215  0.1627  0.0948
 3144TIP3    H130923   4.916   2.366   1.997  0.1244  0.3096 -0.8759
 3144TIP3    H230924   4.894   2.483   2.090  1.0415 -0.6976  0.6571
 3145TIP3   OH230925   4.603   2.793  11.410  0.6853  0.3533  0.2858
 3145TIP3    H130926   4.603   2.889  11.402 -1.1785  0.2497 -2.4680
 3145TIP3    H230927   4.537   2.764  11.347  1.9099 -2.8251  0.2833
 3146TIP3   OH230928   4.950   1.128   6.539 -0.6415 -0.1435 -0.0363
 3146TIP3    H130929   4.906   1.212   6.527  1.9158  1.2034 -0.6722
 3146TIP3    H230930   5.007   1.141   6.615 -0.4186 -1.4278  0.0440
 3147TIP3   OH230931   1.790   5.953   4.131 -0.5501  0.1380 -0.2180
 3147TIP3    H130932   1.748   5.947   4.045  0.6437  0.8773 -0.8780
 3147TIP3    H230933   1.722   5.988   4.188 -1.2768 -0.0782 -0.9195
 3148TIP3   OH230934   0.966   0.930  14.177 -0.9074 -0.1567 -0.1611
 3148TIP3    H130935   0.946   0.879  14.256 -0.6873  1.9457  1.3443
 3148TIP3    H230936   1.061   0.924  14.168 -0.6461  1.3730  1.0999
 3149TIP3   OH230937   3.981   3.724   3.670 -0.1724  0.3426 -0.3031
 3149TIP3    H130938   3.908   3.726   3.608  0.7355  0.1205 -1.4240
 3149TIP3    H230939   3.940   3.718   3.756 -1.4593 -0.9863 -0.9674
 3150TIP3   OH230940   1.459   2.108  11.096  0.0910  0.1330  0.4766
 3150TIP3    H130941   1.486   2.017  11.081 -0.1080  0.2664 -0.8728
 3150TIP3    H230942   1.511   2.137  11.171 -1.1179 -1.6225  2.0970
 3151TIP3   OH230943   1.982   5.209   6.662 -0.6050  0.3272  0.8461
 3151TIP3    H130944   1.894   5.174   6.653 -0.6012  0.9049 -3.0594
 3151TIP3    H230945   2.031   5.140   6.708 -2.0287 -2.1652 -1.1460
 3152TIP3   OH230946   1.711   5.654   4.975 -0.5835  0.2874  0.2771
 3152TIP3    H130947   1.798   5.652   4.937 -0.2526  0.4079  1.0034
 3152TIP3    H230948   1.711   5.732   5.031 -0.2677 -1.0732  2.2943
 3153TIP3   OH230949   2.835   3.244   1.876  0.7222  0.1378  0.0097
 3153TIP3    H130950   2.745   3.241   1.845  0.1685 -0.8020  1.5809
 3153TIP3    H230951   2.828   3.232   1.971  2.6066 -2.4585 -0.0805
 3154TIP3   OH230952   1.986   0.177   1.755 -0.2992 -0.2797 -0.1484
 3154TIP3    H130953   1.933   0.253   1.778 -0.1119  0.1774 -1.1952
 3154TIP3    H230954   1.935   0.102   1.786 -1.6728  0.1343 -1.3046
 3155TIP3   OH230955   6.432   6.403  12.607  0.1119 -0.1818  0.6714
 3155TIP3    H130956   6.424   6.338  12.677  0.7673 -1.3054 -0.2677
 3155TIP3    H230957   6.505   6.372  12.553  0.6697  1.5294  0.3810
 3156TIP3   OH230958   2.460   0.227  16.050  0.3436 -0.1028  0.3888
 3156TIP3    H130959   2.401   0.243  15.976  1.2513  0.3469 -0.2574
 3156TIP3    H230960   2.416   0.158  16.100  0.6007 -1.8495 -1.6330
 3157TIP3   OH230961   1.967   5.557   4.888  0.4291  0.8906 -0.3646
 3157TIP3    H130962   1.965   5.514   4.802 -0.4759 -0.2882  0.2180
 3157TIP3    H230963   1.962   5.485   4.951 -1.3141  1.8320  0.6558
 3158TIP3   OH230964   2.187   6.045   5.215  0.4707  0.2042 -0.4913
 3158TIP3    H130965   2.132   5.985   5.164  1.2256  1.2005 -2.5976
 3158TIP3    H230966   2.141   6.128   5.212  0.0904  0.1103  1.2981
 3159TIP3   OH230967   3.740   4.348   0.621  0.8235 -0.8007  0.5750
 3159TIP3    H130968   3.652   4.343   0.659  0.7582  1.1029  0.7924
 3159TIP3    H230969   3.799   4.343   0.697  0.8413 -0.7351  0.5659
 3160TIP3   OH230970   5.732   1.906   2.598  0.4012 -0.3260 -0.1444
 3160TIP3    H130971   5.732   2.000   2.612  1.4445 -0.1557 -1.1309
 3160TIP3    H230972   5.687   1.894   2.515 -2.4611 -1.0048  1.3640
 3161TIP3   OH230973   3.721   5.550  11.099 -0.1885 -0.4446  0.4574
 3161TIP3    H130974   3.792   5.572  11.039 -0.4374 -2.5594 -0.7258
 3161TIP3    H230975   3.641   5.574  11.052 -0.3206  1.0404  1.3893
 3162TIP3   OH230976   1.738   1.083  16.851 -0.9742  0.0087  0.2323
 3162TIP3    H130977   1.647   1.056  16.863 -1.1848  0.6790  0.1589
 3162TIP3    H230978   1.780   1.008  16.808 -1.4328 -0.3927  0.4839
 3163TIP3   OH230979   6.231   5.697   1.604 -0.2500  0.4106  0.2139
 3163TIP3    H130980   6.147   5.740   1.619 -0.6242 -0.3769  0.4349
 3163TIP3    H230981   6.272   5.748   1.534 -0.8441  0.9009  0.2159
 3164TIP3   OH230982   5.393   6.724   5.491 -0.0114 -0.1402 -0.1239
 3164TIP3    H130983   5.367   6.816   5.486  1.3091  0.2122 -1.1271
 3164TIP3    H230984   5.445   6.710   5.411  0.5820 -1.5022  0.4780
 3165TIP3   OH230985   5.844   4.512  13.311 -0.6306  0.1360 -0.0997
 3165TIP3    H130986   5.794   4.561  13.246  0.4182 -1.3236 -2.1440
 3165TIP3    H230987   5.880   4.578  13.369 -1.8596  1.4906 -0.8051
 3166TIP3   OH230988   5.710   3.770   3.553 -0.5962 -0.0351  0.1632
 3166TIP3    H130989   5.746   3.808   3.633  3.1505  0.4178 -1.5117
 3166TIP3    H230990   5.623   3.810   3.544  0.2022  2.4607  2.2739
 3167TIP3   OH230991   3.474   1.036  14.573 -0.2227 -0.3652  0.2726
 3167TIP3    H130992   3.509   1.038  14.662 -1.4617 -0.0968  0.7857
 3167TIP3    H230993   3.455   1.128  14.553  0.8033 -0.3242 -0.6046
 3168TIP3   OH230994   5.818   5.962  14.196  0.1637  0.6224 -0.3476
 3168TIP3    H130995   5.832   5.955  14.290 -0.7741 -2.0320 -0.3408
 3168TIP3    H230996   5.727   5.936  14.183  0.8521 -1.0831 -2.1608
 3169TIP3   OH230997   6.335   0.661  12.396 -0.1058  0.2307  0.0478
 3169TIP3    H130998   6.245   0.692  12.408 -0.4823 -0.8491  0.1335
 3169TIP3    H230999   6.389   0.739  12.412 -1.0616  1.1932 -1.1643
 3170TIP3   OH231000   4.466   5.892  10.774 -0.9348  0.2350  0.7595
 3170TIP3    H131001   4.546   5.872  10.823 -0.4341  2.0669  0.7823
 3170TIP3    H231002   4.492   5.960  10.712 -2.0626 -0.5041 -0.5872
 3171TIP3   OH231003   2.436   3.135  14.237 -0.5920 -0.3762  0.1213
 3171TIP3    H131004   2.433   3.063  14.300  1.8764 -0.3065  0.4395
 3171TIP3    H231005   2.413   3.212  14.288 -0.3963 -0.5680  0.5063
 3172TIP3   OH231006   0.720   2.207  14.770 -0.0347  0.5722 -0.0268
 3172TIP3    H131007   0.626   2.193  14.773  0.1168 -0.3448  1.0436
 3172TIP3    H231008   0.756   2.148  14.837  1.1978  1.6997  0.3553
 3173TIP3   OH231009   6.479   5.186  10.820  0.3999  0.6845  0.2009
 3173TIP3    H131010   6.503   5.114  10.762 -0.2324  1.5502 -1.2000
 3173TIP3    H231011   6.429   5.145  10.890 -0.0900 -0.2383 -0.6617
 3174TIP3   OH231012   6.050   3.779   1.229  0.1166 -0.1305 -0.2739
 3174TIP3    H131013   6.106   3.712   1.189 -0.8488 -0.1366 -1.7141
 3174TIP3    H231014   6.007   3.822   1.154 -0.9006  0.6492  0.7185
 3175TIP3   OH231015   5.166   5.329   5.499  0.3439  0.5793  0.0759
 3175TIP3    H131016   5.256   5.299   5.493 -0.2007 -0.8792 -2.8545
 3175TIP3    H231017   5.155   5.357   5.590  3.0124 -1.5055  1.1577
 3176TIP3   OH231018   1.728   0.743  12.427 -0.8339  0.2840 -0.0771
 3176TIP3    H131019   1.636   0.720  12.412 -1.2211  1.6823 -0.0129
 3176TIP3    H231020   1.774   0.712  12.349 -1.4877  0.2207 -0.4402
 3177TIP3   OH231021   4.408   0.615   0.486  0.0031  0.1827 -0.2407
 3177TIP3    H131022   4.398   0.696   0.435 -2.6021 -0.2171 -0.5236
 3177TIP3    H231023   4.336   0.617   0.549  1.4546 -0.7171  1.5529
 3178TIP3   OH231024   2.822   3.636  14.722 -0.6578  0.9641  0.1606
 3178TIP3    H131025   2.815   3.571  14.653 -1.5960  2.2327 -1.0008
 3178TIP3    H231026   2.749   3.617  14.781 -2.3349  2.2647 -1.3864
 3179TIP3   OH231027   2.634   3.551   2.804 -0.0270  0.4937  0.4357
 3179TIP3    H131028   2.676   3.595   2.731  3.3776 -2.3881  0.3953
 3179TIP3    H231029   2.567   3.495   2.763  0.0089  0.8680 -0.1429
 3180TIP3   OH231030   3.952   4.219  14.810  0.2613 -0.5871 -0.0328
 3180TIP3    H131031   3.929   4.127  14.797  0.0358 -0.7326  1.2301
 3180TIP3    H231032   3.948   4.231  14.905 -0.7491  0.9976 -0.2452
 3181TIP3   OH231033   5.377   4.406  11.811 -0.4448  0.1984  0.5805
 3181TIP3    H131034   5.427   4.449  11.742  0.4314  1.0365  1.7033
 3181TIP3    H231035   5.326   4.339  11.765  0.5882  0.3023 -0.7897
 3182TIP3   OH231036   1.954   0.735  12.896  0.1905  0.5252 -0.0277
 3182TIP3    H131037   1.935   0.641  12.902  1.0698  0.1734 -1.9455
 3182TIP3    H231038   2.049   0.739  12.883  0.1325  1.6710 -0.1960
 3183TIP3   OH231039   3.890   6.163   2.030  0.6081 -0.8341 -0.3018
 3183TIP3    H131040   3.871   6.171   1.936  1.6621  0.5447 -0.4280
 3183TIP3    H231041   3.951   6.234   2.048  0.7161 -1.3147  1.3674
 3184TIP3   OH231042   3.133   4.523   2.823  0.4848 -0.1403 -0.3194
 3184TIP3    H131043   3.043   4.544   2.850 -0.4793  1.3257 -3.9855
 3184TIP3    H231044   3.138   4.428   2.827 -1.0442 -0.2173  0.5406
 3185TIP3   OH231045   5.524   6.588  12.749 -0.1298 -0.1281 -0.2587
 3185TIP3    H131046   5.446   6.623  12.794 -0.0827  2.4920 -2.0100
 3185TIP3    H231047   5.526   6.495  12.774 -1.9512  0.4223  2.4101
 3186TIP3   OH231048   2.734   5.217   1.160 -0.1866 -0.7744 -0.0383
 3186TIP3    H131049   2.815   5.211   1.211 -0.2279 -1.7246 -0.0610
 3186TIP3    H231050   2.675   5.270   1.214  0.5781  0.2998 -0.2175
 3187TIP3   OH231051   6.636   4.524   5.900 -0.1832 -0.1362  0.1475
 3187TIP3    H131052   6.728   4.544   5.880  0.6841 -4.2871 -0.9938
 3187TIP3    H231053   6.599   4.496   5.816 -1.6999 -0.9693  1.0591
 3188TIP3   OH231054   4.550   1.717   6.624 -0.5588  0.1673  0.3325
 3188TIP3    H131055   4.547   1.624   6.644  1.4001 -0.5214 -2.1391
 3188TIP3    H231056   4.459   1.740   6.603 -1.1109 -1.1000  1.2507
 3189TIP3   OH231057   3.400   2.269  12.683  0.2939 -0.0558 -0.3664
 3189TIP3    H131058   3.346   2.223  12.748  1.6837 -1.0512  0.1333
 3189TIP3    H231059   3.364   2.241  12.599 -0.7943  0.3421 -0.0520
 3190TIP3   OH231060   3.845   6.261  16.632 -0.0714  0.1559 -0.1090
 3190TIP3    H131061   3.793   6.327  16.587 -0.2523 -0.1286 -0.3207
 3190TIP3    H231062   3.840   6.284  16.724 -1.5419 -0.5437  0.0064
 3191TIP3   OH231063   0.460   4.197  14.144 -0.0910  0.9363  0.1120
 3191TIP3    H131064   0.405   4.240  14.209 -1.7433 -0.4756 -0.2937
 3191TIP3    H231065   0.455   4.254  14.068 -0.7547  0.9802  0.1801
 3192TIP3   OH231066   4.037   5.425  14.496  0.1543  0.3888 -0.7034
 3192TIP3    H131067   4.103   5.374  14.448  0.4020 -0.0169  0.0545
 3192TIP3    H231068   3.984   5.466  14.427  0.3270 -0.4126 -1.3311
 3193TIP3   OH231069   6.179   0.697   2.430  0.3193 -0.0419  0.2113
 3193TIP3    H131070   6.149   0.786   2.449 -1.4666  0.1109 -2.5867
 3193TIP3    H231071   6.205   0.661   2.514  3.3451  3.8409  1.1863
 3194TIP3   OH231072   6.441   0.948  16.652  0.0365  0.4246  0.2461
 3194TIP3    H131073   6.448   0.989  16.566  0.3854 -1.5026 -0.7177
 3194TIP3    H231074   6.513   0.985  16.703 -0.5220  2.0170 -0.0764
 3195TIP3   OH231075   3.389   4.658   6.662  0.2105  0.4085 -0.0268
 3195TIP3    H131076   3.354   4.594   6.600  0.3302  1.7962 -1.5676
 3195TIP3    H231077   3.445   4.714   6.610  0.9779  1.1161  1.5177
 3196TIP3   OH231078   0.965   2.945  14.829 -0.3776 -0.4198 -0.4307
 3196TIP3    H131079   0.875   2.963  14.857 -0.3090 -1.8071  0.7514
 3196TIP3    H231080   1.008   2.913  14.907  1.2974  0.6367 -0.8754
 3197TIP3   OH231081   3.360   1.432   1.587  0.0542 -0.5430  0.0629
 3197TIP3    H131082   3.379   1.525   1.597  0.6416 -0.6178 -0.3362
 3197TIP3    H231083   3.360   1.398   1.676  1.0426 -0.3902  0.1329
 3198TIP3   OH231084   4.309   5.854   3.639  0.4108 -0.2867 -0.5484
 3198TIP3    H131085   4.383   5.823   3.586  1.6556  0.1825  0.8510
 3198TIP3    H231086   4.253   5.777   3.648  1.4227 -1.0400 -0.5073
 3199TIP3   OH231087   5.825   5.633   0.810 -0.7141  0.1068  0.0221
 3199TIP3    H131088   5.742   5.586   0.809 -0.8361  0.2367  1.4555
 3199TIP3    H231089   5.805   5.714   0.858 -0.5939  1.8320 -2.6149
 3200TIP3   OH231090   5.256   5.393  11.025  0.0257 -0.4099 -0.1222
 3200TIP3    H131091   5.240   5.319  10.966 -2.5597  0.4133 -0.5575
 3200TIP3    H231092   5.322   5.445  10.981 -0.2117 -0.9860 -1.1902
 3201TIP3   OH231093   6.421   1.209  14.839  0.4141 -0.0632  0.2715
 3201TIP3    H131094   6.457   1.297  14.836 -1.9792  0.9556 -1.6071
 3201TIP3    H231095   6.329   1.219  14.815 -0.1854 -2.9794  0.8844
 3202TIP3   OH231096   2.386   3.885   5.688 -0.5908  0.3879 -0.3175
 3202TIP3    H131097   2.339   3.963   5.718  1.6533  1.3928  0.8908
 3202TIP3    H231098   2.336   3.854   5.613 -3.6269  0.7932  1.3561
 3203TIP3   OH231099   0.545   2.163   2.043 -0.2374  0.0209 -0.3754
 3203TIP3    H131100   0.552   2.256   2.019  0.8839  1.0442  3.2758
 3203TIP3    H231101   0.627   2.124   2.013  1.7131  1.5437  2.5121
 3204TIP3   OH231102   3.563   3.810  13.163  0.4068  0.4303 -0.1027
 3204TIP3    H131103   3.606   3.803  13.248 -1.0659 -1.6938  0.5400
 3204TIP3    H231104   3.533   3.901  13.160  0.6313  0.6029  1.5842
 3205TIP3   OH231105   3.840   4.990   1.822 -0.7170 -0.4367 -0.7221
 3205TIP3    H131106   3.894   5.069   1.811 -0.4597 -0.2386  1.6008
 3205TIP3    H231107   3.777   4.994   1.749 -0.2282  1.5044 -1.0888
 3206TIP3   OH231108   2.142   1.232  15.403  0.0435  0.3032  0.0741
 3206TIP3    H131109   2.236   1.231  15.388  0.3030 -1.1094  1.5053
 3206TIP3    H231110   2.126   1.308  15.459  0.4055  0.2642  0.2292
 3207TIP3   OH231111   0.216   4.031   3.627  0.0093 -0.0914 -0.6247
 3207TIP3    H131112   0.307   4.001   3.637  0.9565  2.0243 -1.9527
 3207TIP3    H231113   0.220   4.092   3.553 -2.6390 -0.3887 -1.0990
 3208TIP3   OH231114   1.408   2.763  15.910 -0.2136 -0.4220  0.0169
 3208TIP3    H131115   1.413   2.856  15.932 -0.7511 -0.8241  2.0262
 3208TIP3    H231116   1.317   2.748  15.885 -0.3345 -0.5609  0.5255
 3209TIP3   OH231117   1.761   5.976   2.101 -0.5413 -0.1971  0.4658
 3209TIP3    H131118   1.799   5.924   2.030 -0.1952 -1.0220  1.2303
 3209TIP3    H231119   1.796   6.064   2.088  1.7829 -0.9485  1.2186
 3210TIP3   OH231120   1.622   3.909  12.701 -0.0215 -0.3192  0.4924
 3210TIP3    H131121   1.655   3.979  12.756 -0.3674 -0.9683  1.5649
 3210TIP3    H231122   1.683   3.904  12.628  0.7870  0.1743  1.1209
 3211TIP3   OH231123   4.032   6.068  13.312  0.4972 -0.1560 -0.0657
 3211TIP3    H131124   3.947   6.100  13.342 -0.4027 -0.9048 -1.7456
 3211TIP3    H231125   4.089   6.079  13.389 -0.4358  2.7354  0.3499
 3212TIP3   OH231126   2.083   2.823   1.738  0.2380 -0.5880  0.1309
 3212TIP3    H131127   2.150   2.754   1.734  1.1995  0.3571 -1.1792
 3212TIP3    H231128   2.099   2.868   1.821 -1.6896 -3.0939  2.0215
 3213TIP3   OH231129   5.273   5.557   2.449  0.5941  0.1716  0.3218
 3213TIP3    H131130   5.317   5.633   2.411  1.7718 -0.5797  0.1283
 3213TIP3    H231131   5.245   5.586   2.535 -3.2563  2.3317 -1.4070
 3214TIP3   OH231132   5.738   0.931   3.737 -0.1704 -0.2346  0.6808
 3214TIP3    H131133   5.828   0.964   3.732 -0.0264 -0.7963 -0.9507
 3214TIP3    H231134   5.685   1.003   3.703  0.0364 -1.1470 -1.7620
 3215TIP3   OH231135   0.364   2.069   0.377  0.4196  0.0288  0.8517
 3215TIP3    H131136   0.399   2.135   0.317  0.1253  0.4566  1.1498
 3215TIP3    H231137   0.344   1.994   0.320  1.5938 -0.1423  0.6403
 3216TIP3   OH231138   1.934   3.363  15.039 -0.2274  0.6370  0.3605
 3216TIP3    H131139   1.853   3.319  15.015 -0.5375  1.2045  0.3418
 3216TIP3    H231140   1.999   3.330  14.977 -0.3132 -0.2143  0.7078
 3217TIP3   OH231141   4.935   3.589   2.096 -0.8505 -0.0494  0.1843
 3217TIP3    H131142   4.900   3.503   2.075  0.6406 -0.5654 -0.3783
 3217TIP3    H231143   4.941   3.591   2.191  1.5723 -1.6892  0.1644
 3218TIP3   OH231144   1.596   0.893   0.011 -0.6418  0.3257 -0.1079
 3218TIP3    H131145   1.643   0.963  -0.034 -0.6521  0.1305 -0.4263
 3218TIP3    H231146   1.509   0.929   0.028 -0.2513  0.8435  0.8688
 3219TIP3   OH231147   2.122   3.802  14.736  0.2294 -0.3126  0.0073
 3219TIP3    H131148   2.077   3.886  14.740  0.5171 -0.1793  0.5690
 3219TIP3    H231149   2.158   3.798  14.647  1.1174  0.6430  0.3073
 3220TIP3   OH231150   6.204   3.754  12.037 -0.1957 -0.3631  0.1033
 3220TIP3    H131151   6.297   3.748  12.014 -0.3651  0.0228 -0.7326
 3220TIP3    H231152   6.185   3.674  12.084  0.8379  0.0538  1.2907
 3221TIP3   OH231153   2.341   0.976   1.293  0.5582 -0.1835  0.1660
 3221TIP3    H131154   2.351   0.927   1.374  2.8777  1.3289  0.8978
 3221TIP3    H231155   2.402   1.050   1.301 -1.6678  2.0310 -1.4605
 3222TIP3   OH231156   5.415   5.150   0.464 -0.1182 -0.2169 -0.1438
 3222TIP3    H131157   5.397   5.214   0.395 -2.3043  0.6725  1.1471
 3222TIP3    H231158   5.394   5.065   0.424  0.8105  0.0367 -1.2219
 3223TIP3   OH231159   4.852   5.873   3.722 -0.1526  0.3453  0.1097
 3223TIP3    H131160   4.840   5.855   3.629 -0.1769  1.0046 -0.0181
 3223TIP3    H231161   4.834   5.966   3.731 -0.0221  0.3123  0.7548
 3224TIP3   OH231162   1.020   5.192  15.199  0.1853  0.2390 -0.1720
 3224TIP3    H131163   0.940   5.196  15.252 -0.4505  1.8491 -1.1870
 3224TIP3    H231164   1.089   5.225  15.256 -0.2001  0.4732  0.1628
 3225TIP3   OH231165   1.575   5.118  15.542 -0.5756  0.1291 -0.5315
 3225TIP3    H131166   1.640   5.151  15.604 -1.0928 -1.1318  0.7093
 3225TIP3    H231167   1.608   5.146  15.456  1.2278  0.1216  0.1269
 3226TIP3   OH231168   0.264   1.950   1.164 -0.4582 -0.4933  0.3195
 3226TIP3    H131169   0.300   2.038   1.153 -1.0055 -0.4160 -1.0024
 3226TIP3    H231170   0.328   1.893   1.123 -0.8406 -0.5401 -0.2390
 3227TIP3   OH231171   5.454   1.097  16.800 -0.3438  0.1540 -0.0050
 3227TIP3    H131172   5.408   1.045  16.735  0.6128  0.9138 -1.3375
 3227TIP3    H231173   5.546   1.073  16.789 -0.0059  1.3672  0.0517
 3228TIP3   OH231174   2.097   0.244   6.032 -1.0087 -0.3795 -0.8869
 3228TIP3    H131175   2.145   0.255   6.113  0.9462 -2.4443 -1.6542
 3228TIP3    H231176   2.056   0.329   6.016  0.4963  0.7750  1.0050
 3229TIP3   OH231177   4.613   1.872  15.611 -0.0731  0.3634  0.1595
 3229TIP3    H131178   4.625   1.931  15.686  1.9818 -0.3542  0.4725
 3229TIP3    H231179   4.555   1.803  15.644 -0.1236  0.6730  0.7372
 3230TIP3   OH231180   5.713   0.822   5.423  0.0292 -0.5352  0.0826
 3230TIP3    H131181   5.748   0.882   5.357  0.3024  0.2339  0.8993
 3230TIP3    H231182   5.629   0.861   5.448  0.2211 -0.4787  0.6408
 3231TIP3   OH231183   4.338   2.992   4.769 -0.4157  0.4796  0.1871
 3231TIP3    H131184   4.431   3.013   4.755  0.5262 -1.9508  2.0705
 3231TIP3    H231185   4.306   2.970   4.682  0.7622  1.3545 -0.5090
 3232TIP3   OH231186   6.245   2.870   3.673  0.3723 -0.1165 -0.2174
 3232TIP3    H131187   6.275   2.921   3.598 -0.7032  0.6308 -0.1527
 3232TIP3    H231188   6.204   2.793   3.635  0.4885 -0.1064 -0.3661
 3233TIP3   OH231189   4.268   4.979   6.712  0.0896 -0.5216 -0.4213
 3233TIP3    H131190   4.301   4.912   6.652  2.7581  0.1349  0.1412
 3233TIP3    H231191   4.297   4.950   6.798 -2.3223 -0.6527  0.4218
 3234TIP3   OH231192   4.738   3.038   2.013 -0.5291 -0.6119  0.0978
 3234TIP3    H131193   4.773   3.035   1.924  0.8762 -1.6525  0.6328
 3234TIP3    H231194   4.646   3.015   2.003 -0.3506 -0.9005 -1.0800
 3235TIP3   OH231195   2.644   3.465  16.470 -0.2484  0.2871 -0.0566
 3235TIP3    H131196   2.689   3.397  16.522  0.0840  1.6332  1.5144
 3235TIP3    H231197   2.571   3.420  16.430  0.0620 -1.0532  0.8112
 3236TIP3   OH231198   0.037   4.330   5.427  0.2947  0.1309 -0.4237
 3236TIP3    H131199  -0.050   4.298   5.450 -0.5265  2.2691 -0.3905
 3236TIP3    H231200   0.077   4.353   5.511  1.2469 -1.5710 -0.3637
 3237TIP3   OH231201   4.517   2.225   4.452  0.0297  0.0493 -0.2819
 3237TIP3    H131202   4.496   2.318   4.440 -0.3268  0.0576  0.3402
 3237TIP3    H231203   4.584   2.224   4.520 -2.2400 -0.2785  2.1412
 3238TIP3   OH231204   4.755   1.313   1.126  0.1613 -0.4303 -0.1418
 3238TIP3    H131205   4.777   1.274   1.042 -1.9348 -0.4307 -0.7470
 3238TIP3    H231206   4.748   1.407   1.108 -1.9957 -0.6044 -0.4239
 3239TIP3   OH231207   4.456   4.533   0.675 -0.1586 -0.0897 -0.1312
 3239TIP3    H131208   4.418   4.474   0.609 -0.7665  0.2275 -0.0669
 3239TIP3    H231209   4.436   4.621   0.643  0.1358  0.0744  0.1339
 3240TIP3   OH231210   4.234   0.766  12.298  0.3262 -0.2775 -0.1394
 3240TIP3    H131211   4.236   0.703  12.370  1.5431  0.2934  0.3584
 3240TIP3    H231212   4.319   0.756  12.255  0.9964  1.7032  0.5907
 3241TIP3   OH231213   4.722   3.284  15.711 -0.2293 -0.6467 -0.2336
 3241TIP3    H131214   4.695   3.233  15.635  0.0295 -1.3255  0.1180
 3241TIP3    H231215   4.745   3.369  15.676 -0.9201 -0.6815 -0.8009
 3242TIP3   OH231216   0.983   5.355   4.420  0.1210  0.1188 -0.5847
 3242TIP3    H131217   0.963   5.295   4.348 -0.9113 -0.8526  0.4772
 3242TIP3    H231218   1.040   5.304   4.478  0.1433  0.5595 -0.2141
 3243TIP3   OH231219   3.315   3.055  13.417 -0.2071 -0.6188 -0.0125
 3243TIP3    H131220   3.346   3.084  13.332  1.7193 -0.8165  0.5788
 3243TIP3    H231221   3.271   2.971  13.400 -1.6465  0.2976 -1.0515
 3244TIP3   OH231222   3.465   4.217  14.761  0.7704 -0.0272 -0.3992
 3244TIP3    H131223   3.474   4.308  14.788  0.6117  0.0027 -0.4437
 3244TIP3    H231224   3.376   4.193  14.788  1.6725 -0.9601  1.9881
 3245TIP3   OH231225   3.914   2.645   5.914 -0.1890  0.1195  0.3868
 3245TIP3    H131226   3.891   2.641   5.821  0.3219  0.3199  0.2490
 3245TIP3    H231227   3.830   2.660   5.959 -0.1767  2.4468 -0.2274
 3246TIP3   OH231228   5.889   0.353  14.899  0.6430 -0.0438  0.0991
 3246TIP3    H131229   5.875   0.300  14.821 -0.8792  0.3187  0.0959
 3246TIP3    H231230   5.859   0.440  14.875  2.2422  0.6302  0.4064
 3247TIP3   OH231231   3.221   3.550   0.793 -0.9710 -0.0722  0.4020
 3247TIP3    H131232   3.280   3.603   0.847 -0.2779  2.3517 -2.4565
 3247TIP3    H231233   3.269   3.468   0.778  0.9362  1.0970 -0.2978
 3248TIP3   OH231234   4.663   4.987  15.743 -0.3048 -0.1031  0.0983
 3248TIP3    H131235   4.688   5.067  15.696 -1.2801  0.8034  1.0474
 3248TIP3    H231236   4.734   4.973  15.806 -0.1299  0.0236 -0.0692
 3249TIP3   OH231237   1.982   2.647   3.921  0.4505  0.1640 -0.3032
 3249TIP3    H131238   2.051   2.615   3.862 -0.5780 -1.9894 -0.4442
 3249TIP3    H231239   1.931   2.708   3.867  0.6035 -0.3802 -1.0841
 3250TIP3   OH231240   5.516   4.446  16.853  0.2880  0.3878 -0.3743
 3250TIP3    H131241   5.490   4.364  16.895  0.9863  0.3072 -0.0888
 3250TIP3    H231242   5.602   4.427  16.815  0.2104  0.8270 -0.7767
 3251TIP3   OH231243   6.662   4.406  17.233  0.6192  0.0077  0.0697
 3251TIP3    H131244   6.720   4.338  17.199  2.4165  1.2634  0.4682
 3251TIP3    H231245   6.574   4.373  17.215  1.3271 -3.1118  1.6036
 3252TIP3   OH231246   1.336   6.366   0.286 -0.1859 -0.1018 -0.8945
 3252TIP3    H131247   1.390   6.350   0.363  1.8250 -0.1275 -2.2342
 3252TIP3    H231248   1.312   6.279   0.255 -1.8852 -0.0825  0.2319
 3253TIP3   OH231249   0.908   5.704   1.149  0.8870 -0.0336 -0.0605
 3253TIP3    H131250   0.975   5.703   1.081  0.4108  1.7318 -0.5962
 3253TIP3    H231251   0.826   5.689   1.101  0.6049  0.7052  0.1807
 3254TIP3   OH231252   0.039   1.985  14.080 -0.6712  0.1414  0.2562
 3254TIP3    H131253   0.113   1.926  14.064 -1.9974 -1.2555 -1.2630
 3254TIP3    H231254   0.079   2.068  14.103  1.3070 -1.4389  3.1054
 3255TIP3   OH231255   5.766   4.998   3.289  0.1355  0.1096  0.0205
 3255TIP3    H131256   5.831   5.033   3.228 -0.8931  0.6509 -0.8113
 3255TIP3    H231257   5.748   4.910   3.256  0.0254  0.1787 -0.1080
 3256TIP3   OH231258   5.328   4.341  12.385 -0.0714  0.2442 -0.6176
 3256TIP3    H131259   5.234   4.353  12.396 -0.1536 -0.7849 -0.0691
 3256TIP3    H231260   5.336   4.259  12.337  0.5534  0.2599 -0.5517
 3257TIP3   OH231261   5.387   2.375  10.801  0.0959 -0.0185  0.5037
 3257TIP3    H131262   5.420   2.464  10.792  1.5317 -0.5927 -0.2212
 3257TIP3    H231263   5.394   2.338  10.713 -1.0438 -0.6800  0.6635
 3258TIP3   OH231264   0.337   3.539   0.666 -0.3482 -0.3692  0.3355
 3258TIP3    H131265   0.299   3.523   0.752  0.8920 -0.2472  0.9315
 3258TIP3    H231266   0.346   3.634   0.661 -0.4978 -0.3707  0.0413
 3259TIP3   OH231267   0.674   6.492   1.599 -0.6096  0.0331 -0.4162
 3259TIP3    H131268   0.636   6.472   1.513 -1.3700 -0.3471 -0.0081
 3259TIP3    H231269   0.598   6.505   1.656 -0.1939 -2.0488  0.7301
 3260TIP3   OH231270   5.269   4.385  16.167  0.5259 -0.1547 -0.1270
 3260TIP3    H131271   5.213   4.327  16.116  0.4491  1.1326 -1.5946
 3260TIP3    H231272   5.288   4.336  16.247 -0.1901 -1.8403 -0.9344
 3261TIP3   OH231273   4.389   3.032   6.769  0.3480  0.1948 -0.2395
 3261TIP3    H131274   4.348   3.064   6.689 -0.7822 -0.7258 -0.0711
 3261TIP3    H231275   4.457   2.971   6.739  0.2656  0.2330 -0.5040
 3262TIP3   OH231276   6.228   2.849   2.116  0.5918 -0.4334 -0.2036
 3262TIP3    H131277   6.219   2.929   2.064  0.0297  0.4190  1.1542
 3262TIP3    H231278   6.225   2.778   2.052 -1.3224  0.5086 -1.2197
 3263TIP3   OH231279   0.392   1.956  12.026 -0.4769  0.0890  0.2590
 3263TIP3    H131280   0.423   2.010  12.098  2.1608 -0.8191 -0.0996
 3263TIP3    H231281   0.368   1.873  12.067 -0.1809 -0.0017  0.2488
 3264TIP3   OH231282   6.186   1.907   4.800 -0.1669 -0.3873 -0.6449
 3264TIP3    H131283   6.252   1.913   4.730  0.6164 -0.9652  0.0329
 3264TIP3    H231284   6.149   1.995   4.805  2.3426  0.6826  0.6637
 3265TIP3   OH231285   5.108   4.663  12.587  0.0044 -0.4680  0.3311
 3265TIP3    H131286   5.173   4.662  12.658  0.4294  1.7624  0.0752
 3265TIP3    H231287   5.024   4.668  12.632  0.0900 -1.6990  0.6617
 3266TIP3   OH231288   1.107   1.301   2.440  0.1464 -0.0153  0.0817
 3266TIP3    H131289   1.131   1.269   2.527 -1.7997 -2.7498 -0.2522
 3266TIP3    H231290   1.162   1.250   2.380 -1.0015 -0.7730 -0.3670
 3267TIP3   OH231291   1.071   3.780   0.776 -0.4025 -0.4212  0.0437
 3267TIP3    H131292   1.052   3.697   0.733 -2.8887  0.1827 -0.1864
 3267TIP3    H231293   1.058   3.846   0.708 -0.1325  0.2552  0.6403
 3268TIP3   OH231294   3.255   3.657   6.829  0.5467  1.0022  0.2304
 3268TIP3    H131295   3.300   3.708   6.896  0.6179 -0.2665  1.1868
 3268TIP3    H231296   3.324   3.609   6.784  0.3870  0.9860 -0.0046
 3269TIP3   OH231297   2.951   1.212   6.224  0.2883 -0.1447  0.3854
 3269TIP3    H131298   2.914   1.131   6.259 -2.0419  0.6534 -0.0926
 3269TIP3    H231299   2.885   1.279   6.243  1.2052  1.2416 -1.1172
 3270TIP3   OH231300   1.338   6.630  17.379  0.0782  0.6290  0.1491
 3270TIP3    H131301   1.424   6.668  17.362  0.1144  1.0309  1.1886
 3270TIP3    H231302   1.276   6.698  17.353  0.0900  0.6466  0.1682
 3271TIP3   OH231303   2.328   4.938  17.449 -0.1356 -0.1132  0.1924
 3271TIP3    H131304   2.401   4.906  17.396 -0.3888 -0.0491 -0.2011
 3271TIP3    H231305   2.259   4.873  17.437  0.5760 -1.3745  2.3283
 3272TIP3   OH231306   3.461   1.545  15.387 -0.2002 -0.4966 -0.2342
 3272TIP3    H131307   3.454   1.518  15.479 -0.3924 -1.0081 -0.3953
 3272TIP3    H231308   3.391   1.497  15.342  0.7807 -1.3670 -0.8913
 3273TIP3   OH231309   3.478   0.028  11.996  0.0472 -0.1846 -0.6566
 3273TIP3    H131310   3.559   0.077  12.007  0.4298 -0.4616 -2.0822
 3273TIP3    H231311   3.505  -0.064  12.001 -0.0563 -0.2896 -1.7712
 3274TIP3   OH231312   2.222   1.182   1.923  0.1415 -0.4572  0.1839
 3274TIP3    H131313   2.288   1.147   1.982 -0.4372  0.3132  1.3422
 3274TIP3    H231314   2.212   1.116   1.855  0.4044 -1.6634  1.2801
 3275TIP3   OH231315   5.672   1.518  17.475 -0.1175  0.4170 -0.0796
 3275TIP3    H131316   5.764   1.538  17.489  0.4003 -0.8013 -1.4145
 3275TIP3    H231317   5.637   1.597  17.432  0.2803  0.9025  0.4743
 3276TIP3   OH231318   1.389   2.431   5.685 -0.9469 -0.2571  0.3827
 3276TIP3    H131319   1.414   2.347   5.645 -0.7830 -0.2052  0.3718
 3276TIP3    H231320   1.416   2.497   5.621 -1.3782 -0.2124  0.2451
 3277TIP3   OH231321   1.366   5.671  12.929  0.0746  0.2176  0.9209
 3277TIP3    H131322   1.377   5.638  12.840 -0.8231 -2.7911  1.8004
 3277TIP3    H231323   1.443   5.640  12.976 -0.2564  0.3493  1.5660
 3278TIP3   OH231324   0.404   1.563  12.783  0.0271  0.4687  1.0442
 3278TIP3    H131325   0.312   1.561  12.758 -0.1905 -0.2878  1.8674
 3278TIP3    H231326   0.419   1.653  12.813 -0.1502  0.9001 -0.0973
 3279TIP3   OH231327   0.748   2.476  14.206  0.7642 -0.3467 -0.3214
 3279TIP3    H131328   0.777   2.388  14.182  1.1350 -1.2931  3.0635
 3279TIP3    H231329   0.818   2.533  14.176  1.5297 -1.4526 -0.7076
 3280TIP3   OH231330   3.033   3.704  11.741 -0.2637  0.0274  0.4585
 3280TIP3    H131331   3.121   3.742  11.736  0.1776 -0.8436  1.3469
 3280TIP3    H231332   2.979   3.764  11.690  0.6748  1.0550  0.6227
 3281TIP3   OH231333   0.024   2.336  11.620 -0.3958 -0.3712  0.0583
 3281TIP3    H131334  -0.039   2.267  11.640 -1.6294  0.4947 -0.6233
 3281TIP3    H231335   0.068   2.354  11.702 -0.8150 -1.2321  0.4824
 3282TIP3   OH231336   3.267   3.220  11.306  0.3935 -0.0746  0.3206
 3282TIP3    H131337   3.238   3.129  11.307  1.4921 -0.4580 -0.7128
 3282TIP3    H231338   3.222   3.258  11.230 -1.1006  0.6465  1.4909
 3283TIP3   OH231339   2.720   3.722  12.463 -0.5262 -0.4107  0.0097
 3283TIP3    H131340   2.771   3.672  12.399 -0.1047  1.3920 -1.1531
 3283TIP3    H231341   2.782   3.744  12.532  0.5799  2.2094 -1.6411
 3284TIP3   OH231342   5.212   4.384   3.186 -0.2020 -0.0208 -0.6544
 3284TIP3    H131343   5.275   4.363   3.118  1.0702  1.1521  0.1020
 3284TIP3    H231344   5.258   4.369   3.269  0.1142  3.3087 -0.0596
 3285TIP3   OH231345   6.555   4.276   5.490 -0.3993  0.4777 -0.4995
 3285TIP3    H131346   6.480   4.231   5.453  0.0102  1.2947 -2.5149
 3285TIP3    H231347   6.541   4.368   5.467  0.1021  0.9887  1.1140
 3286TIP3   OH231348   0.700   6.074  13.216 -0.2634 -0.1388  0.0402
 3286TIP3    H131349   0.682   6.089  13.309 -2.1207  0.8639 -0.4225
 3286TIP3    H231350   0.618   6.035  13.182  0.3763 -0.4785 -1.1805
 3287TIP3   OH231351   3.297   0.551  15.461 -0.6804  0.6032  0.2795
 3287TIP3    H131352   3.372   0.599  15.496 -0.0115  0.8259 -1.3390
 3287TIP3    H231353   3.290   0.472  15.515  0.7559  0.5612  0.4349
 3288TIP3   OH231354   3.969   1.257  17.058  0.2193 -0.1085  0.1763
 3288TIP3    H131355   3.886   1.288  17.095  0.3888 -0.8942  1.2733
 3288TIP3    H231356   4.009   1.336  17.021 -0.4308  0.5274  0.7863
 3289TIP3   OH231357   6.499   1.404  15.119  0.4216  0.0613  0.0506
 3289TIP3    H131358   6.409   1.406  15.087  0.3446  0.7725  0.2873
 3289TIP3    H231359   6.490   1.411  15.214  0.6943 -0.8772  0.1580
 3290TIP3   OH231360   4.738   3.533   6.153 -0.2640 -0.3325  0.0860
 3290TIP3    H131361   4.706   3.623   6.148  0.5571 -0.0464 -4.0788
 3290TIP3    H231362   4.728   3.508   6.245  0.0493  4.1738  1.5576
 3291TIP3   OH231363   1.754   4.287  15.147  0.0314  0.0384 -0.3564
 3291TIP3    H131364   1.790   4.224  15.085 -0.8102 -0.1307 -0.6832
 3291TIP3    H231365   1.662   4.262  15.157 -0.0020  0.4428  0.4834
 3292TIP3   OH231366   3.998   5.122  11.694  0.7983 -0.0741 -0.1115
 3292TIP3    H131367   3.979   5.176  11.617  0.0790 -0.4404 -0.2052
 3292TIP3    H231368   3.966   5.035  11.671  1.5867 -0.4540  0.1886
 3293TIP3   OH231369   5.855   1.490  14.676  0.0143 -0.0100  0.4637
 3293TIP3    H131370   5.881   1.575  14.711  0.2326  0.2907 -0.4059
 3293TIP3    H231371   5.937   1.447  14.653 -0.1539  0.3312 -0.8732
 3294TIP3   OH231372   4.334   6.198  15.148 -0.3645  0.0644  0.0411
 3294TIP3    H131373   4.393   6.268  15.120 -0.6067 -0.4052 -1.7946
 3294TIP3    H231374   4.310   6.221  15.238  3.2762 -0.1815  1.2365
 3295TIP3   OH231375   4.529   1.871  17.073 -0.4502 -0.2665 -0.5157
 3295TIP3    H131376   4.486   1.912  17.148  0.5176 -0.6018  0.2470
 3295TIP3    H231377   4.457   1.829  17.025 -1.2274  0.8732 -0.3947
 3296TIP3   OH231378   5.968   3.876  16.764 -0.2180 -0.0423 -0.1253
 3296TIP3    H131379   5.991   3.966  16.785 -0.2269  0.0486 -0.4977
 3296TIP3    H231380   5.922   3.881  16.680  0.6743 -0.4980 -0.6597
 3297TIP3   OH231381   4.864   1.615  10.872  0.2523 -0.2418  0.9164
 3297TIP3    H131382   4.812   1.618  10.791 -1.0967 -2.9899  1.5569
 3297TIP3    H231383   4.941   1.668  10.852 -0.8965  0.7134 -1.4971
 3298TIP3   OH231384   1.625   2.421   3.785  0.3906  0.4761  0.1388
 3298TIP3    H131385   1.673   2.453   3.861  0.4282  0.3218  0.1799
 3298TIP3    H231386   1.595   2.333   3.811  0.2903  0.4771  0.0261
 3299TIP3   OH231387   0.196   4.217  12.748  0.1578 -0.4347 -0.5105
 3299TIP3    H131388   0.106   4.197  12.724 -0.5118 -0.6525  1.8982
 3299TIP3    H231389   0.197   4.311  12.765  0.5387 -0.3375 -1.0194
 3300TIP3   OH231390   4.016   6.032  16.572 -0.2162  0.3294 -0.4046
 3300TIP3    H131391   4.042   5.983  16.650  2.4513  0.7886 -0.8963
 3300TIP3    H231392   3.950   6.094  16.603 -0.9767 -1.1059  0.9620
 3301TIP3   OH231393   5.024   5.947   3.948  0.1443 -0.5985 -0.0992
 3301TIP3    H131394   4.942   5.990   3.971  0.6481 -0.2582  1.1556
 3301TIP3    H231395   5.000   5.884   3.881 -0.3835  2.8814 -3.5757
 3302TIP3   OH231396   3.352   4.116   4.843 -0.0956 -0.1166  0.6420
 3302TIP3    H131397   3.395   4.116   4.929 -0.2689 -0.5048  0.7298
 3302TIP3    H231398   3.418   4.080   4.784  0.7495  1.9423  0.2300
 3303TIP3   OH231399   2.755   5.554  13.674  0.1274 -0.2013  0.9929
 3303TIP3    H131400   2.798   5.470  13.656  0.6024  0.2584 -0.1120
 3303TIP3    H231401   2.766   5.566  13.768  2.4454 -0.1119  0.7768
 3304TIP3   OH231402   2.178   2.771   4.193 -0.1007 -0.2831  0.0687
 3304TIP3    H131403   2.097   2.768   4.144 -0.1639  1.5148 -0.0058
 3304TIP3    H231404   2.151   2.774   4.285 -0.0597 -1.1187  0.1141
 3305TIP3   OH231405   3.639   3.948   0.788 -0.7113  0.6744 -0.6397
 3305TIP3    H131406   3.727   3.961   0.821 -0.8173 -0.6345  0.2281
 3305TIP3    H231407   3.642   3.979   0.697  0.9955 -0.4995 -1.0291
 3306TIP3   OH231408   2.909   3.501  13.899 -0.1227 -0.2672  0.2177
 3306TIP3    H131409   2.835   3.503  13.838 -0.0223 -0.4348  0.0890
 3306TIP3    H231410   2.981   3.466  13.847  0.4880  1.4098 -0.1320
 3307TIP3   OH231411   6.692   0.679  13.964 -0.2512  0.4415  0.4781
 3307TIP3    H131412   6.636   0.602  13.958 -0.4399  0.6800 -1.2552
 3307TIP3    H231413   6.638   0.746  14.006 -0.1878 -0.2364  1.7001
 3308TIP3   OH231414   0.207   2.742   4.418 -0.9569  0.3706  0.2448
 3308TIP3    H131415   0.249   2.696   4.491 -0.5396  1.6954  0.8753
 3308TIP3    H231416   0.280   2.780   4.369 -1.3380  1.2107  0.3255
 3309TIP3   OH231417   3.688   6.062   3.065 -0.5992  0.2046  0.1994
 3309TIP3    H131418   3.681   6.141   3.119  0.8745  0.4517  0.0791
 3309TIP3    H231419   3.742   6.003   3.117  0.9295  0.4808 -0.9857
 3310TIP3   OH231420   5.261   3.859   3.978  0.3259  0.2781 -0.5546
 3310TIP3    H131421   5.188   3.817   3.933 -0.8271  0.6606  0.8571
 3310TIP3    H231422   5.323   3.788   3.996  0.3653 -0.0351 -1.8413
 3311TIP3   OH231423   1.446   0.104   1.539 -0.6025  0.6963 -0.7156
 3311TIP3    H131424   1.379   0.045   1.572  0.5177  0.2143  0.8234
 3311TIP3    H231425   1.522   0.049   1.523 -0.1836  1.4076 -1.2734
 3312TIP3   OH231426   1.988   5.171  15.893 -0.4048  0.0607 -0.3279
 3312TIP3    H131427   2.052   5.228  15.850 -0.5757  1.9387  1.7099
 3312TIP3    H231428   2.041   5.109  15.942 -0.1878 -0.1622 -0.8371
 3313TIP3   OH231429   0.036   5.445  14.502 -0.1720 -0.2664 -0.1062
 3313TIP3    H131430  -0.029   5.473  14.437  0.5510  0.5284 -0.5173
 3313TIP3    H231431   0.085   5.375  14.458 -1.4236 -1.6312  0.6044
 3314TIP3   OH231432   3.110   4.549   4.162 -0.0886 -0.3223  0.1083
 3314TIP3    H131433   3.103   4.459   4.194 -2.8384 -0.2197  0.0989
 3314TIP3    H231434   3.094   4.542   4.068 -0.4071  0.1579  0.1187
 3315TIP3   OH231435   4.964   3.233   1.851 -0.1236  0.6191  0.0502
 3315TIP3    H131436   4.966   3.327   1.831 -1.4172  0.2690 -2.0351
 3315TIP3    H231437   4.987   3.191   1.768  0.7953 -0.9414  1.0457
 3316TIP3   OH231438   3.832   2.621   3.693  0.0933 -0.1750  0.6442
 3316TIP3    H131439   3.868   2.701   3.730 -0.0341 -1.3511  3.5679
 3316TIP3    H231440   3.907   2.563   3.682 -0.0732 -0.3637  0.4926
 3317TIP3   OH231441   5.370   6.456   3.669  0.1847  0.3995  0.1386
 3317TIP3    H131442   5.450   6.464   3.721 -0.4076  1.4870  0.9174
 3317TIP3    H231443   5.374   6.530   3.608  1.0773 -1.1011 -1.7074
 3318TIP3   OH231444   6.669   3.177   3.851 -0.2502  0.4148 -0.1210
 3318TIP3    H131445   6.708   3.257   3.886 -2.2311  0.6679  1.6947
 3318TIP3    H231446   6.743   3.129   3.814  1.2159  2.3998  0.0800
 3319TIP3   OH231447   2.351   1.461   4.903  0.2082  0.3895  0.5672
 3319TIP3    H131448   2.281   1.432   4.845  1.5423 -0.0140 -0.8933
 3319TIP3    H231449   2.371   1.384   4.957  0.5757  0.0092 -0.0968
 3320TIP3   OH231450   1.447   5.895   4.170  0.6322  0.7512  0.3465
 3320TIP3    H131451   1.355   5.872   4.181  0.2069  2.4456  0.6625
 3320TIP3    H231452   1.448   5.991   4.177  2.2199  0.8772 -1.1657
 3321TIP3   OH231453   5.466   2.576  17.353 -0.0015  0.6288 -0.2996
 3321TIP3    H131454   5.547   2.627  17.356 -0.4524  1.3463  1.7833
 3321TIP3    H231455   5.475   2.512  17.424 -1.7089  1.5679  0.8472
 3322TIP3   OH231456   0.243   0.923   3.087  0.4460  0.0232 -0.5465
 3322TIP3    H131457   0.279   0.993   3.032  0.5945  0.4279  0.0485
 3322TIP3    H231458   0.319   0.891   3.137  0.3420 -0.4357 -0.6811
 3323TIP3   OH231459   1.673   0.090  15.669 -0.1659  0.0297 -0.1018
 3323TIP3    H131460   1.579   0.088  15.686  0.0466 -1.7941  1.1370
 3323TIP3    H231461   1.708   0.150  15.735 -0.3520 -0.0550  0.0733
 3324TIP3   OH231462   0.947   6.384   3.546  0.4854 -0.3806 -1.1911
 3324TIP3    H131463   0.961   6.475   3.571 -1.4952 -0.1589 -0.7579
 3324TIP3    H231464   0.858   6.382   3.510  1.7411 -1.4568 -4.6621
 3325TIP3   OH231465   3.174   4.862  14.412  0.6129  0.4953  0.1428
 3325TIP3    H131466   3.201   4.934  14.470  1.8691  0.5146 -0.4414
 3325TIP3    H231467   3.128   4.801  14.470  0.9081  1.0273  0.9575
 3326TIP3   OH231468   0.692   2.445   2.940  0.1372  0.3213  0.2971
 3326TIP3    H131469   0.757   2.389   2.897 -1.1189  0.1200 -1.4636
 3326TIP3    H231470   0.718   2.445   3.032  0.9183 -2.1301  0.1571
 3327TIP3   OH231471   4.222   3.337   2.957  0.0506 -0.3729 -0.1529
 3327TIP3    H131472   4.308   3.308   2.987  0.1440  0.8704  0.8383
 3327TIP3    H231473   4.221   3.431   2.973 -1.0461 -0.1674 -1.2998
 3328TIP3   OH231474   1.319   4.767  15.119 -0.0665  0.3284 -0.3768
 3328TIP3    H131475   1.258   4.840  15.116  0.1465  0.6089  1.2645
 3328TIP3    H231476   1.326   4.745  15.212  1.9774  0.0072 -0.5611
 3329TIP3   OH231477   2.463   1.718  12.590  0.2114 -0.3641  0.0171
 3329TIP3    H131478   2.427   1.762  12.667  0.7374 -1.3678  0.8704
 3329TIP3    H231479   2.410   1.639  12.580 -0.9460  0.5684 -1.7052
 3330TIP3   OH231480   2.536   6.170  11.864  0.0179 -0.1091 -0.3257
 3330TIP3    H131481   2.519   6.149  11.772 -0.4773 -0.8526 -0.0852
 3330TIP3    H231482   2.461   6.132  11.911  0.5436 -0.2345  0.4385
 3331TIP3   OH231483   3.670   3.180   1.373  0.2199  0.4052  0.2807
 3331TIP3    H131484   3.735   3.111   1.380  0.0667  0.3732  1.6336
 3331TIP3    H231485   3.651   3.205   1.464 -2.0114  0.0738 -0.0451
 3332TIP3   OH231486   5.984   5.679  16.945 -0.1115  0.1978 -0.3648
 3332TIP3    H131487   6.002   5.735  17.021  0.8321 -0.6850  0.0820
 3332TIP3    H231488   5.945   5.739  16.880  0.4036  1.2636  0.2788
 3333TIP3   OH231489   2.519   5.016   3.380  0.4565  0.1238  0.3217
 3333TIP3    H131490   2.452   5.081   3.403 -0.0440 -0.5711  0.9089
 3333TIP3    H231491   2.590   5.066   3.341 -1.1163  0.7139 -1.9458
 3334TIP3   OH231492   3.910   4.115   4.296 -0.2067 -0.8610  0.6235
 3334TIP3    H131493   3.911   4.211   4.293 -3.1729 -0.7625  0.4659
 3334TIP3    H231494   3.918   4.088   4.204  0.1764 -0.7581  0.6258
 3335TIP3   OH231495   6.414   3.431  16.500  0.4185 -0.1729  0.1930
 3335TIP3    H131496   6.319   3.427  16.505  0.4527 -3.2013  0.5782
 3335TIP3    H231497   6.437   3.516  16.537 -2.1101  0.8460 -0.3577
 3336TIP3   OH231498   3.651   6.236   4.998  0.1460 -0.1787 -0.0256
 3336TIP3    H131499   3.649   6.182   5.077  1.3551  0.9552  0.8233
 3336TIP3    H231500   3.561   6.236   4.967 -0.5834  0.1159  1.9159
 3337TIP3   OH231501   3.162   4.832  12.403 -0.3894 -0.0022 -0.2800
 3337TIP3    H131502   3.234   4.780  12.367  0.2078 -1.2704  2.4449
 3337TIP3    H231503   3.156   4.804  12.495 -1.9239  2.7907  0.5805
 3338TIP3   OH231504   4.165   0.071  12.687 -0.2299  0.0782 -0.3439
 3338TIP3    H131505   4.193   0.157  12.718 -0.8386  0.1748 -0.0353
 3338TIP3    H231506   4.246   0.026  12.663  0.1394  0.5176  0.0618
 3339TIP3   OH231507   3.315   4.018  15.018  0.0136  0.0690 -0.0983
 3339TIP3    H131508   3.404   3.990  15.038 -0.1189  0.4097  1.0519
 3339TIP3    H231509   3.297   4.087  15.081 -1.4881 -0.8089  0.4902
 3340TIP3   OH231510   4.670   6.401  12.493  0.4676 -0.0896 -0.2178
 3340TIP3    H131511   4.619   6.461  12.439  1.0705  0.5717 -0.0674
 3340TIP3    H231512   4.721   6.350  12.430  0.8853  0.4192 -0.2971
 3341TIP3   OH231513   2.734   2.215   3.272 -0.3909 -0.3759  0.2158
 3341TIP3    H131514   2.774   2.268   3.203  0.4771  1.3775  1.9520
 3341TIP3    H231515   2.754   2.125   3.248  1.0072  0.2445 -1.1302
 3342TIP3   OH231516   3.570   2.398   4.150  0.7129 -0.5623 -0.2395
 3342TIP3    H131517   3.657   2.376   4.184  0.9030  0.4681 -0.0085
 3342TIP3    H231518   3.584   2.414   4.057  0.6148 -1.1786 -0.3640
 3343TIP3   OH231519   1.409   6.679   6.445  0.6832  0.4919  0.2341
 3343TIP3    H131520   1.447   6.761   6.478 -0.3056  0.7804  0.6949
 3343TIP3    H231521   1.388   6.698   6.353  0.8653  0.6175  0.2191
 3344TIP3   OH231522   4.847   6.463   1.178  0.4485  0.0620  0.5083
 3344TIP3    H131523   4.784   6.512   1.124 -0.0742 -0.6609  0.4472
 3344TIP3    H231524   4.800   6.384   1.203  1.8585 -1.2941 -0.9032
 3345TIP3   OH231525   2.055   2.608  15.904 -0.2484 -0.3001  0.6642
 3345TIP3    H131526   2.090   2.534  15.855  1.9368  1.5016 -0.6833
 3345TIP3    H231527   1.965   2.617  15.873  0.1171 -1.1110 -0.7262
 3346TIP3   OH231528   5.266   6.576   0.990 -0.2759 -0.1134 -0.0208
 3346TIP3    H131529   5.346   6.546   0.946 -0.1475  0.0211  0.1178
 3346TIP3    H231530   5.297   6.640   1.054 -0.5975  0.6335 -0.6088
 3347TIP3   OH231531   5.740   5.904  14.466 -0.3473 -0.1280 -0.0025
 3347TIP3    H131532   5.686   5.959  14.524 -0.2226 -0.1956  0.1761
 3347TIP3    H231533   5.678   5.871  14.401 -0.0998  1.8248 -1.3250
 3348TIP3   OH231534   4.828   2.651   3.312 -0.1422  0.0600  0.0316
 3348TIP3    H131535   4.851   2.731   3.358 -1.9939  0.2527  0.6899
 3348TIP3    H231536   4.887   2.584   3.349 -0.1308  0.6536  1.1033
 3349TIP3   OH231537   3.846   1.926   2.493 -0.1641 -0.4717  0.1818
 3349TIP3    H131538   3.771   1.967   2.537 -0.8126 -0.3988 -0.9549
 3349TIP3    H231539   3.904   1.999   2.472 -0.1009 -0.4440  0.4527
 3350TIP3   OH231540   4.030   5.524  16.190 -0.5444  0.3891  0.3849
 3350TIP3    H131541   4.090   5.598  16.183  0.6553 -0.6003 -0.3241
 3350TIP3    H231542   4.087   5.447  16.183 -1.5778 -0.6346  2.4890
 3351TIP3   OH231543   5.804   1.870   5.432  0.2458  0.5869 -0.0271
 3351TIP3    H131544   5.719   1.912   5.443  0.0994 -0.0287  1.3133
 3351TIP3    H231545   5.788   1.797   5.373 -0.9338 -1.6144  2.8103
 3352TIP3   OH231546   5.549   1.262   3.209 -0.5667  0.4061 -0.2222
 3352TIP3    H131547   5.548   1.283   3.115  0.0059 -0.9111 -0.5389
 3352TIP3    H231548   5.457   1.252   3.232 -0.6554 -1.3783 -1.1697
 3353TIP3   OH231549   2.269   0.395  13.160 -0.3349  0.4296 -0.5260
 3353TIP3    H131550   2.264   0.319  13.219  0.7515  1.1194  0.5217
 3353TIP3    H231551   2.207   0.458  13.197 -0.5953  0.3806 -0.8803
 3354TIP3   OH231552   5.535   1.684   0.736 -0.6122  0.1942 -0.6447
 3354TIP3    H131553   5.629   1.697   0.752 -0.8500  0.9530  0.2272
 3354TIP3    H231554   5.526   1.694   0.641  0.1281  0.5579 -0.6909
 3355TIP3   OH231555   6.092   4.312   0.590  0.1391  0.0116  0.7539
 3355TIP3    H131556   6.117   4.360   0.510  0.2141 -0.3140  0.5794
 3355TIP3    H231557   6.144   4.354   0.659 -0.7421  1.0227  0.8282
 3356TIP3   OH231558   4.781   5.901  11.219 -0.4992  0.1627 -0.5733
 3356TIP3    H131559   4.805   5.987  11.186  1.8003  0.1494  0.9060
 3356TIP3    H231560   4.832   5.839  11.167  3.2784  0.1446  2.7100
 3357TIP3   OH231561   4.142   1.637   3.160  0.5787 -0.5518 -0.0473
 3357TIP3    H131562   4.100   1.617   3.244 -0.0882 -0.2940 -0.3082
 3357TIP3    H231563   4.170   1.728   3.168  0.1448 -0.3938 -0.2392
 3358TIP3   OH231564   4.491   1.167   1.490 -0.5686  0.2133 -0.2053
 3358TIP3    H131565   4.550   1.216   1.547  0.3293  0.2703 -1.1554
 3358TIP3    H231566   4.488   1.218   1.409 -2.0574  0.2915 -0.1291
 3359TIP3   OH231567   3.114   3.056  12.609  0.1238  0.7248 -0.2286
 3359TIP3    H131568   3.022   3.063  12.584  0.2168 -1.3450 -1.3777
 3359TIP3    H231569   3.113   3.049  12.704 -1.0228 -0.3840 -0.3034
 3360TIP3   OH231570   4.048   5.739   3.750 -0.3774 -0.9297  0.0657
 3360TIP3    H131571   4.010   5.758   3.664 -1.1556 -1.9630  0.1518
 3360TIP3    H231572   4.019   5.811   3.806 -0.2420 -0.4851 -0.4326
 3361TIP3   OH231573   5.145   4.123  13.912  0.5070 -0.2837 -0.3367
 3361TIP3    H131574   5.120   4.101  13.822  1.6779  0.5720 -0.9047
 3361TIP3    H231575   5.233   4.087  13.922  0.5435 -0.0315  0.3387
 3362TIP3   OH231576   2.380   4.843   3.604  0.6277  0.0248 -0.1975
 3362TIP3    H131577   2.435   4.765   3.609  2.7274  1.3002 -1.6579
 3362TIP3    H231578   2.346   4.842   3.515 -0.6798 -0.0453  0.2895
 3363TIP3   OH231579   0.948   2.061  11.599 -0.3588 -0.0391  0.4086
 3363TIP3    H131580   0.902   2.000  11.542 -1.7623 -0.1505  1.5977
 3363TIP3    H231581   1.037   2.066  11.563 -1.2059 -0.0220 -1.8004
 3364TIP3   OH231582   0.347   5.855   2.816 -0.1241  0.1250 -0.3722
 3364TIP3    H131583   0.323   5.807   2.736 -1.4501 -0.5402  0.3911
 3364TIP3    H231584   0.267   5.856   2.868  1.0492 -0.5678  1.5293
 3365TIP3   OH231585   4.000   1.798  15.716 -0.1312 -0.3005 -0.2037
 3365TIP3    H131586   4.017   1.705  15.734  1.2395 -0.0027  0.0986
 3365TIP3    H231587   4.014   1.841  15.800 -1.2950  0.1332 -0.2133
 3366TIP3   OH231588   4.198   2.543  13.886 -0.2450 -0.0078  0.6307
 3366TIP3    H131589   4.256   2.482  13.840 -1.1178  0.4794 -1.2173
 3366TIP3    H231590   4.121   2.490  13.909 -0.8068  0.2531 -0.5721
 3367TIP3   OH231591   6.097   2.539   2.915 -0.4035  0.0528 -0.1106
 3367TIP3    H131592   6.058   2.471   2.859 -0.5926  0.0662  0.0021
 3367TIP3    H231593   6.130   2.491   2.991 -0.1930  0.0407 -0.2103
 3368TIP3   OH231594   0.304   2.074  17.494 -0.0102  0.1161  0.4264
 3368TIP3    H131595   0.350   2.081  17.410  0.3866 -0.5321  0.5830
 3368TIP3    H231596   0.243   2.002  17.482 -0.7612  0.7547  0.3355
 3369TIP3   OH231597   5.880   5.185  15.100 -0.1692 -0.2290 -0.5092
 3369TIP3    H131598   5.966   5.146  15.118 -0.4309 -0.3339  0.5460
 3369TIP3    H231599   5.877   5.191  15.004  1.5024  0.8580 -0.5412
 3370TIP3   OH231600   0.470   1.870   4.353  0.4871  0.1584 -0.5375
 3370TIP3    H131601   0.448   1.954   4.313 -0.0898  0.7684  0.9609
 3370TIP3    H231602   0.405   1.860   4.423 -0.1015 -2.0364 -1.3194
 3371TIP3   OH231603   0.376   1.605   4.289 -0.7968 -0.3336 -0.4491
 3371TIP3    H131604   0.417   1.689   4.307 -1.4866 -0.3992  1.6186
 3371TIP3    H231605   0.433   1.540   4.331 -0.4599 -0.8980 -1.7261
 3372TIP3   OH231606   0.512   3.408   5.672 -0.2860 -0.0520  0.0210
 3372TIP3    H131607   0.453   3.365   5.734 -2.2222  3.6990  1.1012
 3372TIP3    H231608   0.485   3.374   5.586 -1.1411 -1.5038  0.8237
 3373TIP3   OH231609   3.869   6.008   4.012  0.3040 -0.1629  0.0159
 3373TIP3    H131610   3.945   5.998   3.955 -0.4684  1.0358 -1.2606
 3373TIP3    H231611   3.836   6.096   3.995 -0.0350  0.2140  2.2524
 3374TIP3   OH231612   6.729   1.988   2.091  0.4851 -0.5971 -0.4395
 3374TIP3    H131613   6.677   1.914   2.120 -0.1009  0.0301  0.1383
 3374TIP3    H231614   6.702   2.003   2.000  0.9551 -1.3793 -0.7153
 3375TIP3   OH231615   5.066   1.019  14.168  0.4101  0.6502  0.2208
 3375TIP3    H131616   5.106   0.934  14.185 -1.0089  0.2368  1.7176
 3375TIP3    H231617   5.021   1.042  14.249  0.3116  2.6056 -0.3203
 3376TIP3   OH231618   3.249   1.443   2.834 -0.0709  0.0878  0.0517
 3376TIP3    H131619   3.223   1.522   2.880  0.7378  0.3925  0.0034
 3376TIP3    H231620   3.274   1.473   2.746 -0.8085 -0.3743 -0.3263
 3377TIP3   OH231621   2.725   1.033  16.756 -0.0074 -0.8043  0.1381
 3377TIP3    H131622   2.802   1.005  16.806  1.7933  1.4684 -1.1277
 3377TIP3    H231623   2.651   1.014  16.813  1.5815 -1.9243  1.9710
 3378TIP3   OH231624   3.649   2.165  14.041  0.0770  0.1699  0.5635
 3378TIP3    H131625   3.633   2.087  14.093  0.3402  0.6156  1.3295
 3378TIP3    H231626   3.741   2.186  14.055  0.0128  0.6147  0.3610
 3379TIP3   OH231627   0.727   1.206  16.039  0.3581  0.3388  0.0898
 3379TIP3    H131628   0.772   1.151  16.104 -0.4592  0.6427  0.9352
 3379TIP3    H231629   0.683   1.145  15.981 -0.3895  0.0677  0.9138
 3380TIP3   OH231630   5.635   2.126  13.830  0.2159 -0.3534 -0.0738
 3380TIP3    H131631   5.700   2.185  13.870  0.2850 -1.5090  1.6345
 3380TIP3    H231632   5.622   2.161  13.742  2.5888  0.3589 -0.2150
 3381TIP3   OH231633   0.282   5.985   0.181 -0.1731 -0.1206 -0.7467
 3381TIP3    H131634   0.253   5.925   0.112  0.5995 -0.7972 -0.4986
 3381TIP3    H231635   0.341   5.933   0.235  0.6814  0.9323 -0.6372
 3382TIP3   OH231636   4.989   6.230   4.586  0.0962 -0.1549 -0.1643
 3382TIP3    H131637   5.084   6.222   4.588  0.2730  1.4899 -0.8225
 3382TIP3    H231638   4.970   6.283   4.509 -1.1654  1.6994  1.3236
 3383TIP3   OH231639   5.156   0.063  16.167 -0.0224  0.3492  0.1778
 3383TIP3    H131640   5.119   0.136  16.216 -0.3417  0.6665 -0.5244
 3383TIP3    H231641   5.081   0.025  16.121  0.4392  0.6865 -0.8603
 3384TIP3   OH231642   4.522   4.005  16.472  0.1598  0.3301  1.0435
 3384TIP3    H131643   4.534   3.989  16.566  0.0856  0.6948  1.1155
 3384TIP3    H231644   4.482   4.092  16.467  1.4038  0.9016  0.6257
 3385TIP3   OH231645   3.028   5.131  13.671 -0.3456  0.1094 -0.4633
 3385TIP3    H131646   2.961   5.197  13.656  0.2852  0.5085 -1.7734
 3385TIP3    H231647   2.991   5.050  13.636 -1.3170 -0.3840  1.5986
 3386TIP3   OH231648   4.975   0.415  14.809 -0.5832 -0.1648  0.1631
 3386TIP3    H131649   4.998   0.499  14.848  1.0144  0.9194 -2.8057
 3386TIP3    H231650   4.927   0.437  14.729 -0.3141 -2.0849 -0.5951
 3387TIP3   OH231651   3.789   2.530  14.409  0.0345 -0.5867 -0.5564
 3387TIP3    H131652   3.710   2.579  14.432  1.8829  1.3656  2.3593
 3387TIP3    H231653   3.819   2.492  14.492  1.6501 -2.1007 -1.7625
 3388TIP3   OH231654   3.763   4.946   0.636 -0.4205 -0.2716 -0.4654
 3388TIP3    H131655   3.817   5.026   0.636  0.1602 -0.6368 -1.9311
 3388TIP3    H231656   3.720   4.947   0.722 -1.2757  2.1798 -0.8246
 3389TIP3   OH231657   5.105   2.653  13.826 -0.1491 -0.0180 -0.1943
 3389TIP3    H131658   5.121   2.560  13.841 -0.8086 -0.0006  0.7384
 3389TIP3    H231659   5.022   2.671  13.871  0.5943  1.2929  0.7479
 3390TIP3   OH231660   1.988   1.119   3.900  0.4900 -0.2199  0.2590
 3390TIP3    H131661   2.002   1.152   3.988  0.6320 -1.5407  0.7619
 3390TIP3    H231662   1.914   1.169   3.867  0.6690  0.5446  0.9895
 3391TIP3   OH231663   3.047   5.186   3.543 -0.3204 -0.9546  0.1041
 3391TIP3    H131664   3.035   5.206   3.450 -0.2703 -1.8897 -0.1182
 3391TIP3    H231665   3.032   5.269   3.588 -0.1660 -0.4537 -0.7531
 3392TIP3   OH231666   1.016   3.972  13.713 -0.5207  0.0186 -0.0406
 3392TIP3    H131667   1.095   4.016  13.683  0.0782 -0.2469  1.1136
 3392TIP3    H231668   1.045   3.884  13.736 -1.3077 -0.3260 -0.3314
 3393TIP3   OH231669   4.255   1.357  15.928 -0.0616  0.1486 -0.2613
 3393TIP3    H131670   4.309   1.432  15.954  1.1555  0.0668 -2.2579
 3393TIP3    H231671   4.167   1.378  15.959  0.8639  0.8696  2.0404
 3394TIP3   OH231672   1.402   4.618   3.534  0.2171  0.1862 -0.5310
 3394TIP3    H131673   1.396   4.547   3.598  0.1530 -0.0370 -0.7808
 3394TIP3    H231674   1.459   4.583   3.465  0.7870  0.6548 -0.2990
 3395TIP3   OH231675   5.920   2.782  13.341  0.1312  0.2044 -0.4095
 3395TIP3    H131676   5.929   2.874  13.313  1.7802  0.0822 -0.4052
 3395TIP3    H231677   5.841   2.781  13.395  0.1318  1.6497 -0.3297
 3396TIP3   OH231678   5.697   3.723   6.695  0.3546  0.1969 -0.0209
 3396TIP3    H131679   5.665   3.802   6.739 -2.6254  0.6973 -2.7004
 3396TIP3    H231680   5.651   3.652   6.740  0.1758  0.3467  0.0375
 3397TIP3   OH231681   6.418   1.473  14.364  0.1555 -0.5733  0.2389
 3397TIP3    H131682   6.500   1.427  14.381 -1.0955 -2.5370  1.2971
 3397TIP3    H231683   6.399   1.520  14.445 -1.2818 -2.6694  1.1992
 3398TIP3   OH231684   6.020   0.595  11.765  0.4271  0.4471 -0.5467
 3398TIP3    H131685   6.041   0.681  11.729 -0.7330  0.3681 -1.4855
 3398TIP3    H231686   5.930   0.603  11.797  0.3786 -0.3532 -0.4428
 3399TIP3   OH231687   2.879   5.532  13.924 -0.3215  0.6727 -0.3632
 3399TIP3    H131688   2.877   5.449  13.971  1.6263  0.4656 -0.5524
 3399TIP3    H231689   2.950   5.582  13.966 -0.6285  1.7324 -1.0595
 3400TIP3   OH231690   0.565   0.504  16.128  0.0559  0.3803 -0.4071
 3400TIP3    H131691   0.654   0.521  16.097 -0.1597  1.5441 -0.4586
 3400TIP3    H231692   0.577   0.469  16.217  0.6776 -3.0111 -1.6944
 3401TIP3   OH231693   5.608   3.774   0.124 -0.0054  0.3333 -0.0517
 3401TIP3    H131694   5.598   3.852   0.177 -0.0876  0.1523  0.2017
 3401TIP3    H231695   5.639   3.707   0.185 -1.7329 -0.3329  0.1450
 3402TIP3   OH231696   3.199   6.200  15.760 -0.1676 -0.1182 -0.4633
 3402TIP3    H131697   3.196   6.109  15.730  0.3210 -1.0753  2.0999
 3402TIP3    H231698   3.253   6.245  15.696 -0.0284 -1.7520 -1.5508
 3403TIP3   OH231699   1.888   3.682  16.286 -0.2835 -0.3509  0.4793
 3403TIP3    H131700   1.838   3.656  16.208  1.1792  1.3019 -1.1289
 3403TIP3    H231701   1.852   3.768  16.310 -0.6531 -0.8058  1.5865
 3404TIP3   OH231702   0.391   5.190   0.075  0.1662 -0.2690  0.3849
 3404TIP3    H131703   0.476   5.153   0.050  1.1194  3.2912 -2.4822
 3404TIP3    H231704   0.413   5.261   0.135 -0.7386  0.6793 -0.3718
 3405TIP3   OH231705   4.548   2.573   0.618  0.2077  0.0161  0.4495
 3405TIP3    H131706   4.453   2.580   0.626  0.2657  1.4692  0.0889
 3405TIP3    H231707   4.577   2.660   0.593  1.7345 -0.2006  1.3429
 3406TIP3   OH231708   6.413   6.616   3.822  0.2089  0.0591  0.0181
 3406TIP3    H131709   6.320   6.590   3.826  0.6109 -1.5830 -0.5274
 3406TIP3    H231710   6.416   6.701   3.866 -1.5246  0.0613  0.2110
 3407TIP3   OH231711   3.849   4.962   5.869 -0.0483 -0.0946 -0.3927
 3407TIP3    H131712   3.821   4.887   5.922 -1.5578  0.3903 -0.4653
 3407TIP3    H231713   3.892   5.021   5.931  1.1070 -0.9836 -0.3261
 3408TIP3   OH231714   5.312   2.171   4.256  0.1768  0.1303 -0.1696
 3408TIP3    H131715   5.351   2.216   4.181 -0.5234  0.9033 -0.0835
 3408TIP3    H231716   5.386   2.129   4.300  0.6386 -0.0545 -1.1017
 3409TIP3   OH231717   4.516   0.546  14.465  0.3620 -0.4904  0.0266
 3409TIP3    H131718   4.522   0.628  14.417 -1.0477  0.3792  1.2360
 3409TIP3    H231719   4.450   0.495  14.418  0.8411 -0.7087 -0.4119
 3410TIP3   OH231720   1.866   2.908  17.355  0.6607  0.0549  0.0046
 3410TIP3    H131721   1.797   2.973  17.372  1.0659  0.3980  0.3773
 3410TIP3    H231722   1.851   2.881  17.264 -0.6928 -0.7714  0.4452
 3411TIP3   OH231723   3.802   5.291   0.250 -0.2244 -0.3913 -0.1765
 3411TIP3    H131724   3.857   5.369   0.252  0.6514 -0.9984 -0.0729
 3411TIP3    H231725   3.782   5.273   0.342  2.0290 -1.9502  0.0993
 3412TIP3   OH231726   4.636   2.839  12.713  0.6930 -0.2427  0.3978
 3412TIP3    H131727   4.541   2.852  12.712  0.5290 -1.1696 -1.8856
 3412TIP3    H231728   4.672   2.924  12.686  0.4437 -0.2829 -0.0617
 3413TIP3   OH231729   3.175   1.792   4.829  0.3317  0.8876 -0.0334
 3413TIP3    H131730   3.180   1.713   4.882 -1.3819  1.6471  1.3621
 3413TIP3    H231731   3.132   1.764   4.748  0.0217  0.3061  0.3230
 3414TIP3   OH231732   6.565   5.578   2.563 -0.0689  0.1953  0.7083
 3414TIP3    H131733   6.536   5.529   2.486 -0.0698  0.2416  0.6794
 3414TIP3    H231734   6.484   5.592   2.614 -0.2863  1.2848  0.0933
 3415TIP3   OH231735   3.240   1.018   0.918  0.5567 -0.5396  0.6426
 3415TIP3    H131736   3.325   0.998   0.957  1.8451  2.1437 -0.5046
 3415TIP3    H231737   3.211   1.096   0.965 -0.3509 -0.3225 -0.2629
 3416TIP3   OH231738   5.310   0.885   4.605 -0.1444 -0.5965  0.3323
 3416TIP3    H131739   5.287   0.974   4.576  2.0068  0.2957  1.1248
 3416TIP3    H231740   5.371   0.854   4.538  0.2504 -0.8765  0.8203
 3417TIP3   OH231741   3.384   1.404  12.278  0.0453  0.0667  0.4007
 3417TIP3    H131742   3.426   1.426  12.194  0.6624  0.7035  0.8623
 3417TIP3    H231743   3.435   1.453  12.343 -1.9423  1.5763  0.8969
 3418TIP3   OH231744   5.296   2.926   6.611 -0.1929 -0.3589 -0.0709
 3418TIP3    H131745   5.251   2.970   6.539 -0.7342  0.6315  0.8447
 3418TIP3    H231746   5.311   2.837   6.579 -0.4594  0.0480 -1.3815
 3419TIP3   OH231747   2.100   3.875   0.056 -0.0761  0.7469 -0.7368
 3419TIP3    H131748   2.193   3.879   0.079  0.0786  0.3630 -1.2725
 3419TIP3    H231749   2.065   3.807   0.113 -0.3102  1.7865  0.3806
 3420TIP3   OH231750   6.634   4.174   2.923  0.3343  0.6753  0.7497
 3420TIP3    H131751   6.563   4.113   2.944 -0.6944  0.5671 -2.5710
 3420TIP3    H231752   6.706   4.148   2.982 -0.6897 -2.5356  0.7616
 3421TIP3   OH231753   1.878   2.239   3.994  0.2940 -0.4691 -0.1991
 3421TIP3    H131754   1.973   2.236   4.001  0.2154 -1.1996  0.8656
 3421TIP3    H231755   1.856   2.332   3.998  0.9642 -0.2892 -0.5994
 3422TIP3   OH231756   4.742   0.391   3.297  0.5330 -0.1652 -0.4508
 3422TIP3    H131757   4.753   0.486   3.298 -0.0770 -0.0711  1.2355
 3422TIP3    H231758   4.814   0.357   3.350  0.9894 -0.6895 -1.3839
 3423TIP3   OH231759   3.728   4.682  13.378 -0.3445  0.4445 -0.4843
 3423TIP3    H131760   3.696   4.623  13.309  1.3293 -0.2516 -0.7118
 3423TIP3    H231761   3.821   4.661  13.386 -0.1866  1.5596  0.9677
 3424TIP3   OH231762   3.002   6.272   5.455  0.5519  0.3611  1.1836
 3424TIP3    H131763   3.048   6.205   5.402  1.8974  0.6574  1.9243
 3424TIP3    H231764   2.924   6.293   5.404  1.5759  0.3217 -0.4948
 3425TIP3   OH231765   1.903   1.709   5.676  0.1647 -0.3069  0.3783
 3425TIP3    H131766   1.973   1.772   5.658  0.6711 -1.0108 -0.1908
 3425TIP3    H231767   1.913   1.642   5.608 -1.5649 -0.0249 -0.2169
 3426TIP3   OH231768   3.235   5.716   2.778  0.5806 -0.2355  0.1177
 3426TIP3    H131769   3.315   5.663   2.782  1.0280  0.5202  1.8376
 3426TIP3    H231770   3.265   5.802   2.749  0.0963 -0.4079 -0.9755
 3427TIP3   OH231771   0.295   2.560  15.381  0.5878  0.4844 -0.5029
 3427TIP3    H131772   0.385   2.538  15.359  0.9603  0.7487  0.6819
 3427TIP3    H231773   0.241   2.508  15.321  1.5045 -0.4664 -0.5129
 3428TIP3   OH231774   4.016   6.506  16.834 -0.1076 -0.1432  0.4672
 3428TIP3    H131775   3.959   6.581  16.818 -1.2546 -1.0056  0.3897
 3428TIP3    H231776   3.957   6.438  16.868  0.4655 -1.7779 -1.6175
 3429TIP3   OH231777   2.234   4.325   3.484  0.7649  0.0110  0.2236
 3429TIP3    H131778   2.195   4.277   3.411 -0.2512 -0.4741  1.0539
 3429TIP3    H231779   2.328   4.319   3.470  0.5777  0.3580 -1.3084
 3430TIP3   OH231780   4.323   0.089   6.826 -0.3189 -0.3856 -0.3152
 3430TIP3    H131781   4.413   0.110   6.800 -1.2183  1.4789 -2.2848
 3430TIP3    H231782   4.288   0.040   6.752 -1.7966  1.6288 -1.0453
 3431TIP3   OH231783   4.750   4.675   4.385 -0.2113  0.1770 -0.3126
 3431TIP3    H131784   4.746   4.609   4.315 -1.1963 -0.6003  0.4492
 3431TIP3    H231785   4.709   4.633   4.460  1.3475  0.7874  0.9332
 3432TIP3   OH231786   5.151   3.990  17.457  0.3968  0.7414  0.6585
 3432TIP3    H131787   5.148   3.984  17.553  1.3972  0.1209  0.6767
 3432TIP3    H231788   5.132   4.081  17.438  1.2203  1.1252  1.5295
 3433TIP3   OH231789   0.130   2.991   3.840  0.4531 -0.0301  0.2890
 3433TIP3    H131790   0.163   3.005   3.929 -0.1361 -0.2456  0.5478
 3433TIP3    H231791   0.085   2.906   3.844  1.7095 -0.7696 -0.5965
 3434TIP3   OH231792   0.018   2.657   0.612  0.0929 -0.0031  0.0839
 3434TIP3    H131793  -0.067   2.701   0.614 -0.1415 -0.3317 -1.4467
 3434TIP3    H231794   0.079   2.719   0.653 -0.7904  0.4154  0.7848
 3435TIP3   OH231795   4.712   2.858   5.622 -0.0348 -0.5728 -0.2764
 3435TIP3    H131796   4.649   2.926   5.646 -1.3203 -1.4198 -1.1109
 3435TIP3    H231797   4.722   2.867   5.527 -1.3429 -2.3937 -0.6559
 3436TIP3   OH231798   0.660   6.053  11.571  0.4271  0.1068 -0.6082
 3436TIP3    H131799   0.571   6.038  11.602  0.8278 -0.3148  0.3783
 3436TIP3    H231800   0.663   6.011  11.486  0.1059 -1.1939 -0.0043
 3437TIP3   OH231801   3.823   5.593   5.812  0.3577  0.1824 -0.1754
 3437TIP3    H131802   3.862   5.569   5.897 -0.9877  0.0969  0.4424
 3437TIP3    H231803   3.878   5.664   5.780  0.9630  0.1391  0.7189
 3438TIP3   OH231804   4.675   4.413   0.198  0.9154  0.4522  0.3544
 3438TIP3    H131805   4.753   4.468   0.201  1.8130 -0.4172 -2.7728
 3438TIP3    H231806   4.621   4.452   0.130 -0.2776 -0.3141  0.8224
 3439TIP3   OH231807   3.881   4.641  17.294  0.2342  0.1244  0.3296
 3439TIP3    H131808   3.926   4.558  17.278  0.0426  0.2096 -0.6984
 3439TIP3    H231809   3.945   4.708  17.270  0.3150  0.2745  0.9562
 3440TIP3   OH231810   1.031   4.433   3.233  0.1664 -0.0363 -0.0330
 3440TIP3    H131811   0.993   4.370   3.171 -1.3351  0.9734 -0.2178
 3440TIP3    H231812   1.078   4.495   3.177 -0.2676  0.2556 -0.0866
 3441TIP3   OH231813   4.291   2.239  12.252 -0.1863 -0.2494  0.2801
 3441TIP3    H131814   4.356   2.170  12.245 -0.6446 -0.7638  0.9226
 3441TIP3    H231815   4.214   2.196  12.290 -2.1472 -0.5036 -3.4411
 3442TIP3   OH231816   3.454   0.482   1.654 -0.0806  0.1239  0.1531
 3442TIP3    H131817   3.504   0.542   1.710 -0.0434 -0.6332  0.9436
 3442TIP3    H231818   3.391   0.441   1.713  0.3359 -1.1076 -0.2454
 3443TIP3   OH231819   1.176   5.244   5.492  0.2608 -0.7317  0.0397
 3443TIP3    H131820   1.206   5.238   5.583 -0.0539  0.1149  0.2089
 3443TIP3    H231821   1.237   5.304   5.450 -1.4856  1.5956  0.5650
 3444TIP3   OH231822   5.525   0.786   1.716 -0.1900 -0.6623 -0.5041
 3444TIP3    H131823   5.619   0.794   1.700  0.0407 -0.4361  0.8591
 3444TIP3    H231824   5.516   0.706   1.767 -0.8611 -1.1864 -1.4116
 3445TIP3   OH231825   3.835   3.838   4.225 -0.9107  0.2373  0.4256
 3445TIP3    H131826   3.820   3.932   4.217 -3.0244 -0.0991 -0.0749
 3445TIP3    H231827   3.818   3.819   4.318 -1.1599  0.2296  0.3769
 3446TIP3   OH231828   2.340   2.273  15.312 -0.0437 -0.2363 -0.3453
 3446TIP3    H131829   2.270   2.310  15.367  0.5644 -1.2872  1.1926
 3446TIP3    H231830   2.318   2.303  15.223 -0.7416  2.0000  0.5121
 3447TIP3   OH231831   0.084   5.328   3.576  0.2443 -0.6025  0.8303
 3447TIP3    H131832   0.032   5.283   3.509 -1.4339  0.9381  1.0326
 3447TIP3    H231833   0.108   5.259   3.638 -1.2589 -1.4291  0.5341
 3448TIP3   OH231834   6.181   3.817  13.221 -0.1105  0.3164 -0.1767
 3448TIP3    H131835   6.242   3.743  13.223  0.1498  0.5415  0.4232
 3448TIP3    H231836   6.099   3.780  13.190  0.1074 -0.1590 -0.1919
 3449TIP3   OH231837   0.687   5.621   3.786 -0.0493 -0.0755  0.4006
 3449TIP3    H131838   0.756   5.640   3.722  0.1665  0.8626  0.8875
 3449TIP3    H231839   0.690   5.526   3.798  1.4563 -0.0091  0.7243
 3450TIP3   OH231840   1.388   2.794   4.348 -0.2378 -0.1802  0.1642
 3450TIP3    H131841   1.483   2.799   4.357  0.5789 -5.1630 -2.1183
 3450TIP3    H231842   1.359   2.742   4.423 -0.3837 -2.1103 -1.1336
 3451TIP3   OH231843   2.029   4.157  12.321 -0.5195 -0.1964 -0.1144
 3451TIP3    H131844   2.021   4.095  12.248 -1.0717  1.1467 -1.2358
 3451TIP3    H231845   1.938   4.177  12.346 -0.3809 -1.8316  2.0592
 3452TIP3   OH231846   1.793   3.191   6.232  0.0074  0.1569  0.0390
 3452TIP3    H131847   1.740   3.172   6.310 -0.1755 -1.6792 -0.5000
 3452TIP3    H231848   1.875   3.143   6.246  0.0441 -0.0480 -0.8083
 3453TIP3   OH231849   4.350   2.285  16.892  0.5540 -0.1267  0.0724
 3453TIP3    H131850   4.262   2.299  16.926  0.1361 -1.2063 -0.5133
 3453TIP3    H231851   4.402   2.264  16.969 -0.0065 -0.8412  0.2636
 3454TIP3   OH231852   2.508   2.587   4.813 -0.4257 -0.4294 -0.2222
 3454TIP3    H131853   2.575   2.557   4.874 -1.1742 -1.1247  0.2763
 3454TIP3    H231854   2.543   2.567   4.726  0.8261  0.9419 -0.0752
 3455TIP3   OH231855   1.408   1.952   1.319  0.0913  0.3877  0.0377
 3455TIP3    H131856   1.471   1.925   1.251  0.6868 -0.3990  0.8700
 3455TIP3    H231857   1.370   2.033   1.286  2.0510  1.2608 -0.1900
 3456TIP3   OH231858   5.030   6.594   2.169 -0.2031  0.3089  0.0789
 3456TIP3    H131859   5.005   6.652   2.098  0.0268  0.0889 -0.1811
 3456TIP3    H231860   5.089   6.646   2.223 -0.4560  0.5078  0.1651
 3457TIP3   OH231861   3.149   6.342  12.564  0.2049 -0.1380  0.2929
 3457TIP3    H131862   3.205   6.323  12.489 -0.0579 -0.9485  0.2961
 3457TIP3    H231863   3.165   6.271  12.626 -2.6914 -1.9262 -0.7814
 3458TIP3   OH231864   0.088   4.506   0.467  0.1493  0.0465 -0.2116
 3458TIP3    H131865   0.113   4.578   0.409  0.1449  0.5678  0.4320
 3458TIP3    H231866   0.130   4.526   0.550 -0.6013 -0.2197  0.2346
 3459TIP3   OH231867   5.930   3.325   5.182  0.2032  0.6013 -0.0446
 3459TIP3    H131868   5.989   3.278   5.240  0.8947  0.7478 -0.6206
 3459TIP3    H231869   5.954   3.417   5.192 -1.0519  0.8575  0.9766
 3460TIP3   OH231870   4.387   2.872  11.652 -0.1195  0.3380  0.0148
 3460TIP3    H131871   4.432   2.882  11.736 -1.9638  1.4912  0.9287
 3460TIP3    H231872   4.324   2.802  11.667 -0.9636  1.0483 -0.1661
 3461TIP3   OH231873   4.101   2.579  12.546  0.7214 -0.5710 -0.4094
 3461TIP3    H131874   4.109   2.495  12.591 -1.0127 -0.8735 -0.5776
 3461TIP3    H231875   4.074   2.556  12.457 -1.8381  0.1567  0.1041
 3462TIP3   OH231876   3.521   2.975  14.922 -0.1279  0.0840  0.2555
 3462TIP3    H131877   3.599   3.030  14.933  0.2611 -0.0278 -1.5335
 3462TIP3    H231878   3.499   2.985  14.829 -2.1608 -0.0245  0.6895
 3463TIP3   OH231879   0.610   1.729  16.153  0.5185  0.5860 -0.1623
 3463TIP3    H131880   0.622   1.818  16.185  1.1850  0.4794 -0.1010
 3463TIP3    H231881   0.580   1.739  16.063  0.9306  0.8724 -0.2701
 3464TIP3   OH231882   6.164   1.275   0.036  0.3068  0.2791  0.4318
 3464TIP3    H131883   6.234   1.210   0.042  0.0655 -0.1180 -0.7984
 3464TIP3    H231884   6.196   1.340  -0.027 -0.9412 -0.6071 -1.1805
 3465TIP3   OH231885   4.963   6.716  16.032 -0.4057 -0.2953 -0.4658
 3465TIP3    H131886   4.884   6.666  16.008 -0.0504 -2.2463  1.9804
 3465TIP3    H231887   5.032   6.650  16.038  0.6409  0.8560  0.6661
 3466TIP3   OH231888   5.235   6.300  12.216  0.1406  0.0279 -0.2006
 3466TIP3    H131889   5.165   6.242  12.185  0.5412 -0.6454  0.1148
 3466TIP3    H231890   5.274   6.336  12.136  1.0289 -1.5240 -0.5214
 3467TIP3   OH231891   0.822   1.317  14.483 -0.3475  0.3344 -0.1243
 3467TIP3    H131892   0.747   1.310  14.424  0.2471  0.2553 -0.8817
 3467TIP3    H231893   0.831   1.230  14.521  0.3537 -0.1155 -1.2767
 3468TIP3   OH231894   1.738   3.311   2.965 -0.4073 -0.1681 -0.1294
 3468TIP3    H131895   1.779   3.321   2.878 -1.7636  2.5429 -0.5638
 3468TIP3    H231896   1.746   3.397   3.005  0.4163 -1.4182  2.6417
 3469TIP3   OH231897   1.090   6.036  13.598  0.0983 -0.1081 -0.0568
 3469TIP3    H131898   1.145   5.965  13.629 -1.9129 -1.7395 -0.0193
 3469TIP3    H231899   1.083   6.096  13.673 -0.6234 -1.4414  0.9892
 3470TIP3   OH231900   1.428   5.383  17.041 -0.1991 -0.0961  0.4301
 3470TIP3    H131901   1.475   5.424  17.114 -0.7880 -1.4981  1.6683
 3470TIP3    H231902   1.409   5.295  17.072  0.6204 -1.1934 -1.9305
 3471TIP3   OH231903   3.923   3.045  12.297 -0.1863  0.0299  0.1055
 3471TIP3    H131904   3.930   3.130  12.341 -1.3482 -0.2138  0.8087
 3471TIP3    H231905   3.849   3.055  12.237  0.2321 -0.2223 -0.4678
 3472TIP3   OH231906   5.933   3.402   6.294  0.0759 -0.2986 -0.6478
 3472TIP3    H131907   5.918   3.449   6.376  1.2975 -0.5287 -0.2640
 3472TIP3    H231908   5.846   3.385   6.259 -0.5660 -1.7486  1.4816
 3473TIP3   OH231909   1.026   3.136   3.899  0.2170  0.5427  0.1434
 3473TIP3    H131910   0.934   3.109   3.894  0.3129  0.2256  0.0784
 3473TIP3    H231911   1.049   3.161   3.810  0.6744 -0.9842 -0.2019
 3474TIP3   OH231912   4.223   0.894  13.410  1.1139 -0.2434 -0.0362
 3474TIP3    H131913   4.213   0.920  13.318  2.4517 -0.1245 -0.1614
 3474TIP3    H231914   4.149   0.835  13.426 -1.1221  2.2954 -0.2102
 3475TIP3   OH231915   2.407   0.970  14.427 -0.2012  0.0094  0.5460
 3475TIP3    H131916   2.395   0.888  14.379 -2.9043  0.9512 -0.5664
 3475TIP3    H231917   2.412   1.038  14.360 -0.3795  1.0059  1.4949
 3476TIP3   OH231918   1.135   0.348  16.327  0.0113  0.1258  0.0791
 3476TIP3    H131919   1.110   0.358  16.419 -0.6022 -2.2827  0.2435
 3476TIP3    H231920   1.223   0.311  16.330 -0.2639 -0.5747 -0.2762
 3477TIP3   OH231921   0.121   2.895   1.470 -0.5069 -0.3253 -0.3705
 3477TIP3    H131922   0.132   2.800   1.464 -2.0935 -0.6451  1.0908
 3477TIP3    H231923   0.206   2.931   1.445 -0.2215 -2.0697 -2.0706
 3478TIP3   OH231924   3.741   5.455   3.211  0.1013 -0.5968 -0.2294
 3478TIP3    H131925   3.708   5.545   3.213  2.8962  0.5162 -0.2044
 3478TIP3    H231926   3.718   5.419   3.296 -0.8922  0.1314 -0.1678
 3479TIP3   OH231927   1.972   0.708  16.262 -0.3995  0.3882 -0.0204
 3479TIP3    H131928   2.056   0.693  16.218  0.1043  0.6185  0.8382
 3479TIP3    H231929   1.910   0.722  16.191  0.3788  0.6638 -0.6663
 3480TIP3   OH231930   1.175   0.326   1.194 -0.0563 -0.6670  0.0100
 3480TIP3    H131931   1.186   0.366   1.280 -0.8484  0.3114 -0.3263
 3480TIP3    H231932   1.202   0.235   1.207  2.3858  0.0791  0.6359
 3481TIP3   OH231933   1.848   0.911   3.838  0.2515 -0.5263 -0.0047
 3481TIP3    H131934   1.873   0.856   3.912  0.4147  0.8459  1.0020
 3481TIP3    H231935   1.893   0.994   3.854 -0.7703  0.2331 -0.9379
 3482TIP3   OH231936   1.267   2.504  15.318  0.0872 -0.3004  0.4716
 3482TIP3    H131937   1.280   2.546  15.404 -0.9546  0.8041  0.1173
 3482TIP3    H231938   1.216   2.426  15.337  1.6627 -1.2176  1.0946
 3483TIP3   OH231939   3.841   3.150  11.596 -0.2228 -0.0092 -0.7247
 3483TIP3    H131940   3.763   3.132  11.544  0.6509  0.7883 -2.3942
 3483TIP3    H231941   3.839   3.245  11.610  0.6403  0.0767 -1.1276
 3484TIP3   OH231942   0.006   5.822  14.431 -0.0648  0.1198  0.5652
 3484TIP3    H131943  -0.006   5.745  14.374 -0.5061 -0.7210  1.7511
 3484TIP3    H231944   0.080   5.868  14.392  1.0286 -1.5738  0.5090
 3485TIP3   OH231945   3.552   3.449   0.927 -0.4167 -0.2303 -0.1899
 3485TIP3    H131946   3.605   3.499   0.866  0.9521 -2.3897 -0.8814
 3485TIP3    H231947   3.599   3.455   1.011 -0.4270 -0.1170 -0.1917
 3486TIP3   OH231948   0.068   4.415  14.849 -0.1677  0.0899 -0.2400
 3486TIP3    H131949   0.113   4.338  14.883 -1.5470 -0.7013 -0.1168
 3486TIP3    H231950  -0.017   4.415  14.893 -0.7213  0.9156 -1.2509
 3487TIP3   OH231951   5.730   1.714  15.643  0.3799  0.1869  0.7637
 3487TIP3    H131952   5.825   1.718  15.645  0.6000 -2.7818 -0.2781
 3487TIP3    H231953   5.709   1.627  15.611 -2.7204  0.7611  0.8685
 3488TIP3   OH231954   5.650   4.984   0.791 -0.4086  0.0634  0.6010
 3488TIP3    H131955   5.607   5.063   0.759 -1.7686 -1.2557 -1.0339
 3488TIP3    H231956   5.727   4.974   0.736 -1.1954 -0.6649 -0.3970
 3489TIP3   OH231957   4.636   0.541   4.845  0.4595 -0.0318 -0.4459
 3489TIP3    H131958   4.730   0.530   4.856  0.2083 -2.2316 -0.0323
 3489TIP3    H231959   4.605   0.458   4.810 -1.6419 -0.3189  1.7829
 3490TIP3   OH231960   6.075   1.639   4.459 -0.9438 -0.2532  0.1178
 3490TIP3    H131961   6.007   1.673   4.400 -1.1148 -1.3635 -0.3526
 3490TIP3    H231962   6.037   1.561   4.497  0.1263 -0.9988 -0.2915
 3491TIP3   OH231963   4.595   1.099   0.920  0.2798 -0.0382  0.5892
 3491TIP3    H131964   4.556   1.048   0.991 -0.3020  0.0978  0.3791
 3491TIP3    H231965   4.533   1.172   0.906  0.0276 -0.4378 -0.5034
 3492TIP3   OH231966   6.154   4.630  11.360  0.2843  0.5712  0.2124
 3492TIP3    H131967   6.075   4.575  11.362  0.4437  0.1167 -2.3645
 3492TIP3    H231968   6.121   4.717  11.337  0.4733  0.3773 -0.8827
 3493TIP3   OH231969   4.295   6.339  12.999  0.2509  0.1682 -0.5780
 3493TIP3    H131970   4.315   6.319  13.090  1.1861  3.8522  0.2232
 3493TIP3    H231971   4.201   6.323  12.990 -0.0154  0.4458  1.3013
 3494TIP3   OH231972   1.137   0.637   3.288 -0.2578  0.1110 -0.5694
 3494TIP3    H131973   1.098   0.549   3.293 -1.8926  0.8768  1.9525
 3494TIP3    H231974   1.230   0.622   3.303 -0.5745 -1.1825  0.3550
 3495TIP3   OH231975   5.294   5.320   0.290  1.0284 -0.2049  0.0884
 3495TIP3    H131976   5.311   5.409   0.262  1.3209 -0.2769  0.0359
 3495TIP3    H231977   5.199   5.311   0.285  1.0032  0.0845  0.0418
 3496TIP3   OH231978   4.174   1.342   0.263  0.1963 -0.1683 -0.6357
 3496TIP3    H131979   4.229   1.277   0.219  0.1006  0.3443 -1.5450
 3496TIP3    H231980   4.087   1.327   0.227  0.3699  1.1534 -1.6982
 3497TIP3   OH231981   2.198   4.831  11.378 -0.6025  0.4867  0.7321
 3497TIP3    H131982   2.281   4.840  11.330 -0.9630  1.7231  0.3277
 3497TIP3    H231983   2.158   4.752  11.341  0.1009  0.2273  0.4977
 3498TIP3   OH231984   6.202   1.177  11.229 -0.4298  0.3666  0.0282
 3498TIP3    H131985   6.225   1.191  11.321 -2.8143  0.6668  0.6459
 3498TIP3    H231986   6.136   1.108  11.231 -1.2838  1.1011 -1.3582
 3499TIP3   OH231987   3.274   4.189  13.417 -0.3633  0.5457 -0.3554
 3499TIP3    H131988   3.348   4.210  13.475 -0.5382 -0.6813  0.3574
 3499TIP3    H231989   3.202   4.168  13.477 -0.9939  0.7422 -1.0382
 3500TIP3   OH231990   5.400   5.222   3.715  0.4748  0.3141 -0.1747
 3500TIP3    H131991   5.310   5.254   3.702  0.4898  0.1194 -0.7982
 3500TIP3    H231992   5.394   5.127   3.705  0.5619  0.1769  0.9283
 3501TIP3   OH231993   2.149   0.677  13.541  0.7253 -0.0772 -0.5707
 3501TIP3    H131994   2.189   0.692  13.627  0.2413 -0.5070 -0.2629
 3501TIP3    H231995   2.223   0.651  13.485  1.1359  0.7853 -0.4456
 3502TIP3   OH231996   0.817   3.851  13.219  0.3468 -0.3695  0.0742
 3502TIP3    H131997   0.869   3.892  13.287  0.7853  0.0161 -0.4873
 3502TIP3    H231998   0.759   3.791  13.266 -0.7590  1.3446  0.9721
 3503TIP3   OH231999   3.531   4.817   4.634  0.2862 -0.1597 -0.0810
 3503TIP3    H132000   3.613   4.779   4.664  0.2435 -0.3162 -0.1588
 3503TIP3    H232001   3.528   4.904   4.673  0.4756 -0.1650 -0.0560
 3504TIP3   OH232002   2.314   5.979  13.986 -0.7853 -0.2562 -0.4500
 3504TIP3    H132003   2.245   6.044  13.998 -0.3687  0.1328 -0.1650
 3504TIP3    H232004   2.396   6.026  14.004 -0.4558 -0.7599 -0.6078
 3505TIP3   OH232005   2.391   5.927   1.417 -0.2272  0.6993 -0.4046
 3505TIP3    H132006   2.443   5.971   1.350  1.9485 -2.6433 -1.1000
 3505TIP3    H232007   2.450   5.920   1.492 -1.2952  0.8586  0.4815
 3506TIP3   OH232008   1.340   1.884  11.458 -0.0058 -0.3308 -0.0873
 3506TIP3    H132009   1.270   1.822  11.435 -1.2598  0.3044  1.8299
 3506TIP3    H232010   1.421   1.839  11.431 -1.0437 -1.6077 -1.2456
 3507TIP3   OH232011   5.757   4.272  10.791  0.1540  0.1535 -0.2321
 3507TIP3    H132012   5.773   4.342  10.854  1.5276  0.7083 -1.1446
 3507TIP3    H232013   5.672   4.235  10.817  0.2306  0.9856  1.3286
 3508TIP3   OH232014   1.259   2.340   3.240 -0.0288  0.6167  0.0798
 3508TIP3    H132015   1.289   2.332   3.331 -2.5409  1.7226  1.1293
 3508TIP3    H232016   1.233   2.251   3.216  0.7923  0.2845  0.3973
 3509TIP3   OH232017   6.329   5.696   3.100 -0.4926  0.1465  1.0563
 3509TIP3    H132018   6.353   5.630   3.035  3.7176 -0.7414  3.1452
 3509TIP3    H232019   6.308   5.646   3.179 -1.9289  1.2745  1.4434
 3510TIP3   OH232020   4.100   3.119   1.421  0.1859 -0.1981 -0.6804
 3510TIP3    H132021   4.097   3.101   1.515 -1.4770  0.1448 -0.6457
 3510TIP3    H232022   4.180   3.171   1.410 -0.4896  1.2503  0.8197
 3511TIP3   OH232023   2.945   6.469   6.802  0.6587  0.0532  0.2452
 3511TIP3    H132024   2.886   6.426   6.739 -0.8310  0.0456  1.5772
 3511TIP3    H232025   3.001   6.398   6.834  0.3032 -0.2849  0.1330
 3512TIP3   OH232026   0.350   4.150   0.585  0.9273  0.1604 -0.1269
 3512TIP3    H132027   0.262   4.166   0.620  0.4358  1.3990 -1.7923
 3512TIP3    H232028   0.334   4.104   0.502  2.0430 -2.7438  1.1595
 3513TIP3   OH232029   5.450   6.036   1.701  0.3158  0.4694  0.6664
 3513TIP3    H132030   5.437   5.989   1.784  2.3199 -0.6848  0.3975
 3513TIP3    H232031   5.524   6.093   1.718 -0.7430  1.9927  0.3214
 3514TIP3   OH232032   5.770   4.177  16.984 -0.8210 -0.3693  0.5900
 3514TIP3    H132033   5.864   4.175  17.004 -1.0982 -1.5364  1.9624
 3514TIP3    H232034   5.766   4.169  16.888  0.4621 -2.5576  0.6478
 3515TIP3   OH232035   2.325   3.799   6.072  0.2255  0.3093  0.4115
 3515TIP3    H132036   2.370   3.741   6.010  0.4672 -0.2589  1.0968
 3515TIP3    H232037   2.386   3.872   6.085  0.5019  0.0568  0.5481
 3516TIP3   OH232038   3.967   0.156   3.873  0.5278  0.0060 -0.4031
 3516TIP3    H132039   4.041   0.149   3.813  0.0442  2.5176 -1.4388
 3516TIP3    H232040   3.988   0.231   3.929 -1.2754  0.9445 -0.8897
 3517TIP3   OH232041   1.562   1.685   0.262  0.0783  0.6041  0.2889
 3517TIP3    H132042   1.589   1.775   0.279 -1.0093  0.9673  0.1881
 3517TIP3    H232043   1.468   1.685   0.280  0.1008 -0.5559  0.4586
 3518TIP3   OH232044   3.027   5.494  11.654  0.1626  0.4739 -0.2103
 3518TIP3    H132045   3.075   5.441  11.718  1.9854  1.0721 -1.0072
 3518TIP3    H232046   3.024   5.441  11.575  0.6654  0.9483 -0.5556
 3519TIP3   OH232047   4.278   1.450  13.054 -0.0293 -0.2228 -0.3410
 3519TIP3    H132048   4.225   1.526  13.078  0.3964 -0.0302 -0.0045
 3519TIP3    H232049   4.234   1.414  12.977 -0.4376  0.1519 -0.2888
 3520TIP3   OH232050   4.864   0.657  12.736 -0.4758 -0.2556  0.1450
 3520TIP3    H132051   4.913   0.607  12.671  0.5507  1.2598 -0.3010
 3520TIP3    H232052   4.773   0.647  12.709 -0.1475 -0.4525 -0.9668
 3521TIP3   OH232053   6.406   2.737  15.772  0.0413  0.0097  0.3561
 3521TIP3    H132054   6.420   2.738  15.677 -0.2681  1.6758  0.2945
 3521TIP3    H232055   6.330   2.681  15.785  1.3751 -2.0290 -0.1335
 3522TIP3   OH232056   2.206   5.106   1.713  0.1716 -0.3915 -0.4933
 3522TIP3    H132057   2.259   5.113   1.634 -0.2092  4.4078 -0.5758
 3522TIP3    H232058   2.117   5.091   1.682  0.1222  0.8720 -1.0153
 3523TIP3   OH232059   0.414   4.825   2.235  0.4230 -0.5643  0.0829
 3523TIP3    H132060   0.391   4.903   2.286 -0.6090 -0.2319 -0.8416
 3523TIP3    H232061   0.450   4.859   2.153 -0.6045 -1.0163 -0.5880
 3524TIP3   OH232062   3.911   3.229  15.886 -0.0204 -0.0670 -0.1304
 3524TIP3    H132063   3.940   3.274  15.806 -1.7455 -1.2564 -1.5167
 3524TIP3    H232064   3.930   3.136  15.869 -0.6689 -0.3642  0.7320
 3525TIP3   OH232065   5.704   1.495   3.168  0.2921 -0.2051  0.6551
 3525TIP3    H132066   5.748   1.431   3.111 -1.9881  0.2965 -1.9036
 3525TIP3    H232067   5.675   1.444   3.243 -0.7177 -2.0820 -0.9051
 3526TIP3   OH232068   1.654   5.515  15.399 -0.3260  0.4890  0.7797
 3526TIP3    H132069   1.716   5.586  15.381 -1.5759  1.3697 -0.3108
 3526TIP3    H232070   1.642   5.471  15.315  0.1909 -0.8415  1.3784
 3527TIP3   OH232071   3.115   4.742  16.883  0.8058  0.0192 -0.3051
 3527TIP3    H132072   3.097   4.740  16.977 -1.7479  1.4545 -0.6777
 3527TIP3    H232073   3.076   4.661  16.850  2.7188 -1.0564 -0.0275
 3528TIP3   OH232074   2.043   6.654   0.878 -0.0351  0.2153  0.3310
 3528TIP3    H132075   2.058   6.692   0.791  0.0994  0.3552  0.4129
 3528TIP3    H232076   1.952   6.626   0.878  0.1714 -0.4811 -0.1199
 3529TIP3   OH232077   0.049   5.069   0.825  0.0065 -0.2152  0.4588
 3529TIP3    H132078   0.047   5.164   0.836  0.8848 -0.0242 -0.8024
 3529TIP3    H232079  -0.042   5.042   0.835 -0.3175  0.8111  0.4465
 3530TIP3   OH232080   0.958   4.738  13.396 -0.0287  0.9580  0.0105
 3530TIP3    H132081   0.927   4.813  13.447  0.7615  2.3970 -1.5274
 3530TIP3    H232082   0.987   4.776  13.313 -0.4985 -1.1890 -1.1998
 3531TIP3   OH232083   3.097   2.154   5.591  0.1893  0.0758  0.2812
 3531TIP3    H132084   3.080   2.163   5.685 -0.3464 -0.0464  0.1973
 3531TIP3    H232085   3.014   2.175   5.550  1.0493  2.7510 -0.3135
 3532TIP3   OH232086   0.850   2.923   0.918  0.5140 -0.3106  0.0123
 3532TIP3    H132087   0.759   2.915   0.948 -0.1752  1.6196 -1.3531
 3532TIP3    H232088   0.902   2.882   0.987 -1.4438 -2.5174  0.3036
 3533TIP3   OH232089   3.519   1.514  15.007  0.4574  0.5449 -0.2814
 3533TIP3    H132090   3.487   1.453  14.941 -1.1340  0.6624  0.3496
 3533TIP3    H232091   3.571   1.578  14.958 -0.7197  0.6549 -1.4392
 3534TIP3   OH232092   1.577   1.005   0.543 -0.3466 -0.3229 -0.0926
 3534TIP3    H132093   1.571   1.083   0.598  1.9010 -1.4796  1.9752
 3534TIP3    H232094   1.503   1.012   0.483 -2.1030  1.7530  2.1374
 3535TIP3   OH232095   1.026   0.792   3.926  0.5024  0.7388  0.3900
 3535TIP3    H132096   1.008   0.813   4.018 -0.4587 -3.5319  1.3828
 3535TIP3    H232097   0.945   0.815   3.880  0.0996  0.6645  1.0498
 3536TIP3   OH232098   0.122   2.330  13.741  0.4945  0.1331 -0.8049
 3536TIP3    H132099   0.088   2.241  13.752 -0.7951  0.6621 -0.4078
 3536TIP3    H232100   0.046   2.382  13.713  0.4101  1.7864  2.1647
 3537TIP3   OH232101   2.137   4.992  16.011 -0.4248 -0.3689 -0.3794
 3537TIP3    H132102   2.120   4.944  16.093  1.1206  0.1471  0.2732
 3537TIP3    H232103   2.207   4.942  15.969  0.8069  0.9579  0.0348
 3538TIP3   OH232104   0.442   1.441  11.434 -0.1340 -0.6014 -0.1981
 3538TIP3    H132105   0.525   1.406  11.466  1.8682  2.3436 -1.7335
 3538TIP3    H232106   0.435   1.408  11.344  0.9713  1.4331 -1.0997
 3539TIP3   OH232107   1.430   1.972   6.304  0.7874  0.1793 -0.5107
 3539TIP3    H132108   1.404   2.056   6.266  0.3352  0.1020 -0.3820
 3539TIP3    H232109   1.525   1.976   6.308  0.7535  0.8421 -0.1475
 3540TIP3   OH232110   1.238   5.790   5.268 -0.4895  0.2699  0.0188
 3540TIP3    H132111   1.315   5.740   5.296 -0.7910 -0.5447 -0.5667
 3540TIP3    H232112   1.166   5.754   5.320 -0.3228  1.7876  1.3857
 3541TIP3   OH232113   6.648   0.341  13.227 -0.1430 -0.5765  0.1883
 3541TIP3    H132114   6.568   0.322  13.276 -0.5249 -2.2144 -0.9851
 3541TIP3    H232115   6.718   0.302  13.280 -0.1916  0.1500  0.8095
 3542TIP3   OH232116   5.866   0.631  14.738 -0.0695  0.9582  0.0578
 3542TIP3    H132117   5.900   0.721  14.735  0.9276  0.5690 -1.1860
 3542TIP3    H232118   5.774   0.641  14.762  0.7065  2.0957  2.9563
 3543TIP3   OH232119   1.646   0.017  16.469  0.3279  0.1896  0.5512
 3543TIP3    H132120   1.685  -0.032  16.397 -0.4224 -0.5950  0.6567
 3543TIP3    H232121   1.574  -0.039  16.500 -0.5851  1.3845  0.6517
 3544TIP3   OH232122   4.570   5.530  12.351 -0.0666  0.1099 -0.1188
 3544TIP3    H132123   4.477   5.550  12.337 -0.5174 -1.4593  0.4008
 3544TIP3    H232124   4.580   5.528  12.447 -0.4308 -3.3350 -0.0223
 3545TIP3   OH232125   3.264   2.407   4.372  0.1067 -0.7289 -0.1710
 3545TIP3    H132126   3.272   2.318   4.408  1.9833 -0.1162  1.0989
 3545TIP3    H232127   3.215   2.455   4.439  0.1079 -0.5341 -0.3118
 3546TIP3   OH232128   3.046   3.684  15.867 -0.2303 -0.2748  0.4689
 3546TIP3    H132129   2.965   3.664  15.915 -0.6241  0.7420  0.2661
 3546TIP3    H232130   3.087   3.754  15.918 -0.3896  0.4465 -0.3577
 3547TIP3   OH232131   2.226   1.198  14.753  0.2642 -0.5806 -0.0058
 3547TIP3    H132132   2.262   1.117  14.789  1.4578  0.6667  1.7640
 3547TIP3    H232133   2.148   1.215  14.805  0.7176  0.0537  0.4726
 3548TIP3   OH232134   4.532   3.266   1.811 -0.5840  0.1474  0.2781
 3548TIP3    H132135   4.456   3.305   1.768 -0.4645 -0.4669 -0.5204
 3548TIP3    H232136   4.586   3.234   1.739 -1.6855 -3.4115  0.8191
 3549TIP3   OH232137   3.738   4.029  12.335 -0.4908  0.3503  0.2896
 3549TIP3    H132138   3.735   4.097  12.401  1.8362 -0.4276  1.3318
 3549TIP3    H232139   3.671   3.966  12.361 -0.7074  0.8464  0.9496
 3550TIP3   OH232140   3.074   5.551  14.765 -0.1284 -0.1483  0.8209
 3550TIP3    H132141   2.988   5.525  14.732 -0.0265 -0.5210  0.8499
 3550TIP3    H232142   3.115   5.598  14.693 -0.6257  0.6320  1.0368
 3551TIP3   OH232143   6.561   0.979   0.222  0.8874  0.1204 -0.1312
 3551TIP3    H132144   6.630   0.916   0.242  0.4654 -0.8288 -1.4816
 3551TIP3    H232145   6.602   1.064   0.232  1.9931 -0.4108  0.0028
 3552TIP3   OH232146   6.113   5.248   3.587  0.0137  0.3158 -0.2839
 3552TIP3    H132147   6.117   5.152   3.581 -1.7860  0.2292 -0.7208
 3552TIP3    H232148   6.203   5.277   3.571  0.4129 -1.2547 -1.0908
 3553TIP3   OH232149   5.505   1.300   6.762 -0.2938  0.0437 -0.1514
 3553TIP3    H132150   5.526   1.312   6.670 -2.3336 -0.9474 -0.8010
 3553TIP3    H232151   5.526   1.208   6.779  1.0349  0.4705  0.6893
 3554TIP3   OH232152   0.789   3.827  14.373 -0.2128  0.2672  0.0374
 3554TIP3    H132153   0.796   3.882  14.295  1.1265 -1.9893 -1.5513
 3554TIP3    H232154   0.697   3.800  14.375 -0.2195  0.2092 -0.8484
 3555TIP3   OH232155   3.501   0.242  14.753  0.2086  0.6605  0.1455
 3555TIP3    H132156   3.588   0.252  14.715  0.1364 -2.2371 -1.0360
 3555TIP3    H232157   3.449   0.313  14.714  1.5594  1.2488 -0.6362
 3556TIP3   OH232158   4.363   4.328  13.417 -0.9047 -0.2597 -0.2169
 3556TIP3    H132159   4.398   4.351  13.503  1.0182  0.3975 -1.1078
 3556TIP3    H232160   4.283   4.380  13.409 -0.1327  1.0995  0.4801
 3557TIP3   OH232161   4.635   5.403   2.755 -0.1714  0.8907 -0.1997
 3557TIP3    H132162   4.698   5.369   2.818  0.4998  1.7753 -0.3740
 3557TIP3    H232163   4.654   5.497   2.751 -1.1000  1.0662 -0.7078
 3558TIP3   OH232164   3.564   2.456   2.589  0.2579 -0.1557 -0.7893
 3558TIP3    H132165   3.551   2.543   2.629  0.3715  0.3753 -1.8833
 3558TIP3    H232166   3.658   2.441   2.596  0.2163 -0.2675 -0.4501
 3559TIP3   OH232167   2.664   4.427   2.556  0.1217 -0.3286 -0.7978
 3559TIP3    H132168   2.757   4.409   2.539  0.2675  0.8273 -1.3511
 3559TIP3    H232169   2.659   4.522   2.560 -1.3625 -0.2805 -2.6928
 3560TIP3   OH232170   2.096   2.993   4.543  0.4968  0.4047  0.2772
 3560TIP3    H132171   2.114   2.900   4.524 -0.9155  0.4086 -1.2936
 3560TIP3    H232172   2.013   2.991   4.589  1.1670  0.8226  1.5347
 3561TIP3   OH232173   3.765   1.898  13.675  0.1665  0.4564  0.6841
 3561TIP3    H132174   3.812   1.938  13.602 -0.0301  0.2814  0.4584
 3561TIP3    H232175   3.762   1.805  13.654 -0.1638  0.4473  0.7580
 3562TIP3   OH232176   1.008   0.919   2.063  0.5374  0.5035 -0.6087
 3562TIP3    H132177   1.059   0.845   2.095 -0.3738 -0.2680 -0.8975
 3562TIP3    H232178   0.958   0.949   2.140  1.4631  1.3137 -0.3040
 3563TIP3   OH232179   4.579   5.061  13.611  0.0251  0.4310 -0.9437
 3563TIP3    H132180   4.626   4.981  13.588 -1.8021 -0.8889 -0.2375
 3563TIP3    H232181   4.648   5.126  13.622  1.7175 -1.4258  0.0753
 3564TIP3   OH232182   4.311   0.050   1.445  0.3612 -0.1301 -0.0648
 3564TIP3    H132183   4.268  -0.006   1.380 -2.7765  0.4581  1.3435
 3564TIP3    H232184   4.315  -0.003   1.524  2.4497 -0.1829 -0.1385
 3565TIP3   OH232185   2.155   5.105  13.210  0.2044  0.1352 -0.3888
 3565TIP3    H132186   2.176   5.014  13.230 -0.0412 -0.0393 -0.8808
 3565TIP3    H232187   2.231   5.155  13.238 -0.1111 -0.0875  0.9158
 3566TIP3   OH232188   1.191   3.513   4.728 -0.3139 -0.7894  0.1932
 3566TIP3    H132189   1.269   3.460   4.715  0.1143 -0.0639 -0.2386
 3566TIP3    H232190   1.223   3.603   4.735 -1.0496 -0.5486  0.6426
 3567TIP3   OH232191   2.155   4.115   2.479 -0.3022  0.4888 -0.4178
 3567TIP3    H132192   2.201   4.078   2.404 -0.6680  1.9403 -1.4096
 3567TIP3    H232193   2.078   4.157   2.441 -0.8726  0.6552  0.8674
 3568TIP3   OH232194   2.254   5.450   4.687 -0.2339 -0.5221  0.5233
 3568TIP3    H132195   2.229   5.478   4.776  0.2656 -1.5481  1.0071
 3568TIP3    H232196   2.184   5.484   4.631  0.6506  2.2555  0.9452
 3569TIP3   OH232197   1.884   4.509  11.973 -0.0295 -0.6260  0.1978
 3569TIP3    H132198   1.908   4.474  12.059  0.6387 -0.2317  0.1814
 3569TIP3    H232199   1.798   4.547  11.985  0.2980 -0.0701  0.8461
 3570TIP3   OH232200   1.402   0.364   3.143 -0.7108  0.0557 -0.1396
 3570TIP3    H132201   1.495   0.347   3.156 -1.0531 -0.9843  1.2843
 3570TIP3    H232202   1.388   0.452   3.178 -0.3488  0.0146  0.1124
 3571TIP3   OH232203   5.298   0.630   6.656  0.1391 -0.0069 -0.3574
 3571TIP3    H132204   5.254   0.564   6.602  0.9915 -0.0474 -1.0231
 3571TIP3    H232205   5.289   0.711   6.606 -0.6616  0.3484  0.3276
 3572TIP3   OH232206   3.783   6.282   5.681 -0.5705  0.2404 -0.6428
 3572TIP3    H132207   3.834   6.258   5.758 -0.4809 -1.8883 -1.2873
 3572TIP3    H232208   3.775   6.377   5.685  0.4204  0.2798  1.3492
 3573TIP3   OH232209   4.084   1.482  16.884 -0.0521 -0.2629  0.4126
 3573TIP3    H132210   4.064   1.472  16.791 -0.2726 -2.1824  0.6124
 3573TIP3    H232211   4.006   1.525  16.921 -0.2811 -0.1658 -0.1720
 3574TIP3   OH232212   2.656   2.717   2.655  0.1602  0.7285 -0.0306
 3574TIP3    H132213   2.724   2.658   2.686 -0.4008  0.7492  1.2929
 3574TIP3    H232214   2.690   2.805   2.672  1.0048  0.8345 -2.0203
 3575TIP3   OH232215   1.647   6.345  14.299  0.1774  0.7643 -0.1823
 3575TIP3    H132216   1.624   6.263  14.343 -1.0519 -0.0525 -2.2404
 3575TIP3    H232217   1.739   6.334  14.275  0.6121  0.8612  1.3031
 3576TIP3   OH232218   1.231   3.242   0.537 -0.2041 -0.1962 -0.1854
 3576TIP3    H132219   1.207   3.255   0.629  0.8994  1.5759 -0.1035
 3576TIP3    H232220   1.326   3.253   0.535 -0.0959 -1.1576 -1.4117
 3577TIP3   OH232221   4.566   5.837  11.357 -0.2239 -0.6953 -0.3568
 3577TIP3    H132222   4.645   5.851  11.304 -1.0691  0.2927 -1.4191
 3577TIP3    H232223   4.501   5.896  11.319 -1.3613 -1.1783  0.7611
 3578TIP3   OH232224   3.671   2.407   0.372 -0.5661 -0.4286  0.5610
 3578TIP3    H132225   3.707   2.431   0.457  0.3583  1.5202 -0.3122
 3578TIP3    H232226   3.591   2.460   0.364 -0.9909 -1.0692  0.4464
 3579TIP3   OH232227   6.269   0.508  13.817 -0.1679  0.2018  0.0933
 3579TIP3    H132228   6.198   0.447  13.836  0.3615 -0.3498  0.3202
 3579TIP3    H232229   6.283   0.500  13.722  1.2662 -1.5676  0.4120
 3580TIP3   OH232230   5.749   2.888   4.783 -0.8443 -0.3830  0.5084
 3580TIP3    H132231   5.834   2.852   4.809 -1.2111 -3.0055 -1.5353
 3580TIP3    H232232   5.750   2.978   4.817  2.8284 -0.2144  0.3469
 3581TIP3   OH232233   3.426   2.960   7.090 -0.3044  0.2580 -0.0353
 3581TIP3    H132234   3.339   2.923   7.078 -0.2202 -0.0434  0.2341
 3581TIP3    H232235   3.413   3.036   7.147 -0.2808 -0.3721  0.8388
 3582TIP3   OH232236   3.296   0.779  11.521 -0.0760 -0.7004  0.0921
 3582TIP3    H132237   3.234   0.771  11.594 -0.2355 -0.4620 -0.0171
 3582TIP3    H232238   3.242   0.769  11.443 -0.4883  2.3680 -0.1207
 3583TIP3   OH232239   1.337   2.135   1.138 -0.3569  0.3864 -0.1276
 3583TIP3    H132240   1.422   2.101   1.111  0.0111  0.3080  1.0864
 3583TIP3    H232241   1.341   2.229   1.118  0.2258  0.4834  0.4219
 3584TIP3   OH232242   2.778   5.353   5.341 -0.2299 -0.2673  0.8140
 3584TIP3    H132243   2.819   5.306   5.268  0.5694  2.1730 -0.4094
 3584TIP3    H232244   2.848   5.407   5.377 -1.1567  0.1641  2.0376
 3585TIP3   OH232245   1.105   2.816   6.644 -0.0942 -0.3736 -0.8107
 3585TIP3    H132246   1.123   2.763   6.566  1.5079 -0.6076 -0.3087
 3585TIP3    H232247   1.158   2.777   6.713  1.3733  2.0111 -0.4630
 3586TIP3   OH232248   5.107   6.268  14.691 -0.7576 -0.1890 -0.0787
 3586TIP3    H132249   5.095   6.342  14.632  0.9595 -1.4392 -2.1288
 3586TIP3    H232250   5.040   6.205  14.665 -0.8861 -0.2107  0.2859
 3587TIP3   OH232251   2.225   0.943   4.322  0.1599  0.0556 -0.1124
 3587TIP3    H132252   2.185   1.002   4.258  0.3638  0.2215 -0.0849
 3587TIP3    H232253   2.157   0.931   4.389 -0.1114 -0.2354 -0.4302
 3588TIP3   OH232254   6.562   0.812   0.584 -0.4305  0.2929  0.2702
 3588TIP3    H132255   6.605   0.752   0.645  0.1524 -1.4184 -1.6887
 3588TIP3    H232256   6.527   0.755   0.516  1.0802  2.2174 -2.2785
 3589TIP3   OH232257   0.683   5.936   2.698 -0.1878  0.2194  0.5029
 3589TIP3    H132258   0.602   5.908   2.657 -0.1520 -0.5589  0.9389
 3589TIP3    H232259   0.738   5.966   2.626  0.0641 -1.6010 -0.1241
 3590TIP3   OH232260   6.472   4.839  13.887  0.0251  0.2835 -0.0196
 3590TIP3    H132261   6.542   4.904  13.896 -0.0181  0.4760 -0.9931
 3590TIP3    H232262   6.465   4.824  13.793 -1.2024  0.2173  0.0713
 3591TIP3   OH232263   0.737   2.562   1.836  0.2925  0.3970 -0.6119
 3591TIP3    H132264   0.821   2.519   1.819  1.1482  2.2167 -1.2206
 3591TIP3    H232265   0.695   2.567   1.750 -0.6955 -0.9279 -0.2393
 3592TIP3   OH232266   0.193   4.905  13.109 -0.1266  0.2429  0.9573
 3592TIP3    H132267   0.249   4.827  13.115 -2.5547 -1.7045  0.2224
 3592TIP3    H232268   0.236   4.960  13.043  0.4673 -1.5851 -0.2705
 3593TIP3   OH232269   0.368   6.371   3.547  0.1026 -0.7146 -0.6389
 3593TIP3    H132270   0.308   6.422   3.493  0.3587 -3.0380 -3.3849
 3593TIP3    H232271   0.312   6.309   3.594 -0.0349  0.6813  1.1115
 3594TIP3   OH232272   6.093   4.381   2.389 -0.1059 -0.3290  0.3740
 3594TIP3    H132273   6.045   4.451   2.344 -0.2835 -0.0244  1.0127
 3594TIP3    H232274   6.168   4.426   2.428 -0.8950 -0.2179  1.8701
 3595TIP3   OH232275   4.323   4.228  12.655  0.1003 -0.5741  0.0895
 3595TIP3    H132276   4.389   4.245  12.587  1.9860  0.3666  2.0582
 3595TIP3    H232277   4.365   4.165  12.714 -0.5613  0.3795  1.6357
 3596TIP3   OH232278   5.694   1.714  16.451 -0.7400 -0.2402  0.3287
 3596TIP3    H132279   5.764   1.651  16.434  0.5693  1.0695  0.5487
 3596TIP3    H232280   5.655   1.730  16.365 -2.2416 -2.5307  0.4979
 3597TIP3   OH232281   3.042   0.441  16.175 -0.4583 -0.1794 -0.3128
 3597TIP3    H132282   3.056   0.456  16.269 -0.0154  1.3902 -0.6107
 3597TIP3    H232283   2.954   0.475  16.158  0.2551  1.4505 -0.8503
 3598TIP3   OH232284   1.392   0.719   3.062 -0.1179  0.4136  0.2290
 3598TIP3    H132285   1.473   0.696   3.017 -0.0211  0.1916  0.5152
 3598TIP3    H232286   1.415   0.722   3.154 -1.0075 -2.4518  0.6529
 3599TIP3   OH232287   1.980   1.464  15.485 -0.5460  0.2388 -0.8117
 3599TIP3    H132288   1.987   1.558  15.502  0.2563  0.2718 -1.3036
 3599TIP3    H232289   1.974   1.457  15.390  1.1480 -0.2998 -0.9001
 3600TIP3   OH232290   1.042   1.998   6.253 -0.7404  0.3717  0.0492
 3600TIP3    H132291   0.985   2.068   6.223 -0.0048  2.0213  2.2797
 3600TIP3    H232292   1.035   1.999   6.348 -0.0272 -2.0449  0.2085
 3601TIP3   OH232293   1.072   5.246   2.769  0.1653 -0.2145 -0.1402
 3601TIP3    H132294   1.019   5.319   2.799  1.6898  0.8167  0.1222
 3601TIP3    H232295   1.122   5.281   2.696  1.2559 -0.8529  0.2801
 3602TIP3   OH232296   4.596   4.680   5.952 -0.3924  0.1824 -0.1590
 3602TIP3    H132297   4.667   4.638   6.001 -1.8254 -0.7910  1.1671
 3602TIP3    H232298   4.573   4.616   5.884 -0.4342  0.2282 -0.1885
 3603TIP3   OH232299   2.292   2.378  16.305 -0.0529 -0.3419 -0.2581
 3603TIP3    H132300   2.263   2.296  16.344  0.2011  0.0003  0.6771
 3603TIP3    H232301   2.214   2.433  16.304  0.1481 -0.0360  0.6160
 3604TIP3   OH232302   2.803   3.601   1.772 -0.3414  0.1983 -0.3170
 3604TIP3    H132303   2.806   3.526   1.712  2.2534  0.6769 -0.9111
 3604TIP3    H232304   2.722   3.646   1.750 -2.8922 -3.1922  1.1552
 3605TIP3   OH232305   3.506   0.695  15.573 -0.0502 -0.2178 -0.1493
 3605TIP3    H132306   3.448   0.707  15.649  0.6795  0.4585  0.3127
 3605TIP3    H232307   3.523   0.783  15.541  0.9796 -0.3806 -0.0797
 3606TIP3   OH232308   4.206   4.599  15.244  0.1105 -0.1152  0.5669
 3606TIP3    H132309   4.260   4.668  15.283 -1.4303  0.8791  1.0829
 3606TIP3    H232310   4.203   4.531  15.311  0.1215  0.1606  0.8534
 3607TIP3   OH232311   5.901   6.205  16.029 -0.0211 -0.6699 -0.4879
 3607TIP3    H132312   5.878   6.266  15.960 -0.1837 -0.3069 -0.1134
 3607TIP3    H232313   5.831   6.213  16.093  1.2622  0.6897  0.8273
 3608TIP3   OH232314   0.668   0.579   2.562 -0.2615  0.2760  0.1266
 3608TIP3    H132315   0.720   0.503   2.591  1.1146  0.5053 -1.5596
 3608TIP3    H232316   0.701   0.651   2.616  0.3435  0.1832 -0.1053
 3609TIP3   OH232317   3.938   6.418  17.154  0.4025 -0.6373 -0.3047
 3609TIP3    H132318   3.931   6.506  17.191  0.2477 -1.5065  1.8452
 3609TIP3    H232319   4.032   6.406  17.141  0.3549  0.2250 -1.6845
 3610TIP3   OH232320   2.169   6.477  11.933  0.3139  0.4334 -0.5683
 3610TIP3    H132321   2.168   6.508  11.842  0.6667 -1.8102 -1.4002
 3610TIP3    H232322   2.173   6.382  11.926 -0.4508  0.1618  1.8305
 3611TIP3   OH232323   5.580   3.023   1.210  0.9378  0.0762  0.0457
 3611TIP3    H132324   5.578   3.067   1.125  2.1530 -1.0131 -0.5805
 3611TIP3    H232325   5.656   2.965   1.206  0.9265 -0.1381  1.8206
 3612TIP3   OH232326   6.312   5.147   0.456 -0.5631  0.2214  0.0495
 3612TIP3    H132327   6.304   5.236   0.487  0.1997  0.8751 -1.4927
 3612TIP3    H232328   6.237   5.134   0.398 -0.5415 -0.0597  0.0803
 3613TIP3   OH232329   6.441   0.835   4.133 -0.3554 -0.4730 -0.4966
 3613TIP3    H132330   6.355   0.797   4.149 -1.5441  1.3760 -1.9208
 3613TIP3    H232331   6.442   0.850   4.038  0.4046  1.9763 -0.1659
 3614TIP3   OH232332   6.432   2.234   1.812 -0.5050  0.0394  0.2875
 3614TIP3    H132333   6.401   2.324   1.825 -1.1527 -0.3201  1.2837
 3614TIP3    H232334   6.383   2.203   1.735  0.0681  0.6805 -0.3521
 3615TIP3   OH232335   0.104   0.500  13.141 -0.1205  0.0833 -0.4434
 3615TIP3    H132336   0.139   0.445  13.071  1.3527 -0.5973  0.7656
 3615TIP3    H232337   0.034   0.448  13.180  0.5496 -0.5093  0.0014
 3616TIP3   OH232338   0.732   3.411  10.955  0.2296 -0.4682  0.1074
 3616TIP3    H132339   0.819   3.441  10.981 -0.4110  1.0923  0.5477
 3616TIP3    H232340   0.704   3.353  11.027  1.4727 -2.2324 -0.7543
 3617TIP3   OH232341   3.407   5.608  12.177 -0.4275 -0.3644 -0.4568
 3617TIP3    H132342   3.478   5.553  12.144  1.1578  0.9684  0.5488
 3617TIP3    H232343   3.410   5.686  12.123  0.8196  0.9327  1.3629
 3618TIP3   OH232344   5.111   6.160  12.560 -0.1873  0.2439 -0.1505
 3618TIP3    H132345   5.090   6.207  12.480 -0.3845 -0.6237 -0.6240
 3618TIP3    H232346   5.199   6.189  12.583  0.0137  0.2372 -0.8814
 3619TIP3   OH232347   5.394   0.687   0.289 -0.4523 -0.1879 -0.2605
 3619TIP3    H132348   5.324   0.630   0.320  1.0509 -2.0953 -0.1189
 3619TIP3    H232349   5.392   0.677   0.194 -1.1459  0.7634 -0.3574
 3620TIP3   OH232350   2.542   3.457  11.568  0.0803 -0.2071  0.0352
 3620TIP3    H132351   2.615   3.466  11.630  1.1066 -0.2507 -1.1262
 3620TIP3    H232352   2.566   3.513  11.495 -1.7936  0.9693  0.2433
 3621TIP3   OH232353   4.094   2.207  17.278 -0.0279  0.1785 -0.1103
 3621TIP3    H132354   4.135   2.169  17.355  2.7930  0.2238 -1.4404
 3621TIP3    H232355   4.109   2.302  17.288 -1.7456  0.4367  0.3497
 3622TIP3   OH232356   5.130   2.389  14.768 -0.0912 -0.2185  0.0465
 3622TIP3    H132357   5.141   2.294  14.779 -1.1085 -0.3339  0.1403
 3622TIP3    H232358   5.035   2.402  14.764  0.0585  0.5130 -2.5467
 3623TIP3   OH232359   1.964   4.524   2.409  0.3699 -0.0781  0.1414
 3623TIP3    H132360   1.931   4.598   2.357  0.0074 -0.9925 -0.9951
 3623TIP3    H232361   2.059   4.532   2.404  0.3421 -0.1256 -0.6638
 3624TIP3   OH232362   2.630   1.235   0.928 -0.6598 -0.1036 -0.7399
 3624TIP3    H132363   2.607   1.313   0.877 -3.7962 -0.2579  0.2465
 3624TIP3    H232364   2.660   1.172   0.862 -0.8663  0.9687 -1.9123
 3625TIP3   OH232365   6.281   3.876  15.713 -0.2912 -0.0626  0.0428
 3625TIP3    H132366   6.339   3.952  15.711  2.7312 -2.1944 -0.0147
 3625TIP3    H232367   6.211   3.898  15.652  1.2519  2.0920 -1.1119
 3626TIP3   OH232368   0.395   5.688  16.075  0.0871  0.2178  0.0002
 3626TIP3    H132369   0.453   5.713  16.147  0.3040  0.2361 -0.1788
 3626TIP3    H232370   0.307   5.690  16.113  0.3886 -2.5911  1.0522
 3627TIP3   OH232371   3.163   4.886  11.856  0.1126 -0.0589  0.8500
 3627TIP3    H132372   3.236   4.825  11.849 -1.5320 -2.5073  3.1302
 3627TIP3    H232373   3.109   4.851  11.927 -2.1906  2.8052  0.6937
 3628TIP3   OH232374   5.122   4.068  17.011  0.5029 -0.3787  0.7036
 3628TIP3    H132375   5.127   4.155  17.051 -0.9499 -0.5387  1.3152
 3628TIP3    H232376   5.030   4.044  17.019  0.8673 -1.9503  0.4702
 3629TIP3   OH232377   1.208   3.850  14.007  0.0492 -0.2759  0.1796
 3629TIP3    H132378   1.251   3.831  13.924 -2.1156 -0.0763 -1.0574
 3629TIP3    H232379   1.267   3.814  14.073  1.6280 -0.8191 -1.4460
 3630TIP3   OH232380   6.682   4.079  11.070  0.0174  0.5188  0.6336
 3630TIP3    H132381   6.727   4.009  11.023  0.3343  2.1489 -1.6822
 3630TIP3    H232382   6.590   4.051  11.071  0.0154  0.3662 -0.9264
 3631TIP3   OH232383   2.091   4.084  16.932 -0.2810  0.0353  0.5098
 3631TIP3    H132384   2.069   4.135  17.010 -0.3989 -0.7761  1.0113
 3631TIP3    H232385   2.024   4.016  16.928 -0.2760  0.0699 -0.3066
 3632TIP3   OH232386   5.001   3.839   2.016 -0.4772 -0.1483  0.8421
 3632TIP3    H132387   4.968   3.749   2.026 -0.5406 -0.4289 -1.3862
 3632TIP3    H232388   5.029   3.864   2.104 -0.1583 -2.4644  1.4752
 3633TIP3   OH232389   3.377   2.944   0.842 -0.3981  0.2672  1.4005
 3633TIP3    H132390   3.316   3.016   0.829 -0.8776 -0.3149  0.1950
 3633TIP3    H232391   3.463   2.986   0.846 -0.7994  1.0346  2.4278
 3634TIP3   OH232392   1.051   2.916  11.318  0.1191 -0.1302 -0.8680
 3634TIP3    H132393   1.058   2.887  11.409  0.6349  1.7735 -0.2584
 3634TIP3    H232394   1.139   2.946  11.295 -0.3609  0.8769 -1.4530
 3635TIP3   OH232395   3.794   2.858   3.352  0.1118 -0.2517  0.2750
 3635TIP3    H132396   3.767   2.949   3.343 -0.4366 -0.4530 -0.2004
 3635TIP3    H232397   3.883   2.856   3.315 -0.1843 -0.0613 -0.4612
 3636TIP3   OH232398   3.826   4.110   2.302  0.3227  0.2735 -0.4240
 3636TIP3    H132399   3.910   4.155   2.306  1.1560 -1.2213 -0.4025
 3636TIP3    H232400   3.771   4.157   2.365  0.6295  2.1952 -1.5114
 3637TIP3   OH232401   6.572   3.138  15.430 -0.7905 -0.0823  0.1591
 3637TIP3    H132402   6.479   3.124  15.450 -0.8405  1.1435  0.8667
 3637TIP3    H232403   6.606   3.186  15.505  1.1251 -2.8860  1.2249
 3638TIP3   OH232404   3.174   4.195   4.089 -0.6383 -0.7776  0.2009
 3638TIP3    H132405   3.235   4.232   4.026 -1.5419 -0.1065 -0.3072
 3638TIP3    H232406   3.139   4.117   4.045 -0.8751 -0.6041  0.0763
 3639TIP3   OH232407   4.921   3.974  13.191  0.8434  0.2916 -0.1741
 3639TIP3    H132408   4.960   3.888  13.206  0.0927 -0.3666 -1.7112
 3639TIP3    H232409   4.870   3.991  13.270  0.8339 -0.7786  0.0693
 3640TIP3   OH232410   4.578   4.040   3.986 -0.0018  0.9420 -0.0856
 3640TIP3    H132411   4.545   3.971   4.044  1.3359 -0.2996 -0.7319
 3640TIP3    H232412   4.602   4.112   4.044 -0.8631  0.6325  0.6670
 3641TIP3   OH232413   0.219   0.468  17.300  0.0972  0.6918 -0.0897
 3641TIP3    H132414   0.240   0.491  17.210 -3.4688  1.1626 -0.9541
 3641TIP3    H232415   0.277   0.523  17.353  0.9475  1.8499 -2.1040
 3642TIP3   OH232416   0.846   4.646   3.774  0.0683 -0.4874 -0.3547
 3642TIP3    H132417   0.785   4.573   3.787 -0.8898  0.1846 -0.9012
 3642TIP3    H232418   0.834   4.671   3.682  0.4072  0.3276 -0.1884
 3643TIP3   OH232419   1.342   6.464   5.075 -0.6619 -0.5812 -0.1502
 3643TIP3    H132420   1.383   6.535   5.025 -1.0118 -0.6072 -0.4853
 3643TIP3    H232421   1.304   6.507   5.152  0.6562 -0.6730  0.5690
 3644TIP3   OH232422   5.527   2.667   3.051 -0.2060  0.3294 -0.5456
 3644TIP3    H132423   5.511   2.622   3.134 -0.5994  0.0146 -0.7851
 3644TIP3    H232424   5.617   2.699   3.057  0.1894 -0.7569 -0.4894
 3645TIP3   OH232425   1.741   0.285  14.633  0.1926  0.1513  0.0400
 3645TIP3    H132426   1.712   0.255  14.720 -0.2878 -0.6198 -0.3717
 3645TIP3    H232427   1.740   0.206  14.579  1.3364  0.4617 -0.4586
 3646TIP3   OH232428   1.960   1.363  13.229  0.6451  0.2082 -0.1605
 3646TIP3    H132429   1.967   1.340  13.136 -0.8444 -1.6874  0.1372
 3646TIP3    H232430   2.016   1.299  13.274  2.0384  1.6322  0.2545
 3647TIP3   OH232431   2.331   5.972   0.900 -0.0807  0.2715  0.1516
 3647TIP3    H132432   2.361   5.912   0.831  0.0976  0.2376  0.2563
 3647TIP3    H232433   2.312   5.914   0.974 -1.2096  0.2014 -0.1742
 3648TIP3   OH232434   2.473   4.207   0.278  0.8584  0.5830 -0.5558
 3648TIP3    H132435   2.473   4.207   0.373 -2.6377  2.2745 -0.3919
 3648TIP3    H232436   2.419   4.132   0.253 -0.3777  1.5981 -1.0454
 3649TIP3   OH232437   5.256   4.726  13.073 -0.2927 -0.3322 -0.4654
 3649TIP3    H132438   5.207   4.658  13.118 -0.4212 -0.1028 -0.2524
 3649TIP3    H232439   5.207   4.807  13.090 -0.2047 -0.2013 -0.8058
 3650TIP3   OH232440   5.516   2.206  17.150  0.0964 -0.0999  0.5141
 3650TIP3    H132441   5.519   2.255  17.232 -1.3144 -0.3490  0.7493
 3650TIP3    H232442   5.433   2.158  17.154  0.9433 -1.7082 -0.1721
 3651TIP3   OH232443   5.020   6.500  16.885 -0.1660 -0.1941 -0.0767
 3651TIP3    H132444   5.053   6.421  16.928 -0.3680  0.8495  2.1194
 3651TIP3    H232445   4.931   6.477  16.858 -0.2182 -0.7325  0.5384
 3652TIP3   OH232446   0.343   6.549  12.718 -0.2669 -0.1892  0.4262
 3652TIP3    H132447   0.408   6.484  12.745 -0.6851 -1.4580 -1.4485
 3652TIP3    H232448   0.264   6.498  12.698 -0.5748  0.8350 -1.1908
 3653TIP3   OH232449   2.440   2.096   1.319 -0.3210 -0.5556 -0.3654
 3653TIP3    H132450   2.405   2.100   1.230  0.8307 -0.3502 -0.8346
 3653TIP3    H232451   2.528   2.133   1.312 -0.4292  0.0409  0.9832
 3654TIP3   OH232452   1.870   3.577   5.615  0.4013  0.6202  0.6949
 3654TIP3    H132453   1.951   3.540   5.580  1.3743 -0.5962  3.9375
 3654TIP3    H232454   1.881   3.672   5.604  0.3896  0.3750 -2.5097
 3655TIP3   OH232455   4.200   6.541   5.888  0.0246  0.0934 -0.6930
 3655TIP3    H132456   4.262   6.611   5.908 -0.2111  0.5677 -1.5320
 3655TIP3    H232457   4.122   6.563   5.940  0.5692 -0.5569  0.4366
 3656TIP3   OH232458   4.161   6.652   5.525 -0.2647 -0.1736  0.4849
 3656TIP3    H132459   4.167   6.636   5.430 -1.2511  1.1840  0.1712
 3656TIP3    H232460   4.218   6.727   5.540  0.9479 -1.2041  1.2219
 3657TIP3   OH232461   0.485   5.520   5.964 -0.4173 -0.5294 -0.0445
 3657TIP3    H132462   0.490   5.454   5.895 -0.7709 -1.7902  1.0609
 3657TIP3    H232463   0.407   5.495   6.014  1.4207 -1.5195  2.5638
 3658TIP3   OH232464   5.937   3.015  16.035 -0.0515 -0.3037 -0.4972
 3658TIP3    H132465   5.997   3.053  15.972  2.7920 -0.5907  1.8181
 3658TIP3    H232466   5.921   3.084  16.099 -0.6839 -0.8161 -0.0788
 3659TIP3   OH232467   5.451   5.282  12.639 -0.0603  0.6355  0.0698
 3659TIP3    H132468   5.461   5.187  12.626  0.4000  0.5325  1.0576
 3659TIP3    H232469   5.363   5.301  12.607 -0.6188 -0.3444  0.9334
 3660TIP3   OH232470   0.330   3.122  17.366  1.0431 -0.0545 -0.1712
 3660TIP3    H132471   0.398   3.189  17.376  0.6498  0.5120 -1.2101
 3660TIP3    H232472   0.376   3.039  17.377  2.2235  0.2507 -2.3277
 3661TIP3   OH232473   2.773   3.252  14.690 -0.3135 -0.1971 -0.6329
 3661TIP3    H132474   2.764   3.328  14.633 -3.7205 -0.8355 -1.1787
 3661TIP3    H232475   2.723   3.275  14.768 -1.4187 -1.8032 -0.8115
 3662TIP3   OH232476   3.327   4.114   1.618 -1.0293 -0.2930 -0.2766
 3662TIP3    H132477   3.262   4.099   1.549 -1.2045 -0.3272 -0.1066
 3662TIP3    H232478   3.275   4.131   1.696 -0.8834  2.5268 -0.6911
 3663TIP3   OH232479   3.086   4.057   0.564  0.1837 -0.4531 -0.4527
 3663TIP3    H132480   3.174   4.082   0.536 -0.0265  0.2315 -0.5280
 3663TIP3    H232481   3.099   3.989   0.629  0.8373  0.6535  0.6173
 3664TIP3   OH232482   0.708   5.550   0.148  0.2233  0.5330  0.1660
 3664TIP3    H132483   0.701   5.541   0.053  0.3807  1.3983  0.0682
 3664TIP3    H232484   0.630   5.506   0.182 -0.2309  0.8906 -0.3995
 3665TIP3   OH232485   4.677   1.777  13.326 -0.1650 -0.1035  0.1024
 3665TIP3    H132486   4.725   1.695  13.318 -0.4781 -0.1467 -1.8652
 3665TIP3    H232487   4.585   1.752  13.316 -0.6476  0.0637  3.1076
 3666TIP3   OH232488   0.795   1.545  14.024 -0.1041 -0.2428  0.4707
 3666TIP3    H132489   0.818   1.484  14.095 -2.9251 -1.3123  0.5631
 3666TIP3    H232490   0.877   1.556  13.976  0.4990 -4.6369  0.0685
 3667TIP3   OH232491   4.346   1.901  15.356 -0.1935  0.4608 -0.1097
 3667TIP3    H132492   4.269   1.945  15.393  0.2820 -0.4296  2.0894
 3667TIP3    H232493   4.413   1.908  15.425  0.8262 -1.1154 -0.8881
 3668TIP3   OH232494   3.212   5.292  13.863 -0.2860 -0.1058 -0.0150
 3668TIP3    H132495   3.175   5.364  13.812  0.0200 -0.3021 -0.5229
 3668TIP3    H232496   3.144   5.226  13.864  0.1568 -0.6049 -1.2399
 3669TIP3   OH232497   5.941   5.861   6.348 -0.0670 -0.2181  0.5774
 3669TIP3    H132498   5.908   5.792   6.406  2.0394 -2.3228 -0.5571
 3669TIP3    H232499   6.035   5.861   6.362  0.1317  1.5816 -0.4335
 3670TIP3   OH232500   4.463   2.496   0.022 -0.2075 -0.5462 -0.4155
 3670TIP3    H132501   4.472   2.589   0.042 -0.1342 -0.3188 -1.4399
 3670TIP3    H232502   4.447   2.455   0.106 -1.1895  0.5114 -0.0531
 3671TIP3   OH232503   5.137   1.917  16.983 -0.1746  0.6932  0.3314
 3671TIP3    H132504   5.058   1.969  16.999 -0.2888  0.2992  1.1302
 3671TIP3    H232505   5.133   1.894  16.890 -1.9922 -0.8858  0.7339
 3672TIP3   OH232506   0.359   5.148  16.039 -0.2050 -0.0033  0.9259
 3672TIP3    H132507   0.363   5.242  16.022 -0.5718 -0.0336  0.6489
 3672TIP3    H232508   0.450   5.121  16.050  0.1355 -0.0606 -1.5084
 3673TIP3   OH232509   3.093   2.092  16.219 -0.0921  0.2907  0.2821
 3673TIP3    H132510   3.099   2.117  16.311  1.3563 -1.8041  0.8396
 3673TIP3    H232511   3.128   2.003  16.216 -0.7630  0.0321 -2.2003
 3674TIP3   OH232512   6.437   5.371   5.064  0.0156 -0.4746 -0.4452
 3674TIP3    H132513   6.448   5.463   5.038  0.6614 -0.8928 -1.7517
 3674TIP3    H232514   6.383   5.375   5.143  0.8815  1.0965  0.1335
 3675TIP3   OH232515   6.228   4.632   1.121  0.0392  0.5125  0.3074
 3675TIP3    H132516   6.167   4.679   1.178  0.0967  0.3262  0.5256
 3675TIP3    H232517   6.289   4.699   1.090  1.1680  0.3250  1.9800
 3676TIP3   OH232518   0.037   0.071  16.684 -0.1202 -0.0689  0.0358
 3676TIP3    H132519   0.076   0.037  16.765 -0.1735  0.7946  0.4298
 3676TIP3    H232520  -0.037   0.124  16.714 -0.8257 -0.6501 -0.6380
 3677TIP3   OH232521   0.467   5.564   0.649  0.4656 -0.6877 -0.5273
 3677TIP3    H132522   0.428   5.607   0.573  0.9757 -1.3685 -1.1944
 3677TIP3    H232523   0.396   5.558   0.713  0.4257  1.2842 -0.3254
 3678TIP3   OH232524   1.823   6.696   0.265 -0.6676 -0.5012  0.0403
 3678TIP3    H132525   1.893   6.711   0.329  0.6588 -0.6362 -1.3214
 3678TIP3    H232526   1.747   6.673   0.318  0.9409 -2.9156  1.5414
 3679TIP3   OH232527   0.235   3.874  13.759  0.0128 -0.2967 -0.1894
 3679TIP3    H132528   0.206   3.876  13.850  0.1182  0.5251 -0.1653
 3679TIP3    H232529   0.268   3.962  13.742  0.0164 -0.4462 -1.0192
 3680TIP3   OH232530   6.518   0.415   2.694  0.3735  0.3797 -0.0425
 3680TIP3    H132531   6.571   0.444   2.619  0.0660 -1.2559 -0.9481
 3680TIP3    H232532   6.562   0.453   2.770  1.7090  0.6855 -0.9179
 3681TIP3   OH232533   1.020   4.926   3.135  0.0202 -0.2976 -0.0092
 3681TIP3    H132534   0.982   4.919   3.223  0.1967  0.2330  0.1100
 3681TIP3    H232535   1.114   4.915   3.148  0.1900  1.1026  0.0437
 3682TIP3   OH232536   1.509   0.293   1.707  0.1761  0.5519  0.7793
 3682TIP3    H132537   1.442   0.273   1.771 -0.3856 -0.0604  0.0304
 3682TIP3    H232538   1.491   0.233   1.634  0.9568  1.0301  0.1687
 3683TIP3   OH232539   5.105   0.089  15.777  0.0273 -0.0288  0.4610
 3683TIP3    H132540   5.083  -0.003  15.761  1.0394 -0.2815  0.4333
 3683TIP3    H232541   5.155   0.114  15.699  2.9906 -0.5742  2.0462
 3684TIP3   OH232542   0.365   2.548  13.616 -0.3084 -0.4555  0.4281
 3684TIP3    H132543   0.378   2.470  13.563 -0.1462  0.8403 -1.5453
 3684TIP3    H232544   0.313   2.607  13.561  0.4703  1.2396  1.4026
 3685TIP3   OH232545   2.086   0.504  16.593 -0.6666 -0.1325  0.3567
 3685TIP3    H132546   2.053   0.594  16.590  0.8923  0.4778  0.6085
 3685TIP3    H232547   2.168   0.510  16.642 -0.4858 -1.6791  0.2914
 3686TIP3   OH232548   6.767   1.003  11.308 -0.0569 -0.2993  0.5876
 3686TIP3    H132549   6.727   1.047  11.233  0.2171 -1.1851 -0.0826
 3686TIP3    H232550   6.698   0.947  11.343 -0.1042 -0.0818  0.8542
 3687TIP3   OH232551   3.951   4.365   5.785 -0.1957 -0.4620  0.0787
 3687TIP3    H132552   4.036   4.367   5.828 -0.4554 -0.6299  0.6005
 3687TIP3    H232553   3.893   4.321   5.846 -0.8209  0.2452  0.0203
 3688TIP3   OH232554   3.343   6.575  17.230 -0.0719 -0.7003  0.2625
 3688TIP3    H132555   3.393   6.499  17.259  0.5942 -0.5448 -0.4262
 3688TIP3    H232556   3.314   6.552  17.142  0.5961  0.0426 -0.1639
 3689TIP3   OH232557   4.066   3.803   4.676 -0.3899 -0.4432 -0.4700
 3689TIP3    H132558   4.161   3.816   4.671 -0.3000 -1.5177 -2.4983
 3689TIP3    H232559   4.030   3.891   4.683  0.6650  0.1381 -1.8920
 3690TIP3   OH232560   1.059   3.388   3.052  0.2444  0.0778  0.1215
 3690TIP3    H132561   0.964   3.395   3.051  0.3642  2.6117  0.4379
 3690TIP3    H232562   1.079   3.337   3.131 -0.8053  0.8253  0.8923
 3691TIP3   OH232563   6.425   0.683  11.078  0.4069  0.1843 -0.5048
 3691TIP3    H132564   6.407   0.776  11.073 -0.4685 -0.0245 -2.0762
 3691TIP3    H232565   6.471   0.671  11.161 -0.2674  1.8647  0.1482
 3692TIP3   OH232566   5.569   4.382   2.877 -0.0283 -0.3787  0.2710
 3692TIP3    H132567   5.660   4.357   2.896  0.1909  0.1134 -0.1037
 3692TIP3    H232568   5.518   4.304   2.898  0.3761 -0.3762  1.3378
 3693TIP3   OH232569   3.969   5.643  17.034 -0.1603 -0.3521  0.2707
 3693TIP3    H132570   3.967   5.555  17.070  1.7518  0.0263  1.4496
 3693TIP3    H232571   4.053   5.649  16.989  1.1285  1.6812  2.6547
 3694TIP3   OH232572   5.544   0.636  15.360  0.0134 -0.3093  0.1372
 3694TIP3    H132573   5.511   0.595  15.280 -1.7057  0.1386  0.5684
 3694TIP3    H232574   5.487   0.602  15.430  1.0176 -0.1352  1.0756
 3695TIP3   OH232575   1.395   5.528  14.641 -0.3144  0.0172 -0.2484
 3695TIP3    H132576   1.423   5.438  14.660  0.0723  0.5119  1.7698
 3695TIP3    H232577   1.302   5.530  14.663  0.0880  0.5366  1.6307
 3696TIP3   OH232578   1.989   0.387  14.973  0.0324  0.1762  0.6257
 3696TIP3    H132579   1.966   0.452  14.907  1.4237 -1.3283 -1.4592
 3696TIP3    H232580   2.039   0.435  15.038  2.1051  1.0543 -1.4886
 3697TIP3   OH232581   4.911   4.885   4.345 -0.1364  0.0894  0.3307
 3697TIP3    H132582   4.827   4.843   4.365  1.4346 -1.6723  4.0368
 3697TIP3    H232583   4.953   4.826   4.282 -1.3127  0.6718 -1.0772
 3698TIP3   OH232584   0.808   1.411  16.367  0.3285  0.1874 -0.2443
 3698TIP3    H132585   0.850   1.457  16.440  0.3736 -1.5052  0.8530
 3698TIP3    H232586   0.874   1.348  16.338 -0.0928  0.0995 -1.0252
 3699TIP3   OH232587   3.405   2.050  17.341  0.3110 -0.5951 -0.0841
 3699TIP3    H132588   3.393   1.963  17.380  1.8202  0.0254  1.8667
 3699TIP3    H232589   3.469   2.093  17.396 -2.8810  3.1101  1.2187
 3700TIP3   OH232590   5.738   2.850   2.201 -0.2958  1.1700 -0.3713
 3700TIP3    H132591   5.785   2.915   2.255  0.1574 -0.8667  1.8580
 3700TIP3    H232592   5.779   2.767   2.223 -2.7133 -0.2672 -0.9723
 3701TIP3   OH232593   1.250   5.040   1.306  0.1179 -0.2233 -0.1485
 3701TIP3    H132594   1.178   5.006   1.358 -0.7002  1.8229  0.1800
 3701TIP3    H232595   1.221   5.128   1.280  0.5944 -0.9822 -3.8145
 3702TIP3   OH232596   6.682   3.505  13.741 -0.0945 -0.2836  0.6143
 3702TIP3    H132597   6.752   3.569  13.729 -1.7120  1.3830 -0.4550
 3702TIP3    H232598   6.727   3.422  13.757  2.0922  0.7863  0.2888
 3703TIP3   OH232599   1.125   6.034  12.146  0.6871  0.4922  0.6174
 3703TIP3    H132600   1.195   5.979  12.179  0.6832  0.4797  0.6048
 3703TIP3    H232601   1.108   6.001  12.057  1.5539  1.3300  0.1189
 3704TIP3   OH232602   0.612   4.240  14.804  0.2263 -0.1234  0.4717
 3704TIP3    H132603   0.652   4.156  14.829 -2.0250 -1.4179 -0.0529
 3704TIP3    H232604   0.531   4.216  14.759  1.2241  2.2412 -2.9527
 3705TIP3   OH232605   2.407   6.099   4.384 -0.3395  0.0111  0.3530
 3705TIP3    H132606   2.436   6.179   4.340  1.4313 -0.8138 -0.1105
 3705TIP3    H232607   2.320   6.119   4.417 -0.0908  1.9937 -0.0714
 3706TIP3   OH232608   4.452   0.541   0.011  0.1028 -0.1041  0.1679
 3706TIP3    H132609   4.498   0.546  -0.073  0.1684  0.7870  0.2408
 3706TIP3    H232610   4.504   0.597   0.069 -0.9731  0.7790  0.2966
 3707TIP3   OH232611   6.028   4.162  11.396 -1.2179  0.1437  0.3578
 3707TIP3    H132612   5.990   4.185  11.312 -0.6163 -0.1807 -0.0045
 3707TIP3    H232613   6.008   4.237  11.453  1.1453  1.8715 -0.9275
 3708TIP3   OH232614   0.618   0.523  17.137  0.2754  0.0387  0.0667
 3708TIP3    H132615   0.613   0.473  17.218  0.6987  0.4664  0.3583
 3708TIP3    H232616   0.666   0.465  17.076 -1.5533 -1.0095 -0.4453
 3709TIP3   OH232617   1.134   1.906   1.247  0.9203 -0.4175  0.6982
 3709TIP3    H132618   1.201   1.906   1.315  0.4139 -0.9936  1.2062
 3709TIP3    H232619   1.118   1.813   1.230  2.6422 -0.3528 -1.8155
 3710TIP3   OH232620   5.649   4.302   5.776  0.2947 -0.1152 -0.3197
 3710TIP3    H132621   5.651   4.398   5.783 -0.8573 -0.1668  1.1617
 3710TIP3    H232622   5.721   4.273   5.831  0.6136 -0.1148 -0.7303
 3711TIP3   OH232623   0.918   3.369   2.312 -0.8644  0.8852 -0.7589
 3711TIP3    H132624   1.003   3.390   2.351 -0.6557  2.7484 -2.0736
 3711TIP3    H232625   0.905   3.276   2.331  1.0968  0.7482  0.1514
 3712TIP3   OH232626   0.116   4.343  11.408  0.8368  0.2830  0.2475
 3712TIP3    H132627   0.048   4.278  11.393  1.5846 -0.8161  1.4603
 3712TIP3    H232628   0.123   4.389  11.324 -2.4972  1.5674  0.5519
 3713TIP3   OH232629   5.098   4.590  16.286 -0.3134 -0.1738 -0.4801
 3713TIP3    H132630   5.171   4.536  16.255 -2.4352 -2.6313 -1.6320
 3713TIP3    H232631   5.107   4.590  16.382  0.4534 -1.6353 -0.5234
 3714TIP3   OH232632   6.211   0.894  13.293 -0.4638 -0.4846 -0.6948
 3714TIP3    H132633   6.255   0.814  13.265  0.5936  0.6023 -2.2579
 3714TIP3    H232634   6.271   0.934  13.356 -0.6254 -0.5238 -0.5159
 3715TIP3   OH232635   0.112   2.620  16.670  0.0085  0.0868  0.0776
 3715TIP3    H132636   0.077   2.657  16.589 -0.1750 -0.4683 -0.1014
 3715TIP3    H232637   0.204   2.649  16.672  0.0004  0.1418 -0.3066
 3716TIP3   OH232638   1.878   2.282  12.888  0.0575  0.2947 -0.5675
 3716TIP3    H132639   1.902   2.301  12.979  0.8565  0.2854 -0.7723
 3716TIP3    H232640   1.861   2.368  12.850 -1.5602  0.2360 -0.0864
 3717TIP3   OH232641   6.326   0.122   3.889 -0.2138  0.4095 -0.1455
 3717TIP3    H132642   6.379   0.180   3.834  2.2752 -1.5412 -0.0384
 3717TIP3    H232643   6.242   0.165   3.897  0.6180  2.6342 -2.2746
 3718TIP3   OH232644   2.427   2.892   4.196  0.8377  0.4874 -0.2327
 3718TIP3    H132645   2.411   2.986   4.198  1.0999  0.5357  1.6043
 3718TIP3    H232646   2.340   2.853   4.188  0.7427  0.8641 -1.2162
 3719TIP3   OH232647   3.010   6.347  16.690 -0.5188 -0.3793  0.0030
 3719TIP3    H132648   2.994   6.384  16.777 -4.1761 -0.4427 -0.4803
 3719TIP3    H232649   3.058   6.415  16.643 -0.0967  0.4180  1.5283
 3720TIP3   OH232650   5.349   0.873   2.732 -0.4032  0.7556 -0.0122
 3720TIP3    H132651   5.265   0.842   2.697  1.6325 -3.0304 -2.2237
 3720TIP3    H232652   5.372   0.809   2.799  1.1426  1.2107 -0.0744
 3721TIP3   OH232653   3.199   0.739   2.664 -0.2235 -0.0619 -0.5210
 3721TIP3    H132654   3.143   0.815   2.647 -1.4592 -0.8801 -0.3123
 3721TIP3    H232655   3.283   0.760   2.623 -0.7070  1.1845 -0.9142
 3722TIP3   OH232656   4.764   3.783   2.355  0.0549 -0.0228 -0.2919
 3722TIP3    H132657   4.728   3.861   2.313  0.4526  1.0522  1.2745
 3722TIP3    H232658   4.730   3.710   2.304 -0.4711  1.1611 -1.6975
 3723TIP3   OH232659   3.511   2.807  13.950  0.5647  0.4929  0.0028
 3723TIP3    H132660   3.490   2.832  13.860 -1.6512 -1.7611 -0.2312
 3723TIP3    H232661   3.496   2.888  14.000  1.0004  1.5717 -1.5161
 3724TIP3   OH232662   4.142   2.192   6.221  0.0155  0.5405  0.1920
 3724TIP3    H132663   4.185   2.110   6.195 -0.9748  0.6442 -1.9593
 3724TIP3    H232664   4.109   2.174   6.309  0.7831 -0.9838  0.2100
 3725TIP3   OH232665   2.112   1.284  12.419  0.3187 -0.1081  0.6725
 3725TIP3    H132666   2.193   1.262  12.465  1.1990 -0.7793 -1.0988
 3725TIP3    H232667   2.131   1.264  12.328 -0.7576  2.8228 -0.2789
 3726TIP3   OH232668   3.900   4.168  13.409  0.4370 -0.0480 -0.2051
 3726TIP3    H132669   3.880   4.079  13.437 -1.9484 -0.1217 -1.8371
 3726TIP3    H232670   3.825   4.220  13.438  1.0638  1.1306 -0.6069
 3727TIP3   OH232671   1.209   3.504  12.245  0.2504  0.3835 -0.3543
 3727TIP3    H132672   1.128   3.455  12.256 -2.6168  4.3812 -1.1708
 3727TIP3    H232673   1.223   3.546  12.330  1.6570 -0.4435 -0.1577
 3728TIP3   OH232674   1.602   2.237  11.293  0.1469 -0.4433  0.3885
 3728TIP3    H132675   1.580   2.229  11.385 -0.8574  0.4289  0.2367
 3728TIP3    H232676   1.693   2.267  11.292  0.2824 -0.8118  1.0754
 3729TIP3   OH232677   6.492   4.651   6.096  0.3307 -0.9898  0.1367
 3729TIP3    H132678   6.547   4.647   6.174  1.8186  0.7298 -0.7580
 3729TIP3    H232679   6.541   4.602   6.029  1.4457  1.4657 -0.9761
 3730TIP3   OH232680   3.554   3.469  14.893 -0.3109  0.4251  0.4312
 3730TIP3    H132681   3.549   3.563  14.911  0.2309  0.6085 -0.3276
 3730TIP3    H232682   3.480   3.432  14.940 -1.2320  1.3841 -0.2231
 3731TIP3   OH232683   2.521   5.686  14.122  0.4247  0.1980  0.0366
 3731TIP3    H132684   2.457   5.745  14.163 -0.3012  0.1713 -1.0344
 3731TIP3    H232685   2.602   5.703  14.170  0.1254  1.7344  0.0544
 3732TIP3   OH232686   1.651   0.312   3.852 -0.1195 -0.5899 -0.0322
 3732TIP3    H132687   1.646   0.403   3.881 -0.1031 -0.6336  0.1085
 3732TIP3    H232688   1.587   0.305   3.781 -0.8707 -0.7339  0.6540
 3733TIP3   OH232689   1.080   0.848  11.717  0.4491 -0.2412 -0.0893
 3733TIP3    H132690   1.160   0.850  11.768  0.8735 -2.1087 -0.6210
 3733TIP3    H232691   1.011   0.828  11.780  0.8223 -1.5143 -0.0719
 3734TIP3   OH232692   1.116   1.811   0.603 -0.4036  0.2686 -0.3690
 3734TIP3    H132693   1.130   1.893   0.555  0.2392  0.7167  0.5506
 3734TIP3    H232694   1.185   1.753   0.572  1.3988  1.2673  1.4985
 3735TIP3   OH232695   0.838   6.242  13.638  0.2827 -0.4942  0.3330
 3735TIP3    H132696   0.921   6.262  13.682  0.2139  0.7362 -0.0442
 3735TIP3    H232697   0.780   6.315  13.663 -0.0325 -0.2485 -1.0497
 3736TIP3   OH232698   6.621   3.016   3.441 -0.0187 -0.0025 -0.1132
 3736TIP3    H132699   6.692   3.065   3.483  0.0026 -1.8045  2.1091
 3736TIP3    H232700   6.544   3.035   3.495 -0.5569 -0.4777 -0.7045
 3737TIP3   OH232701   6.522   3.530  16.015 -0.1789  0.5173 -0.1281
 3737TIP3    H132702   6.477   3.595  15.960 -1.6828 -0.1036  0.3227
 3737TIP3    H232703   6.459   3.509  16.084  0.9569 -0.1254  0.7556
 3738TIP3   OH232704   1.254   5.575   1.407  0.2668 -0.3545  0.0177
 3738TIP3    H132705   1.178   5.599   1.354 -0.7501  0.9457  1.9823
 3738TIP3    H232706   1.222   5.508   1.467  0.9498 -0.5187  0.2070
 3739TIP3   OH232707   4.346   3.607   3.480 -0.1405  0.5373  0.5003
 3739TIP3    H132708   4.280   3.666   3.515 -0.2584  0.1433  0.9539
 3739TIP3    H232709   4.429   3.652   3.494 -0.2463  0.6827  0.6581
 3740TIP3   OH232710   3.729   1.531   3.088 -0.2563  0.4200 -0.0475
 3740TIP3    H132711   3.714   1.566   3.001  2.4108  0.0031 -0.7591
 3740TIP3    H232712   3.803   1.471   3.077  0.3691  0.6121  2.5657
 3741TIP3   OH232713   2.458   1.624   4.165  0.3499  0.9502 -0.0227
 3741TIP3    H132714   2.404   1.607   4.243  0.6846 -0.1871 -0.0270
 3741TIP3    H232715   2.541   1.656   4.200  1.1198 -1.1504  0.2207
 3742TIP3   OH232716   5.707   6.647  11.197  0.2731 -0.4016 -0.5400
 3742TIP3    H132717   5.778   6.602  11.243 -0.7027 -0.6920  0.7667
 3742TIP3    H232718   5.628   6.604  11.230 -0.5683  0.8534 -0.8878
 3743TIP3   OH232719   4.975   3.314  17.103 -0.0244  0.0889  0.3073
 3743TIP3    H132720   4.952   3.400  17.068 -1.7677 -0.3802  0.2405
 3743TIP3    H232721   4.892   3.269  17.114  0.9123 -2.2984 -1.3984
 3744TIP3   OH232722   6.325   2.724   0.775  0.0255 -0.4036  0.5567
 3744TIP3    H132723   6.376   2.671   0.838 -1.2090 -1.9594  0.3038
 3744TIP3    H232724   6.317   2.810   0.818  1.6394 -0.5377  1.2197
 3745TIP3   OH232725   1.048   2.456   2.037  0.5368 -0.0911 -0.0912
 3745TIP3    H132726   1.085   2.542   2.059  1.1457 -0.0597 -1.1831
 3745TIP3    H232727   0.996   2.433   2.113  0.4289  1.2165  0.2589
 3746TIP3   OH232728   4.132   6.053   3.418 -0.2928 -0.1465  0.3629
 3746TIP3    H132729   4.078   6.115   3.468  1.0245  0.3547  1.2114
 3746TIP3    H232730   4.221   6.071   3.447  0.5075 -0.0069 -1.9880
 3747TIP3   OH232731   4.982   5.742   5.421  0.6736 -1.0669  0.2312
 3747TIP3    H132732   4.911   5.710   5.366  0.6754  0.8380 -0.9324
 3747TIP3    H232733   5.040   5.789   5.362  1.9185 -0.9344  1.4884
 3748TIP3   OH232734   3.931   5.613  15.313 -0.1997  0.3279  0.5428
 3748TIP3    H132735   3.927   5.519  15.295 -1.8561  0.6946 -1.3666
 3748TIP3    H232736   3.843   5.635  15.344 -0.1523  1.4125 -0.0510
 3749TIP3   OH232737   1.935   5.170   1.296  0.1180 -0.5684  0.2274
 3749TIP3    H132738   1.953   5.264   1.298 -0.0157 -0.5549  1.0623
 3749TIP3    H232739   1.860   5.161   1.236  0.3135 -0.1792 -0.0767
 3750TIP3   OH232740   0.748   5.588   1.613 -0.1219 -0.2493  0.2361
 3750TIP3    H132741   0.683   5.630   1.669 -1.5857  0.6954 -2.0129
 3750TIP3    H232742   0.709   5.504   1.589 -0.0397 -0.1571 -0.2395
 3751TIP3   OH232743   3.318   0.930   4.295 -0.5912 -0.0054 -0.0126
 3751TIP3    H132744   3.380   0.949   4.224  0.2667 -1.5917  0.2647
 3751TIP3    H232745   3.317   0.835   4.301 -1.9175  0.0455  1.0224
 3752TIP3   OH232746   2.178   2.169  14.277  0.6568  0.0051 -0.1879
 3752TIP3    H132747   2.255   2.177  14.222 -0.0908  1.0367 -1.1197
 3752TIP3    H232748   2.180   2.246  14.333  0.2016  0.1387 -0.3504
 3753TIP3   OH232749   3.784   5.161  12.517 -0.0664  0.0102  0.5827
 3753TIP3    H132750   3.784   5.069  12.491  2.7752 -0.1345  0.7295
 3753TIP3    H232751   3.739   5.163  12.601 -0.4600 -1.1740  0.4113
 3754TIP3   OH232752   5.366   4.437   6.555  0.1561  0.4202 -0.0936
 3754TIP3    H132753   5.354   4.359   6.609 -2.3358  0.6263 -0.2618
 3754TIP3    H232754   5.444   4.479   6.592 -0.3518 -0.4289  2.1080
 3755TIP3   OH232755   4.758   2.563  16.143 -0.2778 -0.0026  0.1891
 3755TIP3    H132756   4.776   2.566  16.049 -0.2791 -2.3696  0.0531
 3755TIP3    H232757   4.662   2.556  16.149 -0.1342 -3.6418  0.1000
 3756TIP3   OH232758   3.319   6.600   5.431 -0.0127 -0.0180 -0.3419
 3756TIP3    H132759   3.371   6.531   5.391  1.0051  1.1726 -1.1483
 3756TIP3    H232760   3.245   6.554   5.472  1.1454 -1.6543  0.0080
 3757TIP3   OH232761   5.896   4.859  13.901  0.0748  1.0091 -0.1280
 3757TIP3    H132762   5.956   4.884  13.830 -0.8877  0.2134 -1.2560
 3757TIP3    H232763   5.809   4.869  13.863 -0.4421  0.0999  0.7947
 3758TIP3   OH232764   1.996   0.208   1.437  0.2509 -0.3872  0.4346
 3758TIP3    H132765   1.930   0.176   1.498 -3.1072  1.9229 -1.6454
 3758TIP3    H232766   2.002   0.302   1.456  0.2898  0.0749 -1.6633
 3759TIP3   OH232767   3.225   1.335   4.956 -0.5191 -0.0125  0.2222
 3759TIP3    H132768   3.141   1.380   4.964 -1.3616 -1.4004 -0.3503
 3759TIP3    H232769   3.236   1.289   5.039  0.8622  2.0134  1.2354
 3760TIP3   OH232770   1.573   4.478   3.348 -0.2194 -0.3615  0.2214
 3760TIP3    H132771   1.662   4.513   3.342  0.3697 -1.9955 -1.5940
 3760TIP3    H232772   1.539   4.481   3.258 -1.2701 -1.5385  0.5442
 3761TIP3   OH232773   4.525   0.448  12.024  0.2459  0.3240 -0.2839
 3761TIP3    H132774   4.561   0.463  12.112  0.2526 -0.3118 -0.1735
 3761TIP3    H232775   4.435   0.479  12.030  0.8592  2.3898 -0.6961
 3762TIP3   OH232776   6.215   4.121   2.748  0.3241  0.6297 -0.1762
 3762TIP3    H132777   6.204   4.202   2.797  0.8970  1.3370 -1.1955
 3762TIP3    H232778   6.294   4.134   2.696 -0.5896  0.1453 -1.7439
 3763TIP3   OH232779   2.729   1.640  15.942 -0.2017  0.2592  0.6659
 3763TIP3    H132780   2.792   1.584  15.897 -0.8073  0.5281 -0.5817
 3763TIP3    H232781   2.762   1.729  15.928  0.0839  0.3012  1.5535
 3764TIP3   OH232782   3.259   1.684   1.623  0.1524  0.1896  0.2377
 3764TIP3    H132783   3.186   1.705   1.680  0.7234  1.3672  0.5756
 3764TIP3    H232784   3.255   1.751   1.554  0.4296 -0.2307 -0.1917
 3765TIP3   OH232785   3.024   2.244   6.092 -0.4861  0.2518 -0.6685
 3765TIP3    H132786   2.964   2.231   6.166 -2.1136  0.9993 -1.7984
 3765TIP3    H232787   3.102   2.283   6.131 -1.7793  1.7632  0.5230
 3766TIP3   OH232788   4.746   3.329   2.038  0.6818 -0.7116 -0.0663
 3766TIP3    H132789   4.675   3.329   1.973 -0.6625 -1.0680  1.3210
 3766TIP3    H232790   4.773   3.238   2.045 -0.6531 -1.0658  1.3110
 3767TIP3   OH232791   2.039   5.938   0.508 -0.3586 -0.4045  0.0037
 3767TIP3    H132792   1.989   5.983   0.576 -1.4722  0.0558 -1.0747
 3767TIP3    H232793   2.074   6.008   0.453 -0.6381 -0.7902 -0.6857
 3768TIP3   OH232794   0.927   1.496   0.025 -0.0783  0.0746  0.3092
 3768TIP3    H132795   0.835   1.520   0.013 -0.0047  1.9996  2.8087
 3768TIP3    H232796   0.940   1.498   0.120  2.4051 -0.8492  0.0655
 3769TIP3   OH232797   3.825   2.206   5.192  0.0720 -0.8788  0.0582
 3769TIP3    H132798   3.820   2.250   5.107 -0.9145  0.7416  0.9110
 3769TIP3    H232799   3.740   2.222   5.233  1.6911  1.5850  2.8443
 3770TIP3   OH232800   3.780   5.338   2.646 -0.0636 -0.5264  0.0396
 3770TIP3    H132801   3.841   5.377   2.709  0.6684 -0.5725 -0.6245
 3770TIP3    H232802   3.787   5.244   2.661  0.3668 -0.5575 -0.3287
 3771TIP3   OH232803   3.538   2.617   6.436 -0.2461 -0.2642  0.6194
 3771TIP3    H132804   3.480   2.586   6.505 -1.0732 -2.3675 -0.9064
 3771TIP3    H232805   3.626   2.609   6.472 -0.6864 -0.8550  1.5908
 3772TIP3   OH232806   3.799   0.674  15.754  0.0837  0.6514  0.1572
 3772TIP3    H132807   3.813   0.586  15.717  0.0246  1.5562 -2.2174
 3772TIP3    H232808   3.705   0.676  15.774 -0.0411  0.3418 -0.3555
 3773TIP3   OH232809   4.972   2.193   1.977  0.5647  0.1732 -0.0056
 3773TIP3    H132810   5.043   2.146   1.932  1.9460  0.5413  1.6854
 3773TIP3    H232811   4.949   2.137   2.051  1.0425  1.3410  1.0542
 3774TIP3   OH232812   3.777   5.873   5.594 -0.1899 -0.7309  0.3491
 3774TIP3    H132813   3.783   5.801   5.531  1.7333  1.8360 -2.7285
 3774TIP3    H232814   3.735   5.944   5.546  1.0477  1.2646  2.0284
 3775TIP3   OH232815   5.960   4.375  14.151 -0.1080 -0.2749  0.3412
 3775TIP3    H132816   5.979   4.469  14.151  0.2570 -0.2826 -1.7646
 3775TIP3    H232817   5.866   4.370  14.163 -0.3464  0.4759 -0.9887
 3776TIP3   OH232818   3.151   0.781   1.765 -0.1040 -0.5994 -0.2159
 3776TIP3    H132819   3.140   0.861   1.714  0.6759  0.3654  1.0609
 3776TIP3    H232820   3.090   0.789   1.838  1.1522 -0.3420  0.8533
 3777TIP3   OH232821   5.536   2.742  13.207 -0.0011 -0.1850  0.2635
 3777TIP3    H132822   5.575   2.822  13.172 -0.8542  0.1970  0.1575
 3777TIP3    H232823   5.520   2.761  13.299 -0.4853 -0.1194  0.1687
 3778TIP3   OH232824   2.058   2.696   5.925  0.3210 -0.1912 -0.1783
 3778TIP3    H132825   2.063   2.622   5.985  0.3401  0.7221  0.9912
 3778TIP3    H232826   1.994   2.755   5.966  1.0341  0.8745 -0.5706
 3779TIP3   OH232827   3.331   3.926   5.775  0.1436  0.1938 -0.0365
 3779TIP3    H132828   3.340   4.019   5.753 -0.1640  0.3679  0.5369
 3779TIP3    H232829   3.413   3.905   5.820  0.5046  0.0010 -0.7657
 3780TIP3   OH232830   4.567   1.836   1.244  0.0110  0.1065 -0.1004
 3780TIP3    H132831   4.551   1.850   1.337  1.7409  0.7327  0.1446
 3780TIP3    H232832   4.581   1.923   1.209 -0.4787 -0.1402 -0.9323
 3781TIP3   OH232833   3.611   5.543  13.554  0.1339  0.0688 -0.0448
 3781TIP3    H132834   3.596   5.464  13.502  1.4308 -0.4130  0.2725
 3781TIP3    H232835   3.692   5.579  13.520  0.6018  0.1580  1.1393
 3782TIP3   OH232836   3.302   2.782   3.652 -0.1957 -0.2162  0.4845
 3782TIP3    H132837   3.360   2.742   3.717 -1.4238  0.3104  1.9844
 3782TIP3    H232838   3.355   2.850   3.612  0.1594  0.5574  2.1504
 3783TIP3   OH232839   6.594   3.638  13.092  0.0345 -0.7126 -0.5216
 3783TIP3    H132840   6.530   3.630  13.162  0.4639  0.8840  0.1109
 3783TIP3    H232841   6.613   3.548  13.065  0.5181 -1.4279  2.0171
 3784TIP3   OH232842   0.391   2.260   1.678 -0.5745  0.3375 -0.2248
 3784TIP3    H132843   0.330   2.295   1.743 -0.9636 -0.7296  0.0007
 3784TIP3    H232844   0.477   2.276   1.715 -0.6993  1.8306 -0.5313
 3785TIP3   OH232845   0.977   2.228   4.840 -0.5953 -0.1415  0.2531
 3785TIP3    H132846   0.959   2.321   4.826 -1.1222 -0.0271  1.5924
 3785TIP3    H232847   1.059   2.213   4.793 -1.4308  0.5524 -1.5283
 3786TIP3   OH232848   0.433   0.624   3.619 -0.4627 -0.6927 -0.0930
 3786TIP3    H132849   0.375   0.570   3.672 -0.1713 -0.8090  0.1108
 3786TIP3    H232850   0.377   0.660   3.550 -1.7201  2.3924  2.2886
 3787TIP3   OH232851   5.305   4.028   0.623 -0.4012 -0.3309  0.0732
 3787TIP3    H132852   5.236   4.094   0.625  1.8436  2.2210  0.0171
 3787TIP3    H232853   5.300   3.991   0.535 -2.0698 -0.7041  0.2896
 3788TIP3   OH232854   3.982   2.852  12.516  1.1568  0.1513  0.3338
 3788TIP3    H132855   3.966   2.906  12.438  1.7342  0.5200  0.4620
 3788TIP3    H232856   4.020   2.771  12.482 -1.6654 -1.1228 -0.0620
 3789TIP3   OH232857   2.381   4.651   0.895  0.1268  0.0531  0.1835
 3789TIP3    H132858   2.400   4.717   0.829  1.1658 -0.8518 -0.4495
 3789TIP3    H232859   2.350   4.575   0.845  2.8544 -1.3701  0.4910
 3790TIP3   OH232860   3.045   3.064   5.787 -0.1903 -0.2903  0.2922
 3790TIP3    H132861   2.955   3.031   5.791 -0.1024 -0.8955 -1.6525
 3790TIP3    H232862   3.097   2.986   5.767  0.5862  0.2904  0.0567
 3791TIP3   OH232863   4.814   1.924   0.633  0.4799 -0.0052 -0.0765
 3791TIP3    H132864   4.802   1.863   0.561  1.6958  0.2425 -0.5112
 3791TIP3    H232865   4.859   1.999   0.594  0.3616  0.5068  0.7551
 3792TIP3   OH232866   6.321   1.601   6.485  0.0907  0.3941 -0.5891
 3792TIP3    H132867   6.367   1.685   6.487 -0.5705  0.7750  1.9174
 3792TIP3    H232868   6.365   1.547   6.551  0.8810 -1.5107 -2.5554
 3793TIP3   OH232869   0.216   5.912  16.006  0.1789 -0.1536  0.1328
 3793TIP3    H132870   0.309   5.922  16.022  0.4857 -1.1322 -0.9456
 3793TIP3    H232871   0.208   5.833  15.953 -1.1674  0.4335 -0.6133
 3794TIP3   OH232872   1.915   6.679   5.632 -0.1548  0.2923 -0.7178
 3794TIP3    H132873   1.988   6.727   5.591  0.1221  1.3133  0.8759
 3794TIP3    H232874   1.855   6.748   5.660 -1.3094 -0.5035 -1.1867
 3795TIP3   OH232875   4.184   2.910  14.526  0.1240  0.0562 -0.5284
 3795TIP3    H132876   4.162   2.825  14.488  2.1612 -0.7100 -0.1018
 3795TIP3    H232877   4.204   2.966  14.451 -0.2940 -0.1182 -0.7711
 3796TIP3   OH232878   3.007   5.661   6.032 -0.3281 -0.4958 -0.6071
 3796TIP3    H132879   2.938   5.708   6.079 -0.0243 -1.6642  1.1239
 3796TIP3    H232880   2.995   5.570   6.059  1.9825 -0.7011 -0.1388
 3797TIP3   OH232881   1.029   6.663   3.655 -0.0638 -0.1560 -0.1082
 3797TIP3    H132882   1.053   6.755   3.638  0.8103  0.0254  1.9227
 3797TIP3    H232883   1.110   6.622   3.683 -0.9599 -0.9485  1.4014
 3798TIP3   OH232884   5.550   1.046   5.484 -0.1122 -0.0444  0.1410
 3798TIP3    H132885   5.532   1.022   5.575 -1.7281 -1.4528 -0.5009
 3798TIP3    H232886   5.476   1.101   5.459  0.5865  0.7621 -0.1915
 3799TIP3   OH232887   4.179   5.604   1.326  0.0673  0.0595  0.2464
 3799TIP3    H132888   4.238   5.578   1.256  1.7504  1.1692  1.1754
 3799TIP3    H232889   4.190   5.699   1.333 -0.1254 -0.0011  1.9214
 3800TIP3   OH232890   6.057   1.986   4.295 -0.0060  0.2700  0.0380
 3800TIP3    H132891   6.142   2.003   4.334  0.3812  0.1309 -0.7231
 3800TIP3    H232892   6.071   1.999   4.201 -0.9596  0.8092 -0.0413
 3801TIP3   OH232893   4.863   6.169   4.046 -0.2812 -0.1056 -0.1706
 3801TIP3    H132894   4.861   6.264   4.045  0.2467 -0.0919 -1.0312
 3801TIP3    H232895   4.773   6.143   4.064 -0.3728  0.5558  0.3319
 3802TIP3   OH232896   2.699   5.789   4.189  0.5504 -0.2058 -0.3243
 3802TIP3    H132897   2.756   5.775   4.113  0.8929 -0.1504 -0.0782
 3802TIP3    H232898   2.656   5.872   4.172  0.2316 -0.4444 -0.7059
 3803TIP3   OH232899   4.091   0.620   1.892 -0.0737 -0.2747  0.0575
 3803TIP3    H132900   4.003   0.631   1.856  0.3175  0.8169 -0.6070
 3803TIP3    H232901   4.143   0.587   1.819  0.6827  1.7713 -0.3869
 3804TIP3   OH232902   0.741   1.532   5.397  0.2490 -0.3288 -0.2501
 3804TIP3    H132903   0.771   1.529   5.488  2.3773 -1.2468 -0.9009
 3804TIP3    H232904   0.656   1.488   5.398  0.5496 -0.9362  1.1934
 3805TIP3   OH232905   6.666   2.771   2.449 -0.5940 -0.2862 -0.1702
 3805TIP3    H132906   6.714   2.848   2.416  0.0004 -0.5863 -0.0176
 3805TIP3    H232907   6.598   2.755   2.384  0.6912 -1.0017 -1.3861
 3806TIP3   OH232908   0.486   0.866   0.678 -0.2594  0.4477 -0.0082
 3806TIP3    H132909   0.396   0.879   0.706 -0.1529  1.1639  0.0159
 3806TIP3    H232910   0.539   0.902   0.749  0.1440 -2.5883  1.3919
 3807TIP3   OH232911   0.308   5.291   2.704  0.0957 -0.4571 -0.0433
 3807TIP3    H132912   0.298   5.357   2.773  0.0358 -1.6236  1.0995
 3807TIP3    H232913   0.228   5.298   2.652 -0.6969 -0.7563  1.0953
 3808TIP3   OH232914   2.349   2.138  13.620  0.4460 -0.0905  0.1031
 3808TIP3    H132915   2.299   2.217  13.640  0.2253 -0.1516 -0.1993
 3808TIP3    H232916   2.428   2.170  13.575  0.1823 -0.0644 -0.3492
 3809TIP3   OH232917   0.045   4.242   2.669  0.2935 -0.4521 -0.7268
 3809TIP3    H132918   0.104   4.250   2.594  0.8542 -0.7891 -0.3265
 3809TIP3    H232919   0.096   4.195   2.735  0.6315  1.8316  0.7297
 3810TIP3   OH232920   5.783   0.569   4.612 -0.1457  0.4855 -0.1100
 3810TIP3    H132921   5.690   0.568   4.587  0.1825 -2.0864 -1.5531
 3810TIP3    H232922   5.813   0.480   4.596  1.7594  0.2306  3.6482
 3811TIP3   OH232923   0.038   3.600  14.568 -0.3658  0.0514  0.2224
 3811TIP3    H132924  -0.056   3.617  14.568 -0.4198 -0.2456  0.2718
 3811TIP3    H232925   0.071   3.645  14.645 -1.0086 -2.8146  2.3418
 3812TIP3   OH232926   2.674   5.514   4.553 -0.6273 -0.1830  0.2912
 3812TIP3    H132927   2.600   5.501   4.493  0.6425 -0.1770 -1.3617
 3812TIP3    H232928   2.720   5.590   4.518  1.5261 -1.6382 -0.2495
 3813TIP3   OH232929   1.300   4.836   0.906 -0.1406  0.4516  0.0366
 3813TIP3    H132930   1.271   4.791   0.827  1.1699 -2.1313  0.9051
 3813TIP3    H232931   1.377   4.887   0.878  0.4115 -0.5764 -0.3502
 3814TIP3   OH232932   4.508   2.263  12.799 -0.3492 -0.2566 -0.8656
 3814TIP3    H132933   4.537   2.346  12.761 -0.1033 -0.1415 -0.4276
 3814TIP3    H232934   4.432   2.287  12.852 -0.1395 -0.2733 -0.5564
 3815TIP3   OH232935   5.361   3.048   4.865 -0.0936  0.2129  0.0567
 3815TIP3    H132936   5.418   2.974   4.884 -0.2383 -0.1754 -0.9668
 3815TIP3    H232937   5.403   3.093   4.792 -0.5516  0.5362 -0.0116
 3816TIP3   OH232938   6.238   1.732   1.520 -0.6388 -0.2812  0.4827
 3816TIP3    H132939   6.249   1.716   1.426 -0.7400  2.6729 -0.1242
 3816TIP3    H232940   6.168   1.672   1.547 -1.3716 -0.4182 -1.5676
 3817TIP3   OH232941   3.164   2.405   1.497  0.3673 -0.1812  0.4426
 3817TIP3    H132942   3.200   2.333   1.446 -0.4819 -1.6263  1.8262
 3817TIP3    H232943   3.176   2.379   1.588 -2.7615 -0.0760  0.9837
 3818TIP3   OH232944   2.119   3.438   5.251 -0.0416  0.2825  0.0522
 3818TIP3    H132945   2.195   3.382   5.235 -1.2415 -1.3373 -0.2678
 3818TIP3    H232946   2.069   3.435   5.169 -1.2654 -0.0402  0.7741
 3819TIP3   OH232947   1.829   6.516   1.773 -0.2030 -0.3103  0.2115
 3819TIP3    H132948   1.910   6.543   1.816  1.1780 -1.6317 -1.4621
 3819TIP3    H232949   1.802   6.437   1.820 -0.4627  0.0272  0.6485
 3820TIP3   OH232950   5.792   3.759  13.769  0.0889 -0.0876  0.1166
 3820TIP3    H132951   5.858   3.776  13.835  1.3055  1.6165 -1.4579
 3820TIP3    H232952   5.745   3.842  13.759 -0.6109 -0.5466 -0.5799
 3821TIP3   OH232953   6.311   6.149   6.192 -0.3846  0.6761 -0.2047
 3821TIP3    H132954   6.292   6.074   6.248  0.5128  0.8142  0.3020
 3821TIP3    H232955   6.277   6.124   6.106 -1.5983  0.3794  0.3381
 3822TIP3   OH232956   2.033   0.223   2.811 -0.1673 -0.6923 -0.9787
 3822TIP3    H132957   2.126   0.202   2.826 -0.0142  0.5956  0.0623
 3822TIP3    H232958   2.031   0.264   2.725  0.2336 -0.6834 -0.9865
 3823TIP3   OH232959   3.449   2.149   4.162  0.2098  0.0125 -0.9266
 3823TIP3    H132960   3.482   2.238   4.168 -0.7246  0.3541 -0.5874
 3823TIP3    H232961   3.516   2.095   4.204  0.5267  0.6267 -0.6289
 3824TIP3   OH232962   3.515   1.931   2.373 -0.3507 -0.3716  0.2678
 3824TIP3    H132963   3.517   1.851   2.321  0.8544 -1.2045  1.5413
 3824TIP3    H232964   3.519   1.902   2.464 -1.4512  1.0846  0.8403
 3825TIP3   OH232965   0.832   6.228   3.766  0.3027 -0.4215  0.1233
 3825TIP3    H132966   0.872   6.289   3.704  0.7507 -1.2505 -0.4183
 3825TIP3    H232967   0.740   6.225   3.741  0.4512 -0.6265 -0.4038
 3826TIP3   OH232968   2.225   3.662   1.487 -0.1716  0.4403 -0.4386
 3826TIP3    H132969   2.270   3.589   1.445 -0.1114 -0.6300  1.3683
 3826TIP3    H232970   2.153   3.683   1.428  2.1918  1.7528 -3.0820
 3827TIP3   OH232971   6.063   1.031  11.920 -0.0673  0.3868  0.3715
 3827TIP3    H132972   6.036   1.006  12.008 -0.1189  0.0673  0.2662
 3827TIP3    H232973   5.982   1.046  11.872 -0.0775 -0.9007 -0.0378
 3828TIP3   OH232974   4.311   1.930  16.899 -0.6426  0.3097  0.1834
 3828TIP3    H132975   4.300   1.965  16.987 -2.6148  0.8335 -0.2102
 3828TIP3    H232976   4.233   1.877  16.885  0.2709 -0.8246 -0.7908
 3829TIP3   OH232977   0.602   0.050   2.294 -0.2736 -0.1323 -0.2564
 3829TIP3    H132978   0.539   0.055   2.366 -0.1430  0.2945 -0.1699
 3829TIP3    H232979   0.651   0.132   2.299  0.6390 -0.6743 -0.0005
 3830TIP3   OH232980   4.231   6.663  13.110  0.0776 -0.0749  0.1356
 3830TIP3    H132981   4.202   6.691  13.196 -0.6503 -0.6413  0.0743
 3830TIP3    H232982   4.232   6.744  13.058 -1.3122 -0.0230  0.1603
 3831TIP3   OH232983   2.818   3.206   4.521  0.4901  0.1964 -0.1262
 3831TIP3    H132984   2.901   3.254   4.515  0.3049  0.3362 -2.1596
 3831TIP3    H232985   2.785   3.226   4.608  2.1563  0.8604  0.3966
 3832TIP3   OH232986   1.567   4.145  13.511 -0.3528 -0.0425 -0.3344
 3832TIP3    H132987   1.508   4.138  13.586 -0.1994  1.4601 -0.0379
 3832TIP3    H232988   1.593   4.237  13.510  2.1829 -0.6797 -0.3007
 3833TIP3   OH232989   3.952   2.873  17.285 -0.1275 -0.1686 -0.0735
 3833TIP3    H132990   4.020   2.880  17.219  0.4470 -1.4358  0.3373
 3833TIP3    H232991   3.875   2.914  17.246  0.5807  0.3238 -0.9676
 3834TIP3   OH232992   3.312   0.707  14.599  0.4069  0.2588  0.0975
 3834TIP3    H132993   3.403   0.732  14.584  0.3969  1.6272  2.0456
 3834TIP3    H232994   3.261   0.778  14.561  0.0878 -0.5449 -1.0659
 3835TIP3   OH232995   5.738   1.013   0.253 -0.3010  0.1456  0.0035
 3835TIP3    H132996   5.777   1.050   0.332 -2.3051  0.2562  0.9825
 3835TIP3    H232997   5.652   1.053   0.246 -0.7470 -0.9516 -1.4483
 3836TIP3   OH232998   3.416   0.278  16.110 -0.1316  0.3837  0.3112
 3836TIP3    H132999   3.376   0.349  16.060  0.5367  1.5291  1.3613
 3836TIP3    H233000   3.452   0.220  16.043 -0.5145  1.1159 -0.5663
 3837TIP3   OH233001   5.505   3.322   2.366 -0.3896  0.1582  0.4862
 3837TIP3    H133002   5.592   3.295   2.338 -0.3521  0.9167 -0.1655
 3837TIP3    H233003   5.483   3.395   2.308 -1.6662 -0.3435  0.3139
 3838TIP3   OH233004   3.160   1.425  12.865 -0.0126 -0.0893  1.0397
 3838TIP3    H133005   3.108   1.501  12.839 -0.5860 -0.2256  1.7630
 3838TIP3    H233006   3.146   1.361  12.794  0.0077  0.2650  0.7163
 3839TIP3   OH233007   6.252   0.974  11.726 -0.3390  0.2298  0.1653
 3839TIP3    H133008   6.168   0.977  11.772 -0.5973  0.4311 -0.3165
 3839TIP3    H233009   6.318   0.988  11.795 -0.7651  1.6433  0.3135
 3840TIP3   OH233010   2.381   2.618   1.561 -0.4897  0.0917 -0.3930
 3840TIP3    H133011   2.304   2.655   1.518 -2.8954 -1.9114  1.7697
 3840TIP3    H233012   2.392   2.532   1.521  1.0495  0.5770 -1.0745
 3841TIP3   OH233013   2.197   4.641   3.831  0.0567 -0.1440 -0.0842
 3841TIP3    H133014   2.266   4.678   3.777 -1.5484  2.1319 -0.7174
 3841TIP3    H233015   2.179   4.555   3.792  0.5737  0.4425 -1.6778
 3842TIP3   OH233016   3.294   5.564   3.688 -0.6480  0.3717  0.4964
 3842TIP3    H133017   3.267   5.580   3.778  1.8839 -1.7828  1.7612
 3842TIP3    H233018   3.375   5.613   3.678 -1.3582  1.3184 -0.9732
 3843TIP3   OH233019   0.535   5.485  11.432 -0.0326 -0.2350 -0.2421
 3843TIP3    H133020   0.495   5.542  11.366 -1.3254  0.4207  1.0276
 3843TIP3    H233021   0.603   5.437  11.385 -2.5068 -1.6910 -2.6919
 3844TIP3   OH233022   3.784   2.380   5.831  0.2009 -0.0173 -0.1147
 3844TIP3    H133023   3.762   2.423   5.748 -0.5090  0.2150  0.1877
 3844TIP3    H233024   3.879   2.389   5.839  0.3165 -0.3063 -1.0457
 3845TIP3   OH233025   6.165   2.736  13.165 -0.2253  0.0582  0.1826
 3845TIP3    H133026   6.097   2.752  13.100 -0.3932  1.0644  0.5881
 3845TIP3    H233027   6.121   2.687  13.235 -0.3675  0.1343  0.1460
 3846TIP3   OH233028   0.164   0.312  15.293  0.0294 -0.1015 -0.1200
 3846TIP3    H133029   0.216   0.298  15.372 -0.2014  1.2240  0.3043
 3846TIP3    H233030   0.147   0.224  15.259  1.2090 -0.6288  0.5894
 3847TIP3   OH233031   3.989   4.159   1.437  0.5747  0.1585  1.0170
 3847TIP3    H133032   3.917   4.215   1.466 -0.0807 -0.8122  1.3253
 3847TIP3    H233033   4.060   4.176   1.499  0.4194  0.7113  1.0473
 3848TIP3   OH233034   5.873   1.311   6.600 -0.3968 -0.1784  0.3329
 3848TIP3    H133035   5.842   1.260   6.525  0.9557 -1.5076  0.6151
 3848TIP3    H233036   5.965   1.288   6.608 -0.4851 -0.0192  2.3579
 3849TIP3   OH233037   4.176   2.403   0.907  0.0964  0.2834  0.2510
 3849TIP3    H133038   4.162   2.390   0.813  1.2661 -2.8727  0.3837
 3849TIP3    H233039   4.097   2.370   0.948  0.3250 -0.0379  0.4327
 3850TIP3   OH233040   2.281   0.883  12.018 -0.4064  0.1043  0.5823
 3850TIP3    H133041   2.192   0.904  12.046  0.8048  0.2295  5.2894
 3850TIP3    H233042   2.293   0.931  11.936 -3.8001  2.2117  1.1228
 3851TIP3   OH233043   5.037   2.614  15.111  0.0098  0.1840 -0.1280
 3851TIP3    H133044   5.099   2.598  15.040  0.5927 -2.0235  0.8043
 3851TIP3    H233045   5.035   2.532  15.160 -3.3598  0.2800  0.1296
 3852TIP3   OH233046   2.999   5.802  16.782 -0.2867 -0.4466 -0.6919
 3852TIP3    H133047   2.984   5.887  16.742  0.5337  0.0420  0.0037
 3852TIP3    H233048   3.012   5.821  16.875 -0.6902 -1.3967 -0.4348
 3853TIP3   OH233049   2.016   6.353   0.457 -0.2949  0.2568  0.2695
 3853TIP3    H133050   2.063   6.365   0.375 -0.0996  2.2355  0.6277
 3853TIP3    H233051   1.931   6.396   0.443 -0.6228 -0.1976  0.8011
 3854TIP3   OH233052   6.485   6.149   1.526 -0.1480  0.2174  0.1765
 3854TIP3    H133053   6.554   6.133   1.462  0.5730 -1.3523  1.2730
 3854TIP3    H233054   6.456   6.238   1.509  0.8010  0.2276 -1.5775
 3855TIP3   OH233055   6.473   0.772  13.769 -0.4612 -0.1766  0.3961
 3855TIP3    H133056   6.444   0.775  13.860  1.0773  0.3233  0.8926
 3855TIP3    H233057   6.567   0.786  13.773 -0.4812  0.7415 -1.3389
 3856TIP3   OH233058   5.467   4.315  14.081 -0.0466  0.5106  0.6631
 3856TIP3    H133059   5.399   4.372  14.044 -0.1508 -0.2403 -0.3309
 3856TIP3    H233060   5.530   4.304  14.011  0.7406  0.6023  1.3448
 3857TIP3   OH233061   0.265   6.153   1.814 -0.0568 -0.6726  0.1812
 3857TIP3    H133062   0.297   6.193   1.895 -1.0622 -1.7723  1.1701
 3857TIP3    H233063   0.316   6.073   1.806 -0.0518 -0.6301 -0.2087
 3858TIP3   OH233064   4.895   1.771  16.077  0.1916 -0.9956  1.0498
 3858TIP3    H133065   4.947   1.724  16.012  0.7495 -0.3461  1.0290
 3858TIP3    H233066   4.822   1.711  16.095 -0.1975 -1.0241 -0.4654
 3859TIP3   OH233067   6.377   5.595  11.547  0.0780  0.0852  0.3970
 3859TIP3    H133068   6.400   5.683  11.579  0.5741  0.7257 -1.5505
 3859TIP3    H233069   6.425   5.587  11.465 -1.0965 -1.4433 -0.1803
 3860TIP3   OH233070   5.416   2.313  13.605 -0.0812  0.2350  0.1379
 3860TIP3    H133071   5.392   2.220  13.611 -0.5216  0.4310  2.6220
 3860TIP3    H233072   5.342   2.354  13.562 -0.1524 -0.4634 -0.4336
 3861TIP3   OH233073   4.904   3.832  12.533  0.5206 -0.0669  0.5254
 3861TIP3    H133074   4.845   3.842  12.459 -0.0479 -0.3233  0.9337
 3861TIP3    H233075   4.972   3.772  12.503  0.0672 -0.4968  0.3424
 3862TIP3   OH233076   4.720   0.850  15.113 -0.4464  0.3287 -0.0218
 3862TIP3    H133077   4.686   0.887  15.194  2.5199  1.2890  0.9323
 3862TIP3    H233078   4.764   0.769  15.140 -1.0519 -0.3543 -1.0126
 3863TIP3   OH233079   6.509   6.700   1.470  0.6650  0.1596 -0.4409
 3863TIP3    H133080   6.463   6.712   1.387 -0.0708  0.5967  0.0198
 3863TIP3    H233081   6.447   6.653   1.526  1.1437 -0.1087 -0.1190
 3864TIP3   OH233082   0.061   2.316  11.900 -0.2230 -0.4804 -0.3121
 3864TIP3    H133083   0.137   2.336  11.955 -2.1890 -0.6771  2.7042
 3864TIP3    H233084   0.068   2.222  11.882  0.0720 -0.5733  0.2766
 3865TIP3   OH233085   2.006   2.246   2.178  0.5361  0.4046 -0.3966
 3865TIP3    H133086   1.919   2.234   2.216  0.6654  1.7706  0.4140
 3865TIP3    H233087   2.064   2.195   2.234  0.4163  0.5186 -0.1662
 3866TIP3   OH233088   5.497   3.362  16.677  0.1932 -0.3494  0.0535
 3866TIP3    H133089   5.566   3.305  16.643  0.9041  0.8456 -0.5714
 3866TIP3    H233090   5.468   3.319  16.757  0.1845 -1.9652 -0.7829
 3867TIP3   OH233091   4.810   0.469  14.544  0.1459 -0.2407  0.0255
 3867TIP3    H133092   4.715   0.462  14.530  0.1057  0.1388  0.0925
 3867TIP3    H233093   4.840   0.378  14.551  0.0077 -0.4250 -1.4310
 3868TIP3   OH233094   3.380   6.152  12.629 -0.2654 -0.2207 -0.7048
 3868TIP3    H133095   3.446   6.178  12.565  0.1418  1.7097  0.4128
 3868TIP3    H233096   3.385   6.220  12.697 -0.9523 -1.9631  1.1759
 3869TIP3   OH233097   3.761   1.080  11.922  0.0122  0.6187 -0.2091
 3869TIP3    H133098   3.701   1.008  11.910  0.4600  0.4038 -1.2897
 3869TIP3    H233099   3.820   1.075  11.847 -1.6493  3.7728 -1.9159
 3870TIP3   OH233100   4.451   1.141   5.384  0.6368 -0.0045  0.6811
 3870TIP3    H133101   4.526   1.200   5.374 -0.1481  1.0284  0.7393
 3870TIP3    H233102   4.415   1.163   5.470 -0.0654 -0.0965  0.4141
 3871TIP3   OH233103   5.929   1.338  10.917 -0.1671 -0.2634  0.4753
 3871TIP3    H133104   5.845   1.300  10.893 -1.3022  1.2533  1.7850
 3871TIP3    H233105   5.992   1.297  10.858 -1.9265 -0.8515 -1.0963
 3872TIP3   OH233106   3.003   2.447   6.547  0.0090  0.1435 -0.1531
 3872TIP3    H133107   2.923   2.411   6.585  1.3310 -0.9201  1.7889
 3872TIP3    H233108   3.059   2.467   6.622  1.2279  1.7556 -1.4101
 3873TIP3   OH233109   3.832   5.895  14.570  0.7295  0.9213 -0.1050
 3873TIP3    H133110   3.800   5.961  14.632 -2.2067 -1.7766  1.5118
 3873TIP3    H233111   3.879   5.832  14.625 -1.4777 -1.2458 -0.5642
 3874TIP3   OH233112   5.614   0.343   2.180 -0.4209 -0.1918  0.4052
 3874TIP3    H133113   5.564   0.278   2.229 -0.2471 -2.5202 -2.2544
 3874TIP3    H233114   5.695   0.299   2.156 -1.1880  0.0394 -3.3311
 3875TIP3   OH233115   6.401   5.330   2.475 -0.7721 -0.5528 -0.2529
 3875TIP3    H133116   6.368   5.334   2.565  0.7324  1.0344  0.2945
 3875TIP3    H233117   6.324   5.308   2.422 -2.5959  2.1809  1.0150
 3876TIP3   OH233118   1.009   4.738  16.387  0.0925  0.2843  0.0565
 3876TIP3    H133119   1.071   4.704  16.451  0.3931 -0.4757 -0.6213
 3876TIP3    H233120   0.937   4.675  16.389  0.1388  0.2154 -0.4063
 3877TIP3   OH233121   3.971   6.326   5.344 -0.3590 -0.4217  0.4407
 3877TIP3    H133122   4.029   6.385   5.393  1.0245 -0.7101 -0.7711
 3877TIP3    H233123   3.886   6.371   5.344 -0.0502  0.2291  1.8774
 3878TIP3   OH233124   5.471   5.543   1.385  0.4388 -0.3016 -0.1123
 3878TIP3    H133125   5.414   5.469   1.365 -1.4730  0.8301  0.8321
 3878TIP3    H233126   5.496   5.579   1.300  0.2500 -1.1840 -0.5482
 3879TIP3   OH233127   6.577   3.713  11.782  0.0615 -0.6070  0.0711
 3879TIP3    H133128   6.648   3.763  11.823 -0.8402  0.4233  0.4226
 3879TIP3    H233129   6.541   3.661  11.853  0.4248 -1.0989 -0.0983
 3880TIP3   OH233130   0.686   0.134  16.872 -0.1749  0.0273  0.3631
 3880TIP3    H133131   0.657   0.222  16.848 -0.7234 -0.1599  0.3250
 3880TIP3    H233132   0.701   0.090  16.788  1.2304  0.4353  0.3712
 3881TIP3   OH233133   0.221   3.448   2.688 -0.1128  0.2355  0.1980
 3881TIP3    H133134   0.309   3.471   2.659  1.3602 -0.9628  3.2983
 3881TIP3    H233135   0.180   3.532   2.708  0.7506  0.7635 -0.1771
 3882TIP3   OH233136   1.833   4.447  14.517  0.7056 -0.4194  0.2328
 3882TIP3    H133137   1.872   4.371  14.473  0.4502  0.0166 -0.7997
 3882TIP3    H233138   1.792   4.497  14.445  3.1648  2.1095  0.4300
 3883TIP3   OH233139   2.406   5.329  13.787  0.1738 -0.3755  0.5053
 3883TIP3    H133140   2.463   5.373  13.725  0.0180 -0.7906  0.0633
 3883TIP3    H233141   2.443   5.350  13.873 -1.1494  2.4536  0.4796
 3884TIP3   OH233142   6.616   5.342   0.228 -0.3958  0.0486  0.2277
 3884TIP3    H133143   6.548   5.304   0.284 -1.6517  1.4158 -0.3021
 3884TIP3    H233144   6.569   5.378   0.153  0.7339  2.0671  0.3971
 3885TIP3   OH233145   3.904   3.015  15.479  0.0658  0.6789 -0.0038
 3885TIP3    H133146   3.925   2.922  15.475  1.0649  0.9019 -0.2375
 3885TIP3    H233147   3.861   3.034  15.395  1.2353  0.7298 -0.6196
 3886TIP3   OH233148   0.424   3.832  17.312 -0.0778 -0.3016  0.2914
 3886TIP3    H133149   0.466   3.879  17.384 -1.9586  0.5734  0.8594
 3886TIP3    H233150   0.421   3.896  17.240 -0.2891 -0.4096  0.2019
 3887TIP3   OH233151   5.511   2.199   0.095  0.3533  0.1867  0.0621
 3887TIP3    H133152   5.456   2.124   0.119  0.8808 -0.2940 -0.2014
 3887TIP3    H233153   5.502   2.260   0.168  1.4399 -0.9845  1.2293
 3888TIP3   OH233154   0.823   3.732   4.701 -0.4003 -0.1539 -0.3657
 3888TIP3    H133155   0.876   3.803   4.738  0.5193 -1.1628  0.2992
 3888TIP3    H233156   0.747   3.777   4.663 -0.1898  1.1266  0.6518
 3889TIP3   OH233157   4.631   2.439  13.660 -0.7633  0.8840 -0.4874
 3889TIP3    H133158   4.724   2.455  13.669 -0.2738 -1.0636 -1.3878
 3889TIP3    H233159   4.595   2.452  13.747  0.4773  0.9189  0.0368
 3890TIP3   OH233160   1.990   6.129   6.844 -0.1223 -0.3213 -0.2193
 3890TIP3    H133161   2.038   6.148   6.763 -0.1602 -1.4660 -0.5268
 3890TIP3    H233162   2.011   6.201   6.902  0.2857  0.2756 -1.0903
 3891TIP3   OH233163   5.180   5.598  12.652 -0.7772  0.7365 -0.0604
 3891TIP3    H133164   5.095   5.634  12.678 -1.2668  1.0094 -1.8750
 3891TIP3    H233165   5.175   5.506  12.676 -2.3532  0.3190 -1.7297
 3892TIP3   OH233166   3.323   0.001  13.898  0.4271 -0.6667  0.5464
 3892TIP3    H133167   3.394  -0.014  13.835  0.1744 -1.0845  0.3581
 3892TIP3    H233168   3.247   0.020  13.844  0.3151 -0.5672  0.7405
 3893TIP3   OH233169   3.781   2.824  16.340  0.0793  0.1310 -0.0892
 3893TIP3    H133170   3.763   2.872  16.421  0.1430 -1.6889  1.0559
 3893TIP3    H233171   3.877   2.824  16.333  0.3087 -2.2848  1.5817
 3894TIP3   OH233172   5.439   0.560   5.564  0.4130  0.0688 -0.3615
 3894TIP3    H133173   5.431   0.466   5.576 -0.7230 -0.1550 -2.5378
 3894TIP3    H233174   5.492   0.589   5.639  0.4602 -2.2082  0.5560
 3895TIP3   OH233175   2.153   3.703   5.250 -0.2342  0.3201  0.0703
 3895TIP3    H133176   2.230   3.673   5.201  1.5415 -1.5413  3.5874
 3895TIP3    H233177   2.114   3.623   5.285 -0.8778  1.5081  2.2784
 3896TIP3   OH233178   2.535   1.727  12.185 -0.4977 -0.7720  0.0492
 3896TIP3    H133179   2.478   1.800  12.162  0.8342  0.9350  1.8341
 3896TIP3    H233180   2.475   1.657  12.211 -1.7984 -0.3223 -1.5757
 3897TIP3   OH233181   2.952   0.192  14.014  0.6406  0.5639  0.1359
 3897TIP3    H133182   2.868   0.189  13.969  1.5260 -0.1899 -1.5603
 3897TIP3    H233183   2.991   0.275  13.986  1.7838 -0.5287 -1.7037
 3898TIP3   OH233184   1.721   0.325  13.590 -0.0060  0.3268 -0.5560
 3898TIP3    H133185   1.810   0.343  13.559  0.1082 -0.5320 -0.7763
 3898TIP3    H233186   1.728   0.241  13.635 -0.9357 -0.4357 -1.7420
 3899TIP3   OH233187   3.808   4.699   4.291 -0.0086  0.0106  0.1196
 3899TIP3    H133188   3.829   4.788   4.319 -2.5063  0.1941  1.7375
 3899TIP3    H233189   3.772   4.709   4.203 -0.5148  0.6532  0.3914
 3900TIP3   OH233190   6.716   1.291   6.640 -0.4092  0.2699  1.0503
 3900TIP3    H133191   6.686   1.212   6.683 -1.0203  0.4170  0.9006
 3900TIP3    H233192   6.806   1.272   6.615 -0.0481  0.1756  2.3544
 3901TIP3   OH233193   0.005   6.720  14.896  0.1349  0.3910 -0.4409
 3901TIP3    H133194   0.053   6.688  14.973  0.2067 -1.9285 -1.3640
 3901TIP3    H233195   0.060   6.789  14.860  2.2771 -1.3605 -0.7593
 3902TIP3   OH233196   4.491   4.881   0.133  0.5961 -0.3825 -0.1393
 3902TIP3    H133197   4.458   4.804   0.179  0.2189  0.4534  1.0505
 3902TIP3    H233198   4.566   4.910   0.184  1.7815 -0.9077 -1.5222
 3903TIP3   OH233199   4.048   0.303   1.407  0.1077 -0.2814  0.0802
 3903TIP3    H133200   4.011   0.234   1.351  1.6858 -0.5499 -0.6998
 3903TIP3    H233201   3.988   0.309   1.481 -2.6002  0.7154 -2.0201
 3904TIP3   OH233202   5.950   3.971   6.914  0.1448 -0.2255  0.3418
 3904TIP3    H133203   6.016   3.988   6.847 -0.9256 -0.2821 -0.7501
 3904TIP3    H233204   5.869   3.957   6.865 -0.3042 -2.1259  1.5381
 3905TIP3   OH233205   1.343   3.407   5.739 -0.1671 -0.4136 -0.3394
 3905TIP3    H133206   1.320   3.444   5.825  1.7470 -0.4498  0.2412
 3905TIP3    H233207   1.427   3.448   5.717  0.7357 -2.4268 -0.9035
 3906TIP3   OH233208   4.162   0.413   2.718  0.2812  0.5742 -0.1501
 3906TIP3    H133209   4.120   0.423   2.633  1.3648  1.5742 -0.5975
 3906TIP3    H233210   4.249   0.451   2.707  0.1235  1.6010  1.6677
 3907TIP3   OH233211   4.871   4.998   2.537 -0.0699 -0.0467  0.3569
 3907TIP3    H133212   4.800   5.058   2.512  0.2716 -0.0182 -0.5771
 3907TIP3    H233213   4.948   5.053   2.545  0.1648 -0.3044 -0.1245
 3908TIP3   OH233214   5.065   2.581  12.068  0.6094 -0.1198 -0.0669
 3908TIP3    H133215   5.020   2.665  12.068 -2.5226 -1.6696 -0.9989
 3908TIP3    H233216   5.106   2.576  11.982  0.7269  0.3894 -0.0435
 3909TIP3   OH233217   6.372   4.208  12.491 -0.0996 -0.0715  0.2259
 3909TIP3    H133218   6.289   4.250  12.468  0.5422  1.3683  0.4241
 3909TIP3    H233219   6.402   4.255  12.569  2.1210  1.2378 -1.2831
 3910TIP3   OH233220   0.310   5.869  15.546  0.6603 -0.1636  0.1037
 3910TIP3    H133221   0.363   5.947  15.560  0.2576 -0.1446  1.7748
 3910TIP3    H233222   0.222   5.895  15.574  0.2337 -0.8308 -0.5866
 3911TIP3   OH233223   6.158   5.868   0.605 -0.8130  0.5085 -0.1773
 3911TIP3    H133224   6.245   5.860   0.644 -0.8722 -2.3530 -0.3834
 3911TIP3    H233225   6.171   5.849   0.512 -1.6580 -0.3315 -0.1426
 3912TIP3   OH233226   2.986   2.217   2.006 -0.1939 -0.0480  0.4429
 3912TIP3    H133227   2.928   2.290   2.028  0.0079  0.2615 -0.0150
 3912TIP3    H233228   3.063   2.230   2.062  0.2751  0.6793 -0.3265
 3913TIP3   OH233229   1.159   6.282   1.323 -0.4262  0.4876  0.6090
 3913TIP3    H133230   1.093   6.225   1.285 -0.2954 -0.2039  1.3938
 3913TIP3    H233231   1.139   6.369   1.289  0.9870 -0.3619 -2.8465
 3914TIP3   OH233232   6.034   2.671  16.365  0.1112 -0.5226  0.2942
 3914TIP3    H133233   5.952   2.721  16.370  1.6112  2.1050  0.2686
 3914TIP3    H233234   6.061   2.659  16.456  0.5008  0.0959  0.2695
 3915TIP3   OH233235   5.714   3.888   3.229 -0.6400 -0.7256 -0.7658
 3915TIP3    H133236   5.782   3.868   3.165 -0.1383 -0.9593 -0.1728
 3915TIP3    H233237   5.761   3.899   3.312 -1.2426 -0.1140 -0.4933
 3916TIP3   OH233238   0.625   1.790   0.452  0.0952  0.1047  0.1583
 3916TIP3    H133239   0.558   1.858   0.445 -0.7035 -0.5840  0.9639
 3916TIP3    H233240   0.659   1.799   0.541 -1.8950 -2.2422  1.2300
 3917TIP3   OH233241   0.322   3.981  12.943  0.3106 -0.2511  0.3066
 3917TIP3    H133242   0.339   3.972  12.849  2.8762  0.1795  0.6403
 3917TIP3    H233243   0.371   3.909  12.983  2.4179  1.6934  1.4870
 3918TIP3   OH233244   5.531   6.037   4.055 -0.2215  0.2006  0.4268
 3918TIP3    H133245   5.529   6.116   4.001  0.0827  0.5835  0.9648
 3918TIP3    H233246   5.591   5.978   4.009  1.1205  1.0448  1.0268
 3919TIP3   OH233247   5.237   1.844  12.069  0.2030  0.3283  0.6154
 3919TIP3    H133248   5.148   1.817  12.092  0.1621 -0.4922 -0.4679
 3919TIP3    H233249   5.226   1.932  12.033 -0.2770 -0.0401 -0.1737
 3920TIP3   OH233250   5.618   1.407   0.215  0.6801 -0.7052 -0.3508
 3920TIP3    H133251   5.643   1.454   0.135  0.9094  2.7580  1.5736
 3920TIP3    H233252   5.698   1.364   0.244  1.3881  0.5100 -0.4394
 3921TIP3   OH233253   0.949   3.946  12.639  0.4621  0.2160  0.2781
 3921TIP3    H133254   0.995   3.879  12.589 -0.0722  0.5762 -0.7033
 3921TIP3    H233255   0.857   3.929  12.622  0.1589 -0.6556  2.4270
 3922TIP3   OH233256   0.227   1.864   4.472 -0.2193  0.4464  0.3425
 3922TIP3    H133257   0.171   1.801   4.517  0.8488  0.9203  2.4744
 3922TIP3    H233258   0.206   1.948   4.513  1.5239  0.7361  0.7215
 3923TIP3   OH233259   4.096   3.906   5.494 -0.1543  0.4442 -0.6582
 3923TIP3    H133260   4.004   3.917   5.471  0.2552  3.6011 -1.2084
 3923TIP3    H233261   4.143   3.909   5.411  0.5535  0.8944 -0.2597
 3924TIP3   OH233262   0.511   5.238   1.878  0.0362 -0.2510  0.5446
 3924TIP3    H133263   0.448   5.211   1.811 -0.3562  1.3367  0.2488
 3924TIP3    H233264   0.459   5.284   1.943  0.8366  0.7788  0.4695
 3925TIP3   OH233265   0.167   0.273  14.206  0.1280 -0.2224 -0.2971
 3925TIP3    H133266   0.107   0.202  14.229 -0.3704  0.5753  0.9863
 3925TIP3    H233267   0.148   0.292  14.114  0.6310 -2.0600 -0.8290
 3926TIP3   OH233268   4.329   0.709  15.944  0.0362 -0.3945  0.6336
 3926TIP3    H133269   4.310   0.647  16.014  1.2814 -2.3920 -0.6998
 3926TIP3    H233270   4.259   0.695  15.879  0.2080 -0.2568  0.4149
 3927TIP3   OH233271   5.530   3.568  11.738  0.3804 -0.1156  0.0214
 3927TIP3    H133272   5.540   3.618  11.820 -0.2924 -1.0825  0.7176
 3927TIP3    H233273   5.600   3.601  11.682  1.1708  0.2374  1.1604
 3928TIP3   OH233274   1.842   4.777  14.349  0.5751  0.2759 -0.1075
 3928TIP3    H133275   1.934   4.758  14.366  0.4892  0.4383  0.5475
 3928TIP3    H233276   1.803   4.691  14.330  0.3565 -0.1491  2.0325
 3929TIP3   OH233277   1.157   3.938  13.230 -0.0230 -0.8423 -0.1782
 3929TIP3    H133278   1.135   3.879  13.159  0.4423 -1.9325  0.5604
 3929TIP3    H233279   1.101   3.911  13.302 -0.0610 -0.1443  0.0646
 3930TIP3   OH233280   1.499   5.549   1.275 -0.0635  0.3229 -0.7490
 3930TIP3    H133281   1.411   5.559   1.313 -0.5164 -2.3813 -0.8894
 3930TIP3    H233282   1.485   5.564   1.181 -0.0438  1.3945 -0.5966
 3931TIP3   OH233283   2.065   2.178  16.319  0.1042  0.4436 -0.1341
 3931TIP3    H133284   2.003   2.138  16.258 -0.7623  0.3996  0.7296
 3931TIP3    H233285   2.013   2.191  16.399  1.5279 -0.7339  1.0393
 3932TIP3   OH233286   1.150   2.367  15.770  0.1867  0.1848 -0.1819
 3932TIP3    H133287   1.080   2.425  15.739 -0.8860 -0.6849  0.5555
 3932TIP3    H233288   1.107   2.308  15.831  1.4986 -0.6391 -0.0229
 3933TIP3   OH233289   5.637   5.331   1.981 -0.0396 -0.3518 -0.0364
 3933TIP3    H133290   5.604   5.255   2.030  0.9077 -1.1511 -0.5931
 3933TIP3    H233291   5.668   5.391   2.048 -3.7948  1.1151  0.6360
 3934TIP3   OH233292   2.540   6.420  11.406 -0.2359 -0.1302 -0.2876
 3934TIP3    H133293   2.486   6.439  11.329 -0.0642  0.1940 -0.3280
 3934TIP3    H233294   2.519   6.490  11.467 -0.5830 -0.5434  0.0734
 3935TIP3   OH233295   3.954   5.669  14.705  0.1361  0.3781 -1.5696
 3935TIP3    H133296   3.987   5.582  14.681 -0.0769  0.3156 -1.6400
 3935TIP3    H233297   3.980   5.680  14.796 -1.0870 -0.3771 -1.0866
 3936TIP3   OH233298   1.393   3.998  12.832  0.2783  0.7318  0.8795
 3936TIP3    H133299   1.415   4.090  12.845  1.5469  0.2553  2.4893
 3936TIP3    H233300   1.468   3.961  12.787 -0.0654  0.4078  0.5683
 3937TIP3   OH233301   1.460   2.787   0.968  0.0177  0.3893  0.3882
 3937TIP3    H133302   1.517   2.841   0.914 -0.4924  0.6696  0.1253
 3937TIP3    H233303   1.452   2.834   1.051  2.1669 -0.8387  1.4046
 3938TIP3   OH233304   0.568   1.341   2.788 -0.2971  0.9043  0.0507
 3938TIP3    H133305   0.643   1.285   2.808 -0.7334  0.1832 -0.3183
 3938TIP3    H233306   0.494   1.298   2.829 -0.7507  0.8414 -0.8113
 3939TIP3   OH233307   4.549   4.527  13.277  0.0917 -0.6356  0.0200
 3939TIP3    H133308   4.574   4.581  13.352 -0.1575  0.0976 -0.4154
 3939TIP3    H233309   4.511   4.448  13.316 -1.4473  0.3920  0.6687
 3940TIP3   OH233310   4.797   4.538   2.469 -0.9374  0.0873 -0.0582
 3940TIP3    H133311   4.826   4.627   2.446 -0.0965  0.1065  0.9935
 3940TIP3    H233312   4.851   4.481   2.415  1.0503  0.1306  1.7571
 3941TIP3   OH233313   5.861   4.757   4.350 -0.3263 -0.1112 -0.4703
 3941TIP3    H133314   5.840   4.689   4.414 -0.1872 -0.2271 -0.5469
 3941TIP3    H233315   5.803   4.829   4.372 -1.4377 -0.7420 -1.2187
 3942TIP3   OH233316   4.732   3.087   3.489 -0.2495 -0.8627 -0.0164
 3942TIP3    H133317   4.805   3.145   3.508  0.4619 -0.9529 -2.2106
 3942TIP3    H233318   4.673   3.140   3.435 -0.0503 -1.8445 -1.2383
 3943TIP3   OH233319   5.589   0.371  16.593 -0.5426  0.2982 -0.5995
 3943TIP3    H133320   5.560   0.362  16.502  1.9797  0.3852 -1.4688
 3943TIP3    H233321   5.664   0.430  16.589  0.9174 -1.3155  1.2411
 3944TIP3   OH233322   2.699   4.782  15.064  0.0215  0.0071 -0.1968
 3944TIP3    H133323   2.605   4.766  15.066 -0.3988  2.1069 -0.9119
 3944TIP3    H233324   2.735   4.708  15.016 -1.2221 -0.9079  0.2359
 3945TIP3   OH233325   4.080   1.832  11.274  0.1508 -0.6749 -0.1571
 3945TIP3    H133326   4.034   1.894  11.217 -0.4500 -1.4728 -0.5630
 3945TIP3    H233327   4.150   1.884  11.315 -0.2398  0.2255 -0.6017
 3946TIP3   OH233328   3.279   5.953   1.738 -0.2280 -0.4486  0.2301
 3946TIP3    H133329   3.326   6.028   1.700  0.6404 -1.5525 -0.9686
 3946TIP3    H233330   3.330   5.877   1.712  0.3642 -1.3488  3.5867
 3947TIP3   OH233331   0.157   3.025   2.642  0.0852 -0.6841  0.8349
 3947TIP3    H133332   0.228   2.989   2.587 -1.1331 -0.2169 -1.1271
 3947TIP3    H233333   0.081   2.972   2.619 -0.6118 -0.0272  1.6180
 3948TIP3   OH233334   1.522   0.300   2.139 -0.0518  0.3795 -0.2689
 3948TIP3    H133335   1.466   0.330   2.210  1.9806  1.4701  0.9824
 3948TIP3    H233336   1.551   0.381   2.095  3.5320  0.3136  1.5858
 3949TIP3   OH233337   2.816   4.553  12.299 -0.0211 -0.0298 -0.0791
 3949TIP3    H133338   2.845   4.520  12.214 -0.3206 -0.8754  0.1307
 3949TIP3    H233339   2.847   4.486  12.361  1.8528  1.4828  0.7172
 3950TIP3   OH233340   4.303   5.177  15.636  0.0513 -0.3497  0.1347
 3950TIP3    H133341   4.382   5.166  15.583  0.2838 -0.1424  0.4331
 3950TIP3    H233342   4.238   5.212  15.575  0.4750  0.4104  0.0975
 3951TIP3   OH233343   6.058   1.563  15.142  0.0089 -0.5887  0.1552
 3951TIP3    H133344   5.981   1.510  15.161 -0.4558  0.0414  0.0875
 3951TIP3    H233345   6.053   1.635  15.205  0.8667 -0.8551  0.5411
 3952TIP3   OH233346   0.765   2.477  16.749 -0.3254  0.0663  0.3043
 3952TIP3    H133347   0.750   2.384  16.768 -0.7459 -0.0011 -0.3323
 3952TIP3    H233348   0.767   2.519  16.835 -0.0797 -0.5389  0.6011
 3953TIP3   OH233349   4.235   0.240   1.914 -0.2194  0.3831 -0.2912
 3953TIP3    H133350   4.199   0.253   1.826  0.2588  0.9417 -0.4115
 3953TIP3    H233351   4.317   0.194   1.900 -1.3791 -1.9585  0.0647
 3954TIP3   OH233352   6.718   5.772  13.461  0.0241  0.0346 -0.1961
 3954TIP3    H133353   6.804   5.798  13.428 -0.2174 -0.3528 -1.1583
 3954TIP3    H233354   6.710   5.679  13.438 -0.6923  0.0927 -0.2150
 3955TIP3   OH233355   6.421   4.195   0.750 -0.6839 -0.0069 -0.4545
 3955TIP3    H133356   6.344   4.140   0.733 -0.5204  0.2734 -2.3370
 3955TIP3    H233357   6.495   4.142   0.721 -0.3874  0.6098 -0.8409
 3956TIP3   OH233358   5.559   1.182   5.121 -0.1085 -0.0252 -0.5696
 3956TIP3    H133359   5.479   1.148   5.081  0.9265 -0.4617 -2.3671
 3956TIP3    H233360   5.627   1.166   5.056  0.9324  3.0606 -0.4137
 3957TIP3   OH233361   6.316   0.410  16.011 -0.4121  0.1093  0.5404
 3957TIP3    H133362   6.255   0.446  15.946 -1.9289 -1.7739  0.8109
 3957TIP3    H233363   6.333   0.483  16.070 -0.1728  1.4564 -1.0991
 3958TIP3   OH233364   2.539   0.662   1.615  0.1240 -0.6033 -0.6791
 3958TIP3    H133365   2.620   0.713   1.617  0.0570 -0.5136  0.8122
 3958TIP3    H233366   2.568   0.572   1.598  0.5402 -0.5778 -0.1210
 3959TIP3   OH233367   1.840   1.560  14.387 -0.5369 -0.4364 -0.9471
 3959TIP3    H133368   1.866   1.545  14.478 -1.2567 -1.5116 -0.9032
 3959TIP3    H233369   1.898   1.630  14.357 -1.4300  1.1622  0.8415
 3960TIP3   OH233370   4.540   3.769  16.075  0.0720  0.1008 -0.5036
 3960TIP3    H133371   4.535   3.771  16.170  0.1670 -2.2703 -0.3816
 3960TIP3    H233372   4.593   3.691  16.056 -0.7698 -0.0347 -2.5048
 3961TIP3   OH233373   3.426   3.062  11.718 -0.1184  0.2857 -0.3165
 3961TIP3    H133374   3.356   3.014  11.673 -0.0842  0.7639 -0.8905
 3961TIP3    H233375   3.495   2.997  11.731 -0.4832 -0.0722 -0.1686
 3962TIP3   OH233376   3.900   3.507  15.341 -0.3105 -0.3005  0.2747
 3962TIP3    H133377   3.870   3.584  15.292  1.6805 -0.3823 -1.2169
 3962TIP3    H233378   3.842   3.503  15.417 -3.5312 -0.1149 -1.9810
 3963TIP3   OH233379   0.013   1.776   1.177  0.1523 -0.1550 -0.7603
 3963TIP3    H133380   0.100   1.816   1.179 -0.0046  0.2280 -1.2665
 3963TIP3    H233381   0.030   1.682   1.170  0.5255 -0.1731  0.2162
 3964TIP3   OH233382   2.253   4.485  14.858 -0.1308  0.7321 -0.3755
 3964TIP3    H133383   2.341   4.466  14.893  0.2111  1.3297 -0.8983
 3964TIP3    H233384   2.210   4.535  14.927 -0.5392 -0.6852  0.4341
 3965TIP3   OH233385   3.203   2.271  11.866 -0.4435  0.5762  0.1465
 3965TIP3    H133386   3.287   2.305  11.836 -0.1019  0.5074  1.0068
 3965TIP3    H233387   3.186   2.318  11.948 -0.5733 -0.4005  0.6916
 3966TIP3   OH233388   2.632   2.668  16.400  0.3754 -0.6587 -0.5396
 3966TIP3    H133389   2.621   2.574  16.382  2.4591 -0.9614 -0.3883
 3966TIP3    H233390   2.679   2.671  16.483 -1.9660  0.6186  0.8588
 3967TIP3   OH233391   1.119   5.870  15.355 -0.2838  0.3123 -0.1293
 3967TIP3    H133392   1.133   5.782  15.392  1.2698  1.3347  1.9170
 3967TIP3    H233393   1.087   5.854  15.266  2.2088 -2.3484 -0.6820
 3968TIP3   OH233394   5.716   2.881  13.509  0.3446 -0.1331  0.1434
 3968TIP3    H133395   5.727   2.951  13.574  0.1490  1.4994 -1.4995
 3968TIP3    H233396   5.621   2.872  13.499  0.3676 -0.6494  0.3275
 3969TIP3   OH233397   0.518   2.255  12.251  0.1661 -0.0983  0.8235
 3969TIP3    H133398   0.520   2.219  12.339  1.4556  2.2545  1.8377
 3969TIP3    H233399   0.437   2.307  12.248 -0.0983 -0.5219  0.4504
 3970TIP3   OH233400   5.063   5.973  16.342  0.5266  0.4563  0.0843
 3970TIP3    H133401   5.039   5.882  16.326 -0.8111  0.6096  1.0287
 3970TIP3    H233402   5.125   5.995  16.272  0.9954 -1.2127 -0.0513
 3971TIP3   OH233403   1.740   3.096  17.102  0.0860 -0.8178 -0.2178
 3971TIP3    H133404   1.802   3.049  17.046 -1.6009 -1.2744 -1.7827
 3971TIP3    H233405   1.662   3.041  17.104 -0.9194  0.5524  0.2852
 3972TIP3   OH233406   5.848   0.554  17.479  0.1261 -0.1217  0.0747
 3972TIP3    H133407   5.889   0.616  17.539  1.6843  0.2174 -1.2881
 3972TIP3    H233408   5.913   0.486  17.467  0.1116  0.1367 -1.7010
 3973TIP3   OH233409   4.246   2.263  16.435 -0.2710  0.4268 -0.1117
 3973TIP3    H133410   4.256   2.314  16.355 -0.3190 -0.6438 -0.8350
 3973TIP3    H233411   4.235   2.327  16.504  0.1898  1.3868 -0.9091
 3974TIP3   OH233412   3.493   0.441   2.973  0.5720 -0.0758 -0.2812
 3974TIP3    H133413   3.488   0.388   2.894 -0.1283  0.6364 -0.7292
 3974TIP3    H233414   3.409   0.426   3.017  1.5552 -1.7230  1.1805
 3975TIP3   OH233415   5.047   5.019   3.975 -0.4096  0.5695  0.7911
 3975TIP3    H133416   5.129   5.051   4.012 -0.8785  0.9366  1.5475
 3975TIP3    H233417   5.068   4.933   3.940  0.9763  1.7926 -1.6154
 3976TIP3   OH233418   4.729   6.008  12.604  0.7380 -0.4744  0.0021
 3976TIP3    H133419   4.814   5.971  12.628 -0.8443 -2.6327  2.9576
 3976TIP3    H233420   4.681   6.011  12.686 -2.2895  0.0355 -1.6596
 3977TIP3   OH233421   1.450   5.724  17.342 -0.9467  0.5553 -0.2836
 3977TIP3    H133422   1.532   5.722  17.292 -0.3803 -1.3951  0.6135
 3977TIP3    H233423   1.461   5.654  17.407 -1.8167  2.6745  2.2825
 3978TIP3   OH233424   3.627   2.222  14.847  0.1934 -0.6283  0.1431
 3978TIP3    H133425   3.701   2.249  14.792  1.6297 -3.4943  0.4744
 3978TIP3    H233426   3.653   2.245  14.936 -1.0789  1.8266 -0.0528
 3979TIP3   OH233427   5.881   1.164   4.498 -0.8435 -0.1468 -0.4003
 3979TIP3    H133428   5.911   1.255   4.493 -2.9824  0.8281  2.0755
 3979TIP3    H233429   5.786   1.171   4.510 -1.0960 -2.7358 -0.3642
 3980TIP3   OH233430   5.667   3.203  11.654  0.5128 -0.2320  0.4550
 3980TIP3    H133431   5.592   3.225  11.709 -0.0502 -1.6152  0.2856
 3980TIP3    H233432   5.744   3.228  11.706 -0.0495  0.6616  0.8694
 3981TIP3   OH233433   4.732   6.110  12.241  0.0880  0.1064  0.3610
 3981TIP3    H133434   4.739   6.030  12.189  0.9136  0.6454 -0.3852
 3981TIP3    H233435   4.675   6.086  12.314 -1.9209 -0.4222 -1.2859
 3982TIP3   OH233436   5.319   1.552  16.856  0.1154  0.1615 -0.2350
 3982TIP3    H133437   5.331   1.561  16.950 -1.6692 -1.9682  0.2757
 3982TIP3    H233438   5.393   1.497  16.828 -0.4622 -0.9424  0.3299
 3983TIP3   OH233439   5.283   1.752   2.428  0.5337  0.3357 -0.0166
 3983TIP3    H133440   5.251   1.836   2.395 -1.0040 -1.1074 -2.5136
 3983TIP3    H233441   5.228   1.734   2.504 -0.6043  0.6406 -0.7356
 3984TIP3   OH233442   4.397   1.078   4.424 -0.1799  0.5030  0.1235
 3984TIP3    H133443   4.490   1.070   4.448 -1.0015 -3.3786  2.9181
 3984TIP3    H233444   4.373   0.992   4.391 -3.1559  0.9292  0.8952
 3985TIP3   OH233445   5.550   6.074  15.970  0.2926 -0.1246 -0.2186
 3985TIP3    H133446   5.624   6.074  16.029  0.0547 -2.1433  0.1554
 3985TIP3    H233447   5.579   6.023  15.894 -0.2960  0.1358 -0.6315
 3986TIP3   OH233448   1.456   5.468   3.462 -0.3489  0.2148 -0.0332
 3986TIP3    H133449   1.457   5.523   3.540  0.6678  2.4779 -1.5566
 3986TIP3    H233450   1.363   5.461   3.440 -0.7359 -1.0845  1.7080
 3987TIP3   OH233451   4.975   2.671  14.150  0.0291 -0.8275 -0.3363
 3987TIP3    H133452   4.994   2.582  14.180  1.0020 -1.3287 -2.3107
 3987TIP3    H233453   4.921   2.660  14.072 -2.1478  0.4359  0.8623
 3988TIP3   OH233454   1.693   1.162   5.886  0.5082 -0.0375 -0.0339
 3988TIP3    H133455   1.690   1.238   5.943  1.1604 -1.0768  1.4540
 3988TIP3    H233456   1.760   1.183   5.820 -0.1817  1.1309 -0.3920
 3989TIP3   OH233457   3.708   5.400  14.558 -0.0580 -0.0990  0.3974
 3989TIP3    H133458   3.775   5.346  14.517  0.6842  0.3850  0.9386
 3989TIP3    H233459   3.714   5.485  14.514 -0.4385 -0.1058  0.3263
 3990TIP3   OH233460   2.005   0.160   6.592 -0.1510 -0.0010  0.1281
 3990TIP3    H133461   1.936   0.195   6.536  1.0759  0.2949 -1.2816
 3990TIP3    H233462   2.025   0.074   6.556  0.9415  0.3636 -0.1746
 3991TIP3   OH233463   2.608   3.933  12.322  0.1324 -0.1714  0.0429
 3991TIP3    H133464   2.684   3.986  12.344  2.0428 -1.3492 -3.0605
 3991TIP3    H233465   2.619   3.852  12.372  0.0404  0.2705  0.7865
 3992TIP3   OH233466   3.430   6.222   5.638 -0.0447 -0.0768 -0.4441
 3992TIP3    H133467   3.493   6.286   5.671  0.6753 -0.6804 -0.6175
 3992TIP3    H233468   3.362   6.219   5.704  1.3563 -1.2544  1.0290
 3993TIP3   OH233469   6.317   3.651  15.163  0.2623 -0.6941 -0.2002
 3993TIP3    H133470   6.393   3.698  15.199  0.9243 -2.0722  0.2977
 3993TIP3    H233471   6.261   3.719  15.127  2.1133  0.3224 -1.2942
 3994TIP3   OH233472   5.107   5.637   3.862 -0.4321  0.2116 -0.2831
 3994TIP3    H133473   5.016   5.617   3.885  0.0092 -1.3582  0.1827
 3994TIP3    H233474   5.159   5.603   3.934  0.7571 -2.0672 -2.0641
 3995TIP3   OH233475   6.210   6.111  12.388 -0.1641 -0.2180 -0.2017
 3995TIP3    H133476   6.117   6.092  12.401 -0.3947  0.1317 -1.2912
 3995TIP3    H233477   6.238   6.152  12.471 -1.1023  0.1685 -0.0645
 3996TIP3   OH233478   6.068   0.311   0.678 -0.4379  0.5957  0.2697
 3996TIP3    H133479   6.140   0.323   0.616  0.8672 -0.0362  1.6050
 3996TIP3    H233480   6.000   0.267   0.627  0.6357 -0.0192 -0.6961
 3997TIP3   OH233481   4.392   6.196   3.465  0.7305 -0.1778  0.4328
 3997TIP3    H133482   4.470   6.157   3.425  0.7597 -0.8262  1.0895
 3997TIP3    H233483   4.425   6.243   3.541  0.4310 -1.0437  1.1259
 3998TIP3   OH233484   6.132   1.747   2.379  0.4119  0.1031  0.0368
 3998TIP3    H133485   6.202   1.772   2.319 -0.4864  0.9523 -0.6891
 3998TIP3    H233486   6.056   1.798   2.351 -0.8279 -1.6069  0.0748
 3999TIP3   OH233487   2.833   4.912  14.047 -0.0651 -0.9087 -0.1130
 3999TIP3    H133488   2.782   4.987  14.014  2.1337  0.7559  0.0476
 3999TIP3    H233489   2.871   4.944  14.129  1.2427 -2.0576 -0.2391
 4000TIP3   OH233490   1.585   4.986  16.675  0.4362 -0.4853 -1.0514
 4000TIP3    H133491   1.628   4.973  16.591  0.1778 -0.6017 -1.1668
 4000TIP3    H233492   1.493   5.001  16.653  0.4034 -0.3086 -0.8027
 4001TIP3   OH233493   2.740   4.197  16.568  0.1668  0.4435  0.3468
 4001TIP3    H133494   2.769   4.106  16.560 -0.2885  0.2325  0.9850
 4001TIP3    H233495   2.645   4.192  16.565  0.1369  0.8854  0.5060
 4002TIP3   OH233496   3.395   1.064  11.768  0.6170  0.1396  0.4028
 4002TIP3    H133497   3.451   1.093  11.695  0.1021  0.4137  0.1025
 4002TIP3    H233498   3.440   0.988  11.804 -0.3179 -1.5621 -1.7687
 4003TIP3   OH233499   3.814   4.967   4.333 -0.1651  0.1907  0.2949
 4003TIP3    H133500   3.816   4.998   4.242 -1.4394 -0.8014 -0.0916
 4003TIP3    H233501   3.726   4.987   4.363  0.5264  1.3901  1.6637
 4004TIP3   OH233502   0.551   2.054   0.146  0.2879 -0.0703  0.4582
 4004TIP3    H133503   0.468   2.018   0.115  1.1007 -1.5855 -0.0420
 4004TIP3    H233504   0.617   2.014   0.089  1.6794 -1.4869  2.9100
 4005TIP3   OH233505   6.532   6.305   3.135  0.4001  0.5268 -0.8958
 4005TIP3    H133506   6.581   6.224   3.120  0.7027  0.3439  0.8445
 4005TIP3    H233507   6.441   6.277   3.141  0.7308 -0.2392  2.6446
 4006TIP3   OH233508   5.899   5.905   3.329  0.2328 -0.1978  0.1173
 4006TIP3    H133509   5.835   5.975   3.317  0.1724 -0.0917  0.9473
 4006TIP3    H233510   5.982   5.951   3.339  0.6181 -0.3787 -1.9344
 4007TIP3   OH233511   3.592   4.665   0.342  0.6633  0.1917  0.3916
 4007TIP3    H133512   3.640   4.743   0.370  0.2072 -0.3444  2.8860
 4007TIP3    H233513   3.656   4.614   0.293  2.0798  0.4370  1.8996
 4008TIP3   OH233514   5.850   4.361  10.541  0.0037 -0.5569  0.5009
 4008TIP3    H133515   5.797   4.353  10.461  1.2269 -1.1859 -0.2717
 4008TIP3    H233516   5.792   4.330  10.611 -0.2643 -2.4599 -0.4915
 4009TIP3   OH233517   6.065   5.662   2.549  0.1286 -0.0142  0.1242
 4009TIP3    H133518   5.989   5.606   2.534 -1.4741  2.1305 -0.2658
 4009TIP3    H233519   6.057   5.691   2.640 -1.1587  2.3661 -0.6507
 4010TIP3   OH233520   6.663   6.142   0.465 -0.8503 -0.4505 -0.1419
 4010TIP3    H133521   6.685   6.167   0.554 -2.2610  0.9120 -0.1178
 4010TIP3    H233522   6.698   6.213   0.411 -1.9746 -0.0751 -0.4151
 4011TIP3   OH233523   3.533   5.722  15.724  0.3192 -0.7641 -0.7109
 4011TIP3    H133524   3.460   5.668  15.757 -0.7836  0.3688 -1.2120
 4011TIP3    H233525   3.516   5.809  15.758  2.7281 -0.9030  1.0641
 4012TIP3   OH233526   2.181   6.605   1.475  0.0462  0.4207 -0.1834
 4012TIP3    H133527   2.152   6.631   1.388 -0.3141  0.9424  0.0879
 4012TIP3    H233528   2.157   6.513   1.482 -0.9484  0.6713 -0.2142
 4013TIP3   OH233529   3.652   4.266   4.077  0.1779  0.4661  0.0444
 4013TIP3    H133530   3.697   4.298   4.155 -0.2387 -1.2222  1.0288
 4013TIP3    H233531   3.707   4.294   4.004  0.1265  2.8628  0.8277
 4014TIP3   OH233532   2.783   5.870   2.089 -0.3050  0.1346 -0.1191
 4014TIP3    H133533   2.798   5.776   2.102 -0.2749  0.5895  5.6916
 4014TIP3    H233534   2.867   5.911   2.109 -0.5577  1.5036 -1.6742
 4015TIP3   OH233535   0.997   1.240  16.278 -0.3571  0.6667  0.1909
 4015TIP3    H133536   0.960   1.182  16.211  1.5749  1.2377 -1.4851
 4015TIP3    H233537   1.072   1.191  16.313 -0.0758  1.2355  0.3882
 4016TIP3   OH233538   6.386   6.509   1.899  0.0037  0.4052  0.1561
 4016TIP3    H133539   6.297   6.541   1.889  0.3488  1.0128 -1.1793
 4016TIP3    H233540   6.379   6.413   1.893 -0.4397  0.5029 -1.0451
 4017TIP3   OH233541   4.397   3.240   1.484  0.0339  0.0616  0.6840
 4017TIP3    H133542   4.449   3.306   1.438  0.0792  0.9658  1.9890
 4017TIP3    H233543   4.360   3.286   1.559  1.7429 -1.8478  2.8276
 4018TIP3   OH233544   4.824   1.852   1.504  0.7546 -0.0769 -0.5358
 4018TIP3    H133545   4.907   1.854   1.456  2.8146 -0.0798  2.7315
 4018TIP3    H233546   4.785   1.768   1.480  1.2260  0.2537 -2.7243
 4019TIP3   OH233547   3.685   0.093  13.468  0.1097  0.1942 -0.5225
 4019TIP3    H133548   3.618   0.040  13.425  1.3258 -1.8182 -0.0687
 4019TIP3    H233549   3.752   0.107  13.401 -0.7162  2.2858 -1.0067
 4020TIP3   OH233550   4.220   2.253  12.606  0.5591 -0.0769  0.3107
 4020TIP3    H133551   4.130   2.251  12.573  0.8908  0.6346 -0.6649
 4020TIP3    H233552   4.268   2.193  12.548  0.9093  0.2887  0.2238
 4021TIP3   OH233553   2.865   4.863   4.566  0.2838 -0.8012 -0.1538
 4021TIP3    H133554   2.836   4.954   4.560  2.2604 -0.0978  0.3931
 4021TIP3    H233555   2.791   4.818   4.608 -0.9662  0.3968 -0.9668
 4022TIP3   OH233556   3.142   0.759   4.481 -0.1770 -0.4474  0.4484
 4022TIP3    H133557   3.178   0.785   4.566  0.1331 -0.6609  0.3858
 4022TIP3    H233558   3.047   0.769   4.491 -0.0106  3.3090 -0.4158
 4023TIP3   OH233559   5.983   3.061  16.374 -0.7503 -0.1872 -0.1603
 4023TIP3    H133560   5.908   3.063  16.434  0.1835  0.4271  1.0230
 4023TIP3    H233561   5.958   3.120  16.303 -1.7702 -0.7257 -0.2734
 4024TIP3   OH233562   3.209   0.842  13.235  0.0044 -0.1123 -0.1856
 4024TIP3    H133563   3.214   0.818  13.142  1.1571 -2.0870  0.3344
 4024TIP3    H233564   3.300   0.837  13.266 -0.3072  0.9427  0.9665
 4025TIP3   OH233565   2.208   5.174  15.581 -0.0241 -0.0532 -0.1086
 4025TIP3    H133566   2.229   5.191  15.673  0.7722 -1.2487 -0.0545
 4025TIP3    H233567   2.138   5.109  15.584 -0.4921  0.4302 -0.3523
 4026TIP3   OH233568   2.847   3.204  15.844 -0.2694 -0.4537  0.4278
 4026TIP3    H133569   2.839   3.167  15.757 -2.4789 -0.1663  0.4381
 4026TIP3    H233570   2.841   3.128  15.903 -1.7748 -0.4100  0.3705
 4027TIP3   OH233571   2.730   2.606   3.244  0.3634 -0.0244 -0.0625
 4027TIP3    H133572   2.769   2.690   3.270  2.4227 -1.1206  0.6080
 4027TIP3    H233573   2.804   2.554   3.214 -1.1776 -0.8308 -2.8083
 4028TIP3   OH233574   4.825   6.146   3.782  0.0496 -0.2951  0.0977
 4028TIP3    H133575   4.748   6.184   3.740 -0.7725 -0.8270  1.0684
 4028TIP3    H233576   4.815   6.167   3.875 -0.0594 -2.2065  0.5606
 4029TIP3   OH233577   5.598   0.760   0.463  0.4888  0.0006 -0.1545
 4029TIP3    H133578   5.540   0.765   0.387  1.1570  1.5404 -0.5942
 4029TIP3    H233579   5.546   0.796   0.535  0.8946  1.5255 -0.5798
 4030TIP3   OH233580   6.261   6.242  16.576 -0.1895  0.0735  0.5258
 4030TIP3    H133581   6.337   6.275  16.528 -1.1664  0.9876 -0.4209
 4030TIP3    H233582   6.221   6.178  16.517 -1.9773  1.9342 -0.3746
 4031TIP3   OH233583   4.626   3.822  11.136 -0.4958 -0.2773 -0.6633
 4031TIP3    H133584   4.693   3.852  11.075 -0.5863  2.8082  0.5533
 4031TIP3    H233585   4.552   3.881  11.121 -0.1339  1.4317  3.0285
 4032TIP3   OH233586   3.672   2.929  11.768  0.4087 -0.2554 -0.4139
 4032TIP3    H133587   3.641   2.918  11.858  0.2574 -0.8430 -0.5338
 4032TIP3    H233588   3.740   2.997  11.774  0.9223 -0.8159  0.2582
 4033TIP3   OH233589   0.961   0.110   2.099  0.3721  0.0607  0.9801
 4033TIP3    H133590   0.946   0.046   2.168  0.4860  0.2817  1.2101
 4033TIP3    H233591   0.874   0.127   2.062  0.2766  0.1261  1.2337
 4034TIP3   OH233592   1.074   4.693   2.569 -0.4065  0.8614  0.5318
 4034TIP3    H133593   1.109   4.760   2.510  0.4552  0.6259  0.7595
 4034TIP3    H233594   0.991   4.730   2.600 -0.3566  1.4500  0.0044
 4035TIP3   OH233595   5.802   1.921  14.438 -0.8489 -0.2199 -0.2819
 4035TIP3    H133596   5.726   1.929  14.497 -1.1771  0.3600 -0.7727
 4035TIP3    H233597   5.858   1.995  14.462 -1.6376  0.8501 -1.6153
 4036TIP3   OH233598   3.209   5.768   1.370 -0.3014 -0.3629  0.0133
 4036TIP3    H133599   3.289   5.789   1.321 -1.0528  2.2383 -0.2818
 4036TIP3    H233600   3.234   5.777   1.462 -0.1735  0.2996 -0.0749
 4037TIP3   OH233601   3.728   3.097  12.120  0.1436 -0.3774  0.1350
 4037TIP3    H133602   3.633   3.113  12.114  0.2682  0.2467 -0.2229
 4037TIP3    H233603   3.765   3.144  12.045  0.7780 -0.3437  0.4648
 4038TIP3   OH233604   0.207   2.014   5.570 -0.2956 -0.2521  0.3759
 4038TIP3    H133605   0.193   1.997   5.663 -0.8725 -0.0705  0.3299
 4038TIP3    H233606   0.204   1.927   5.529 -0.3561 -0.3046  0.4902
 4039TIP3   OH233607   0.271   1.591   5.248 -0.3092  0.2885 -0.4606
 4039TIP3    H133608   0.351   1.597   5.195 -0.6303  1.6584 -0.8033
 4039TIP3    H233609   0.250   1.497   5.247  0.8220  0.0160 -1.0512
 4040TIP3   OH233610   4.715   5.346  15.998 -0.0580  0.3461 -0.6333
 4040TIP3    H133611   4.775   5.272  16.002  1.6764  1.6853 -0.5685
 4040TIP3    H233612   4.642   5.321  16.055  1.6504 -0.3210  1.4045
 4041TIP3   OH233613   5.645   4.817   5.291  0.1193 -0.2441  0.5115
 4041TIP3    H133614   5.721   4.813   5.233 -0.4851 -1.3374 -0.2402
 4041TIP3    H233615   5.632   4.727   5.321 -0.5184  0.0375  1.1171
 4042TIP3   OH233616   6.043   3.605   5.210 -0.2279 -0.5409  0.1366
 4042TIP3    H133617   6.064   3.607   5.116 -0.3875  0.0941  0.1104
 4042TIP3    H233618   6.128   3.613   5.254 -0.2119 -0.2093  0.0441
 4043TIP3   OH233619   3.929   4.328   4.746 -0.0970  0.0527 -0.0406
 4043TIP3    H133620   3.956   4.380   4.669  1.2032  1.4509  1.2930
 4043TIP3    H233621   3.927   4.391   4.818  1.3518 -1.6987  1.6390
 4044TIP3   OH233622   2.003   4.756   0.905  0.0679  0.0439 -0.2091
 4044TIP3    H133623   1.989   4.820   0.835 -1.5937 -0.0640 -0.0095
 4044TIP3    H233624   1.942   4.782   0.973 -0.1515 -1.3538  0.1535
 4045TIP3   OH233625   0.385   0.849  17.250  0.2298  0.2543  0.2645
 4045TIP3    H133626   0.375   0.765  17.207  1.5062  1.3679 -2.4083
 4045TIP3    H233627   0.455   0.894  17.202 -1.5235  3.5077  0.4367
 4046TIP3   OH233628   1.213   5.650   0.637  0.0403  0.0916 -0.0918
 4046TIP3    H133629   1.123   5.678   0.655 -0.8322 -1.8641 -1.0671
 4046TIP3    H233630   1.221   5.565   0.680  0.8526 -0.5243 -1.3899
 4047TIP3   OH233631   2.403   1.094   2.089  0.1651  0.0435 -0.5586
 4047TIP3    H133632   2.446   1.064   2.009  0.1680  0.2963 -0.6532
 4047TIP3    H233633   2.469   1.087   2.157  0.1000 -0.3756 -0.5346
 4048TIP3   OH233634   4.550   5.085  16.708  0.7518 -0.1578  0.3620
 4048TIP3    H133635   4.635   5.128  16.696  1.2885 -0.4091  2.6423
 4048TIP3    H233636   4.573   5.001  16.749 -0.5397 -0.8161 -0.2146
 4049TIP3   OH233637   6.610   3.076  17.304  0.4498 -0.0869  0.5104
 4049TIP3    H133638   6.700   3.097  17.329  0.5370  0.6114 -0.3456
 4049TIP3    H233639   6.614   3.062  17.210 -0.6708  1.8793  0.1191
 4050TIP3   OH233640   0.872   1.634   1.230  0.8139  0.1027 -0.1956
 4050TIP3    H133641   0.936   1.617   1.162  1.2639  0.2806  0.1832
 4050TIP3    H233642   0.862   1.730   1.231 -0.2022  0.0255 -0.9304
 4051TIP3   OH233643   5.710   5.882   1.724  0.2641 -0.1349 -0.0005
 4051TIP3    H133644   5.685   5.819   1.657 -0.3066 -1.3507  1.3045
 4051TIP3    H233645   5.727   5.829   1.802 -1.0954  1.3518  1.4072
 4052TIP3   OH233646   0.841   4.269   4.210  0.1754  0.6963 -0.0746
 4052TIP3    H133647   0.869   4.313   4.129 -1.9713  0.3602 -1.0630
 4052TIP3    H233648   0.752   4.239   4.191 -0.3405  0.4985  2.3912
 4053TIP3   OH233649   5.698   6.227   5.827 -0.0210  0.5491 -0.0002
 4053TIP3    H133650   5.683   6.292   5.759 -1.1592 -0.8076 -1.1114
 4053TIP3    H233651   5.786   6.247   5.860 -0.5636  2.9929  0.1516
 4054TIP3   OH233652   1.689   3.251  16.251 -0.4203 -0.3296 -0.0316
 4054TIP3    H133653   1.777   3.268  16.216 -1.1173 -0.0607 -1.7039
 4054TIP3    H233654   1.700   3.173  16.305  1.2358  0.8119  1.4056
 4055TIP3   OH233655   4.915   1.524  11.384 -0.0910 -0.1076 -0.1780
 4055TIP3    H133656   4.953   1.609  11.363  1.6103 -0.6132  0.7235
 4055TIP3    H233657   4.829   1.526  11.341  0.6777  1.2997 -1.7891
 4056TIP3   OH233658   5.292   1.088  13.511 -0.1847  0.4440  0.3132
 4056TIP3    H133659   5.209   1.051  13.542  0.0983  0.1212  0.6927
 4056TIP3    H233660   5.301   1.054  13.422 -1.5649  2.2886 -0.6193
 4057TIP3   OH233661   5.855   3.625   0.250 -0.0710 -0.2040  0.3713
 4057TIP3    H133662   5.881   3.660   0.165 -1.7453 -0.4692 -0.2772
 4057TIP3    H233663   5.937   3.619   0.300  0.9206  0.0258 -1.1834
 4058TIP3   OH233664   2.483   1.469  13.113 -0.0927 -0.2413  0.2161
 4058TIP3    H133665   2.474   1.416  13.034  2.2307 -2.5229  1.3294
 4058TIP3    H233666   2.578   1.474  13.128 -0.4670 -0.6867  3.3268
 4059TIP3   OH233667   1.894   1.783  11.768  0.1255 -0.8713 -0.2451
 4059TIP3    H133668   1.948   1.818  11.839  1.0518  1.1251 -1.8250
 4059TIP3    H233669   1.804   1.800  11.795  0.4480 -0.6937  0.7308
 4060TIP3   OH233670   2.975   5.536   5.580 -0.1344 -0.1251  0.3819
 4060TIP3    H133671   3.047   5.589   5.613 -1.1539  1.7809 -0.3145
 4060TIP3    H233672   2.897   5.571   5.624 -0.7018 -1.9666  0.9258
 4061TIP3   OH233673   4.490   2.507  16.086 -0.5668  0.0124  0.3233
 4061TIP3    H133674   4.411   2.470  16.125  0.6643 -1.3208  1.7407
 4061TIP3    H233675   4.552   2.434  16.084  0.5262  0.9147 -1.0939
 4062TIP3   OH233676   4.214   2.999   1.911 -0.0478  0.3740 -0.6947
 4062TIP3    H133677   4.194   3.048   1.991  0.3714 -0.7480  0.1181
 4062TIP3    H233678   4.227   2.909   1.940 -0.7721 -0.2376 -2.1609
 4063TIP3   OH233679   0.650   0.394  12.604  0.4229 -0.3763  0.0651
 4063TIP3    H133680   0.592   0.441  12.665  0.2033 -1.4960  0.7483
 4063TIP3    H233681   0.733   0.440  12.611 -0.1754  0.8263 -0.4046
 4064TIP3   OH233682   3.815   6.170  17.276  0.2016 -0.4870 -0.5271
 4064TIP3    H133683   3.860   6.249  17.248 -0.7222 -0.3593 -1.7067
 4064TIP3    H233684   3.853   6.101  17.222  1.5141 -1.0327  0.9771
 4065TIP3   OH233685   0.133   2.608  13.901  0.4125  0.1938 -1.0078
 4065TIP3    H133686   0.071   2.658  13.849  0.8302  0.2279 -1.4830
 4065TIP3    H233687   0.130   2.520  13.864 -1.3135 -0.5407  0.6721
 4066TIP3   OH233688   4.341   4.822  14.615 -0.0289  0.3178  0.2674
 4066TIP3    H133689   4.276   4.887  14.642  0.5635  1.2789 -0.5751
 4066TIP3    H233690   4.313   4.741  14.658 -0.5047  1.2235  1.7489
 4067TIP3   OH233691   1.064   3.298   3.690  0.0698 -0.2160  0.2870
 4067TIP3    H133692   1.015   3.307   3.608  1.3007 -1.6137 -0.6436
 4067TIP3    H233693   1.116   3.378   3.695  2.3240 -1.3956 -1.9762
 4068TIP3   OH233694   4.485   1.313   1.248  0.1259  0.5713 -0.4335
 4068TIP3    H133695   4.579   1.328   1.247  0.1357  0.9506  1.7748
 4068TIP3    H233696   4.447   1.400   1.260 -0.4535  0.2860 -0.1654
 4069TIP3   OH233697   2.449   1.153  14.235  0.3260  0.8943  0.0427
 4069TIP3    H133698   2.441   1.228  14.294 -1.1482  0.8318 -0.0338
 4069TIP3    H233699   2.397   1.178  14.158  1.1630  0.4542 -0.6752
 4070TIP3   OH233700   6.508   2.590   3.083  0.7509 -0.2472 -0.0068
 4070TIP3    H133701   6.569   2.660   3.105  0.0750 -0.5397  3.2994
 4070TIP3    H233702   6.543   2.512   3.127 -0.8458 -0.9244  0.1347
 4071TIP3   OH233703   0.980   2.942   2.628 -0.5057  0.5129 -0.2148
 4071TIP3    H133704   0.898   2.984   2.605 -1.6484 -0.5823  1.5896
 4071TIP3    H233705   1.039   3.014   2.650 -0.7078  1.3357 -2.2367
 4072TIP3   OH233706   5.246   3.009  11.902 -0.7089 -0.8413  0.7514
 4072TIP3    H133707   5.256   3.044  11.990 -0.3263 -0.3698  0.5267
 4072TIP3    H233708   5.291   3.072  11.846 -0.6934 -1.2859  0.2531
 4073TIP3   OH233709   5.135   4.021  10.880 -0.4218 -0.6605 -0.5528
 4073TIP3    H133710   5.080   4.010  10.803  1.3287 -2.6079 -1.6214
 4073TIP3    H233711   5.094   3.967  10.947 -1.6208  0.5737 -0.2411
 4074TIP3   OH233712   3.454   1.008  14.224  0.1894 -0.2174 -0.1164
 4074TIP3    H133713   3.453   0.939  14.157  0.8679 -1.8654  1.4998
 4074TIP3    H233714   3.542   1.045  14.219  0.0922 -0.0236 -0.4285
 4075TIP3   OH233715   1.234   4.300   5.739  0.2677 -0.5301 -0.0293
 4075TIP3    H133716   1.225   4.284   5.833  0.7707 -0.8521 -0.0341
 4075TIP3    H233717   1.167   4.244   5.699 -1.3917  1.1601  0.2400
 4076TIP3   OH233718   1.058   6.223   3.952 -0.4719  0.1084 -0.3337
 4076TIP3    H133719   1.019   6.153   4.004 -0.3038 -0.1182 -0.5120
 4076TIP3    H233720   0.996   6.239   3.881 -0.5869  0.2514 -0.2003
 4077TIP3   OH233721   1.046   4.874  16.162 -0.1532  0.0830 -0.1018
 4077TIP3    H133722   1.064   4.836  16.248 -1.3637  1.1011  0.6519
 4077TIP3    H233723   1.065   4.805  16.100  1.8135 -0.3377  0.8961
 4078TIP3   OH233724   6.195   3.514  14.795  0.2541 -0.5587 -0.2158
 4078TIP3    H133725   6.139   3.583  14.831 -0.2396 -1.1114  0.0748
 4078TIP3    H233726   6.246   3.559  14.726  0.6964  0.3431  0.6610
 4079TIP3   OH233727   1.217   6.284  12.064  0.5741  0.4140  0.2299
 4079TIP3    H133728   1.227   6.357  12.124 -0.7216  0.1948  0.7568
 4079TIP3    H233729   1.169   6.218  12.115  1.5728 -0.7492 -0.2762
 4080TIP3   OH233730   4.208   3.592  12.226 -0.1097 -0.4670 -0.1424
 4080TIP3    H133731   4.186   3.507  12.188 -0.4487 -0.3725 -0.1542
 4080TIP3    H233732   4.180   3.585  12.318  0.0112 -0.4252 -0.1020
 4081TIP3   OH233733   5.271   5.106  15.910  0.4544  0.5515  0.1115
 4081TIP3    H133734   5.349   5.144  15.870 -0.1929  0.5519 -1.1771
 4081TIP3    H233735   5.200   5.124  15.849 -0.1089 -1.6334  0.0268
 4082TIP3   OH233736   5.099   6.112   2.026 -0.0699  0.2340  0.3140
 4082TIP3    H133737   5.022   6.123   1.971  0.7594  0.3631 -0.8470
 4082TIP3    H233738   5.123   6.020   2.015  1.3106  0.7335 -1.2307
 4083TIP3   OH233739   2.553   4.253  16.958 -0.0734  0.0979  0.3414
 4083TIP3    H133740   2.572   4.165  16.928  1.1059 -0.4907  2.5515
 4083TIP3    H233741   2.470   4.246  17.004 -0.8421  0.5456 -0.9367
 4084TIP3   OH233742   3.229   5.173  11.740 -0.1453 -0.1230 -0.0719
 4084TIP3    H133743   3.232   5.257  11.787  4.9532 -0.3656  0.6569
 4084TIP3    H233744   3.171   5.118  11.793 -0.9891  1.9719  1.3082
 4085TIP3   OH233745   3.001   1.096   5.065 -0.3130 -0.0010  0.2075
 4085TIP3    H133746   2.924   1.152   5.069 -0.2979  0.0826 -0.5242
 4085TIP3    H233747   2.969   1.009   5.087 -0.3822  0.2354  1.0939
 4086TIP3   OH233748   0.975   4.762   5.182 -0.3811  0.2219 -0.4250
 4086TIP3    H133749   1.001   4.719   5.264 -0.2106  1.0052 -0.0634
 4086TIP3    H233750   0.888   4.796   5.200  0.3234  1.8794  0.0241
 4087TIP3   OH233751   4.156   4.869   4.271 -0.4349 -0.0539 -0.2476
 4087TIP3    H133752   4.099   4.946   4.264 -0.8009 -0.3856 -1.1611
 4087TIP3    H233753   4.234   4.892   4.221 -0.7914 -0.4701 -1.0262
 4088TIP3   OH233754   1.319   2.307   3.806  0.0062 -0.3674  0.0005
 4088TIP3    H133755   1.288   2.347   3.888 -0.4689  1.8628 -1.1907
 4088TIP3    H233756   1.401   2.265   3.830 -0.4375 -0.3286  1.7557
 4089TIP3   OH233757   4.103   6.499  14.903  0.3359 -0.4218  0.0166
 4089TIP3    H133758   4.111   6.473  14.995  0.3439 -1.1256 -0.1807
 4089TIP3    H233759   4.122   6.593  14.904 -0.5898 -0.2203  0.8722
 4090TIP3   OH233760   4.994   1.370  15.774 -0.1682  0.5751  0.2968
 4090TIP3    H133761   4.928   1.322  15.825  0.2414  0.6900  0.9453
 4090TIP3    H233762   4.996   1.457  15.813 -0.4840  0.9524 -0.5000
 4091TIP3   OH233763   1.844   4.884   1.070  0.5478  0.0863  0.1260
 4091TIP3    H133764   1.813   4.895   1.160  0.7271  0.3672  0.1542
 4091TIP3    H233765   1.851   4.973   1.035  1.1480  0.0203  0.0608
 4092TIP3   OH233766   1.229   5.351  14.996  0.2883 -0.4549  0.3380
 4092TIP3    H133767   1.186   5.406  14.931 -0.6145 -1.3662  0.1337
 4092TIP3    H233768   1.202   5.262  14.973  1.4087 -0.9524  0.8817
 4093TIP3   OH233769   3.625   6.561   1.108  0.0404  0.2004 -0.0900
 4093TIP3    H133770   3.693   6.496   1.091  1.0089  0.7455  1.5123
 4093TIP3    H233771   3.546   6.524   1.068  0.6593 -1.7448  0.3574
 4094TIP3   OH233772   6.567   4.314   0.136 -0.9058  0.5589  0.5290
 4094TIP3    H133773   6.579   4.351   0.223 -0.9985 -0.3366  0.9258
 4094TIP3    H233774   6.636   4.248   0.127 -0.3181  1.2695 -0.4348
 4095TIP3   OH233775   6.289   0.338  14.245  0.1230  0.5820 -0.4257
 4095TIP3    H133776   6.272   0.311  14.155 -3.0309 -0.1776  0.2484
 4095TIP3    H233777   6.276   0.258  14.297 -1.0684  1.5605  0.8907
 4096TIP3   OH233778   5.038   4.831   0.447 -0.1342  0.1645  0.0858
 4096TIP3    H133779   5.002   4.919   0.456  0.6066  0.5375 -0.4945
 4096TIP3    H233780   5.064   4.824   0.355  0.2153 -0.5002  0.2227
 4097TIP3   OH233781   4.192   1.589   5.642 -1.1035 -1.0648 -0.0406
 4097TIP3    H133782   4.200   1.596   5.737 -2.4112  1.6550 -0.0375
 4097TIP3    H233783   4.100   1.606   5.624 -0.4621  0.8519 -1.8994
 4098TIP3   OH233784   3.374   4.472   4.816 -0.2347  0.9240  0.4184
 4098TIP3    H133785   3.373   4.529   4.739  1.7757  0.5385  0.0634
 4098TIP3    H233786   3.302   4.411   4.801  0.3124  0.6599 -1.3229
 4099TIP3   OH233787   2.130   5.200  17.276 -0.0910  0.0321  0.5937
 4099TIP3    H133788   2.125   5.289  17.310 -2.3102  0.4358 -0.6375
 4099TIP3    H233789   2.110   5.207  17.183 -1.7913 -1.8633  0.7287
 4100TIP3   OH233790   2.224   3.449  13.464 -0.2647  0.3422  0.4207
 4100TIP3    H133791   2.223   3.354  13.449  0.7905  0.1712  1.2928
 4100TIP3    H233792   2.221   3.458  13.559 -1.7778  1.2497  0.3223
 4101TIP3   OH233793   5.069   0.370   4.627  0.0238  0.3525  0.5262
 4101TIP3    H133794   5.090   0.343   4.538  0.5289 -1.5544  1.1937
 4101TIP3    H233795   5.152   0.399   4.665 -0.0828  0.5951  0.5818
 4102TIP3   OH233796   3.581   3.415   5.030 -0.1053  0.6697  0.5355
 4102TIP3    H133797   3.584   3.481   5.099  0.5200  0.8880  0.3101
 4102TIP3    H233798   3.604   3.333   5.074  0.7401  0.8838  0.5131
 4103TIP3   OH233799   0.304   0.660  12.534 -0.4274  0.2144  0.1779
 4103TIP3    H133800   0.266   0.686  12.619  0.7472 -0.2140  0.8542
 4103TIP3    H233801   0.393   0.632  12.555  0.8007  2.4911 -1.5405
 4104TIP3   OH233802   2.826   0.169   2.175 -0.1780  0.0177 -0.2950
 4104TIP3    H133803   2.920   0.167   2.153 -0.1986 -0.7761 -0.3240
 4104TIP3    H233804   2.822   0.137   2.265 -0.6203 -2.2292 -1.0501
 4105TIP3   OH233805   6.289   5.248   0.036  0.2364  0.5049  0.8004
 4105TIP3    H133806   6.352   5.176   0.049 -0.8756 -0.4991  0.8490
 4105TIP3    H233807   6.253   5.232  -0.051 -0.4964  0.6073  1.0790
 4106TIP3   OH233808   0.030   5.340   0.775  0.3734 -0.6966  0.1359
 4106TIP3    H133809   0.032   5.330   0.680 -0.7167 -1.3407  0.1654
 4106TIP3    H233810  -0.057   5.373   0.795  0.5472 -0.6803  0.9256
 4107TIP3   OH233811   6.169   4.359  15.663  0.1265 -0.0504  0.4192
 4107TIP3    H133812   6.122   4.398  15.736  0.2802 -0.2428  0.6213
 4107TIP3    H233813   6.242   4.313  15.703 -0.9602 -1.9505  0.3518
 4108TIP3   OH233814   4.383   0.887  16.369 -0.0389  0.4248 -0.2910
 4108TIP3    H133815   4.382   0.814  16.307  2.2883  0.8900 -0.9893
 4108TIP3    H233816   4.380   0.845  16.455  0.5726 -0.4690 -0.6836
 4109TIP3   OH233817   0.864   2.800  12.194  0.4993 -0.1421 -0.4469
 4109TIP3    H133818   0.949   2.775  12.229  0.7680  0.8573 -0.3667
 4109TIP3    H233819   0.865   2.769  12.104  1.0380  0.0708 -0.5141
 4110TIP3   OH233820   5.942   5.532  14.478 -0.5265  0.3250  0.2546
 4110TIP3    H133821   6.011   5.588  14.443 -1.7005  1.7833  0.1282
 4110TIP3    H233822   5.987   5.466  14.530  0.8842  2.2069  1.5343
 4111TIP3   OH233823   2.160   0.243  16.969  0.2907  0.4878 -0.2912
 4111TIP3    H133824   2.091   0.299  16.934 -0.6627  0.0526  0.8538
 4111TIP3    H233825   2.169   0.269  17.060 -1.0177 -1.9932  0.6103
 4112TIP3   OH233826   1.574   5.902  11.724  0.1037  0.2467  0.3649
 4112TIP3    H133827   1.593   5.827  11.668  1.3743 -0.3737  1.5758
 4112TIP3    H233828   1.513   5.955  11.672  1.8231  0.1310 -1.9242
 4113TIP3   OH233829   6.222   2.010   3.700 -0.4363  0.5537 -0.3648
 4113TIP3    H133830   6.271   1.962   3.767 -3.0608  0.1414  1.4207
 4113TIP3    H233831   6.235   2.102   3.723 -1.4556  0.4140  0.8982
 4114TIP3   OH233832   2.777   0.536   0.851 -0.0522  0.6717 -0.2305
 4114TIP3    H133833   2.844   0.527   0.919  0.4625 -0.8404 -0.9007
 4114TIP3    H233834   2.765   0.448   0.817 -0.6777  1.3062 -1.7580
 4115TIP3   OH233835   2.622   5.994  13.379 -0.0200  0.3358  0.0151
 4115TIP3    H133836   2.555   6.000  13.447 -0.9705  0.2157 -0.8863
 4115TIP3    H233837   2.675   6.073  13.390 -1.9487  1.8471 -0.9164
 4116TIP3   OH233838   6.064   1.910   0.288 -0.2962 -0.2996 -0.4651
 4116TIP3    H133839   5.988   1.868   0.329 -1.3704  0.1567 -1.8933
 4116TIP3    H233840   6.061   2.000   0.319  1.2711 -0.9070  1.6000
 4117TIP3   OH233841   0.471   6.115  14.381  0.1331  0.3811  0.5196
 4117TIP3    H133842   0.487   6.196  14.332 -1.0295  1.3494  1.6686
 4117TIP3    H233843   0.383   6.126  14.416 -0.2756 -1.6581  0.2126
 4118TIP3   OH233844   4.839   1.981   3.601 -0.0572  0.5575  0.5798
 4118TIP3    H133845   4.822   1.910   3.663 -2.9508 -1.2306 -1.9755
 4118TIP3    H233846   4.864   1.936   3.520  2.3740  2.7413  0.0021
 4119TIP3   OH233847   0.073   3.917  17.069  0.6601 -0.4283  0.0463
 4119TIP3    H133848   0.094   3.891  17.158  0.0586  2.3293  1.0675
 4119TIP3    H233849   0.034   3.839  17.030 -3.0363 -0.6121  3.5490
 4120TIP3   OH233850   6.542   0.623   3.143 -0.2801 -0.7167  0.4119
 4120TIP3    H133851   6.525   0.687   3.212  0.4249 -1.2135  1.0634
 4120TIP3    H233852   6.634   0.638   3.119 -0.4709 -0.6587 -0.3062
 4121TIP3   OH233853   4.988   5.958   3.295 -0.4688 -0.3916 -0.6819
 4121TIP3    H133854   5.064   5.992   3.343 -1.3886  2.1378 -0.8648
 4121TIP3    H233855   4.964   5.878   3.342  0.9706 -0.0460  0.7220
 4122TIP3   OH233856   5.612   5.999   5.926  0.3064  0.1628  0.3387
 4122TIP3    H133857   5.628   6.086   5.891 -1.3983  0.4401  0.1348
 4122TIP3    H233858   5.591   6.014   6.018 -0.2648  0.0073  0.2382
 4123TIP3   OH233859   3.476   0.960  15.514 -0.9965  0.2492  0.3499
 4123TIP3    H133860   3.439   1.022  15.576 -1.9912 -0.5380  0.5605
 4123TIP3    H233861   3.525   1.014  15.452  0.3858  1.0365  2.0263
 4124TIP3   OH233862   1.652   3.562   2.176 -0.2167 -0.5244  0.1684
 4124TIP3    H133863   1.662   3.625   2.247 -2.3622 -0.3447  0.3730
 4124TIP3    H233864   1.559   3.566   2.153  0.6534  0.8382 -3.9607
 4125TIP3   OH233865   5.626   3.775  10.647 -0.3057  0.2926 -0.7655
 4125TIP3    H133866   5.582   3.729  10.718  1.7302  1.0472  1.1076
 4125TIP3    H233867   5.718   3.748  10.655  0.4677  2.5437 -1.3038
 4126TIP3   OH233868   0.970   0.817   3.518  0.4994 -0.7078  0.1928
 4126TIP3    H133869   0.950   0.774   3.435 -2.8919  0.8593  0.0388
 4126TIP3    H233870   1.004   0.903   3.492 -0.0953 -0.4048  0.4066
 4127TIP3   OH233871   2.008   4.934   0.707  0.1341  0.1870 -0.2993
 4127TIP3    H133872   2.093   4.952   0.667  0.2184 -0.6246 -0.5186
 4127TIP3    H233873   1.957   5.014   0.695 -0.0570 -0.2221 -2.6044
 4128TIP3   OH233874   4.299   4.707  11.757 -0.3157 -0.4911 -0.1334
 4128TIP3    H133875   4.218   4.756  11.751 -0.1648 -0.4244 -2.7181
 4128TIP3    H233876   4.272   4.620  11.787 -1.0094  0.1318  1.1438
 4129TIP3   OH233877   6.022   0.016  16.514 -0.3083 -0.1915  0.1979
 4129TIP3    H133878   5.991  -0.011  16.428  0.1116 -2.5033  0.6971
 4129TIP3    H233879   5.942   0.038  16.562 -0.6646 -0.2729 -0.3497
 4130TIP3   OH233880   4.718   0.711  12.473 -0.4843 -0.0962 -0.3097
 4130TIP3    H133881   4.811   0.707  12.453 -0.2214 -0.8349  0.9638
 4130TIP3    H233882   4.687   0.790  12.427  0.7919  0.2456 -0.6176
 4131TIP3   OH233883   5.418   3.802  11.496  0.0234  0.5476  0.2263
 4131TIP3    H133884   5.364   3.741  11.545  0.9596 -0.1684  0.3967
 4131TIP3    H233885   5.385   3.798  11.407  1.2342 -1.6663 -0.1979
 4132TIP3   OH233886   2.417   6.640   2.351  0.1298  0.2977 -0.4033
 4132TIP3    H133887   2.465   6.623   2.432 -0.5328 -1.0211 -0.2626
 4132TIP3    H233888   2.464   6.590   2.284  0.2402  0.7895 -0.6983
 4133TIP3   OH233889   2.657   2.943   3.145 -0.8847  0.1301 -0.5649
 4133TIP3    H133890   2.678   3.026   3.188 -1.9816  0.2291 -0.1800
 4133TIP3    H233891   2.741   2.898   3.137 -0.2800  1.2360 -0.7007
 4134TIP3   OH233892   3.647   2.364   2.275 -0.3201 -0.6047  0.0985
 4134TIP3    H133893   3.587   2.431   2.308  1.0320  0.4007  0.6334
 4134TIP3    H233894   3.618   2.283   2.317  0.7761  0.4545  3.1597
 4135TIP3   OH233895   6.717   6.042   1.395  0.1428  0.0071  0.3108
 4135TIP3    H133896   6.744   5.950   1.394  0.4279  0.0950 -0.0108
 4135TIP3    H233897   6.764   6.079   1.470  1.6237  0.3646 -0.7489
 4136TIP3   OH233898   2.498   2.352   2.309  0.2707 -0.0550  0.0227
 4136TIP3    H133899   2.435   2.285   2.285  1.0855 -0.6788 -0.4172
 4136TIP3    H233900   2.445   2.430   2.326 -0.5605 -0.3995 -0.9249
 4137TIP3   OH233901   3.357   0.112   2.288  0.1574 -0.3041 -0.0204
 4137TIP3    H133902   3.370   0.205   2.269  0.3074 -0.3828 -0.3141
 4137TIP3    H233903   3.372   0.105   2.383  1.9680 -0.3200 -0.2696
 4138TIP3   OH233904   3.319   2.183   1.391  0.3611 -0.1156 -0.0033
 4138TIP3    H133905   3.281   2.095   1.382 -0.6841 -0.0670  2.7656
 4138TIP3    H233906   3.366   2.179   1.474  0.8150  1.7740 -0.1392
 4139TIP3   OH233907   1.806   5.485  11.438 -0.0816  0.2035  0.0922
 4139TIP3    H133908   1.813   5.518  11.348 -0.4742  0.7120  0.2449
 4139TIP3    H233909   1.881   5.426  11.447 -0.2647 -0.1687 -0.6978
 4140TIP3   OH233910   2.915   6.029   3.140 -0.8337  0.2045  0.4374
 4140TIP3    H133911   2.822   6.044   3.158 -0.9113 -0.9860  1.1826
 4140TIP3    H233912   2.960   6.057   3.220 -0.5669  0.5780  0.1593
 4141TIP3   OH233913   2.359   1.288   1.140  0.1867 -0.0143  0.3573
 4141TIP3    H133914   2.266   1.297   1.160  0.6464  1.7768  1.9686
 4141TIP3    H233915   2.366   1.203   1.097 -2.3644  0.3657 -1.0242
 4142TIP3   OH233916   2.095   1.753  14.676  0.4404 -0.3500 -0.4619
 4142TIP3    H133917   2.097   1.798  14.592 -0.2983 -0.5240 -0.5719
 4142TIP3    H233918   2.123   1.820  14.739  2.1418 -0.5350 -0.9649
 4143TIP3   OH233919   0.676   5.593  15.562 -0.2410 -0.2326 -0.3630
 4143TIP3    H133920   0.713   5.560  15.644  0.7119  2.2651  0.3154
 4143TIP3    H233921   0.751   5.600  15.503  0.0118  2.3262  0.1367
 4144TIP3   OH233922   6.257   1.547  13.038  0.0662  0.0151  0.1944
 4144TIP3    H133923   6.312   1.564  13.115 -0.3160 -0.7692  0.6491
 4144TIP3    H233924   6.288   1.610  12.973 -0.3149  1.4236  1.3237
 4145TIP3   OH233925   0.047   4.679   4.100  0.3539  0.1461  0.3554
 4145TIP3    H133926   0.091   4.649   4.020 -0.2465  0.2232 -0.0145
 4145TIP3    H233927  -0.046   4.677   4.078  0.2595  2.0561  0.3668
 4146TIP3   OH233928   5.083   6.406  13.268  0.0955  0.4171 -0.1702
 4146TIP3    H133929   5.106   6.354  13.192 -0.0141 -0.9521  0.6944
 4146TIP3    H233930   5.140   6.483  13.263  1.2291 -0.4389 -0.7722
 4147TIP3   OH233931   4.308   6.472   6.244 -0.0082  0.7917 -0.0940
 4147TIP3    H133932   4.265   6.558   6.247 -1.1844  0.2399  3.2212
 4147TIP3    H233933   4.268   6.423   6.316  2.7691 -1.4813  0.0624
 4148TIP3   OH233934   1.815   6.436  15.787  0.7555 -0.2921  0.9558
 4148TIP3    H133935   1.733   6.424  15.834  0.5363 -1.2403  0.3611
 4148TIP3    H233936   1.848   6.347  15.775  0.6975 -0.0977 -0.8703
 4149TIP3   OH233937   5.185   4.867   1.197 -0.5123 -0.3251  0.3169
 4149TIP3    H133938   5.229   4.817   1.266 -1.8541 -0.0264  1.4452
 4149TIP3    H233939   5.161   4.950   1.239 -0.3099  0.3553 -0.8688
 4150TIP3   OH233940   2.534   0.140  11.492  0.0776  0.0780  0.0475
 4150TIP3    H133941   2.518   0.216  11.548  1.3866  1.5977 -1.5487
 4150TIP3    H233942   2.533   0.175  11.403  0.6772 -1.7943 -0.7415
 4151TIP3   OH233943   1.779   1.031  13.757 -0.1879 -0.1021  0.0999
 4151TIP3    H133944   1.813   0.967  13.819  0.7603  1.3641  1.1583
 4151TIP3    H233945   1.779   1.114  13.805 -2.6409  0.5040 -0.7788
 4152TIP3   OH233946   5.473   3.488   3.670 -0.2827 -0.0820  0.3943
 4152TIP3    H133947   5.495   3.472   3.762  0.3188 -0.6534  0.1600
 4152TIP3    H233948   5.440   3.578   3.668 -1.0853 -0.3377  1.2973
 4153TIP3   OH233949   1.394   0.590  13.598 -0.5708 -0.2203  0.4683
 4153TIP3    H133950   1.479   0.633  13.609 -0.7033  0.5664 -1.1775
 4153TIP3    H233951   1.409   0.525  13.529 -1.3814  0.2060 -0.1280
 4154TIP3   OH233952   1.823   1.446  16.430 -0.0313 -0.1344  0.4678
 4154TIP3    H133953   1.824   1.404  16.516 -0.2874 -0.7121  0.1918
 4154TIP3    H233954   1.797   1.537  16.448 -0.5888 -0.3801  0.9450
 4155TIP3   OH233955   3.898   6.663   0.545 -0.0063 -0.0372 -0.4476
 4155TIP3    H133956   3.897   6.758   0.538  1.2190 -0.0950 -1.9674
 4155TIP3    H233957   3.985   6.637   0.515  0.3543 -1.5595  1.6262
 4156TIP3   OH233958   2.913   2.419   5.271 -0.6735 -0.3101 -0.0187
 4156TIP3    H133959   2.877   2.426   5.359 -0.1920  0.9499  0.0992
 4156TIP3    H233960   2.843   2.450   5.214 -0.3488  0.6773  0.0909
 4157TIP3   OH233961   0.147   3.208   6.234 -0.1107  0.2584 -0.2214
 4157TIP3    H133962   0.240   3.229   6.220  0.5029 -1.6196  0.7717
 4157TIP3    H233963   0.141   3.185   6.327 -1.3119 -0.8924 -0.5558
 4158TIP3   OH233964   0.859   4.133   0.252 -0.7209  0.4422 -0.7795
 4158TIP3    H133965   0.786   4.078   0.280 -0.0573 -0.3083 -0.5043
 4158TIP3    H233966   0.925   4.072   0.219 -0.8788  1.2021 -2.6449
 4159TIP3   OH233967   1.071   1.449   4.284  0.2023 -0.1519 -0.5128
 4159TIP3    H133968   1.072   1.382   4.352 -1.7115 -0.8767 -1.1474
 4159TIP3    H233969   1.078   1.400   4.202  0.9967  0.6102 -0.9233
 4160TIP3   OH233970   0.754   3.300  13.588  0.1226 -0.2423 -0.1894
 4160TIP3    H133971   0.820   3.335  13.529 -0.1408 -0.6744 -0.7593
 4160TIP3    H233972   0.694   3.252  13.530  1.0719 -2.5891  0.6397
 4161TIP3   OH233973   4.347   3.674  12.618 -0.7928  0.8532 -0.0298
 4161TIP3    H133974   4.363   3.624  12.539  0.3238  0.2519  0.5603
 4161TIP3    H233975   4.313   3.758  12.587  0.2124  0.8620 -1.1719
 4162TIP3   OH233976   3.259   2.404  17.126 -0.4831  0.2742  0.2445
 4162TIP3    H133977   3.307   2.413  17.208  0.1138 -0.8158  0.0435
 4162TIP3    H233978   3.232   2.493  17.104  0.2862  0.7334  1.0639
 4163TIP3   OH233979   2.115   0.842   5.925 -0.1981  0.1399 -0.1018
 4163TIP3    H133980   2.063   0.839   6.006 -1.8070  0.7969 -1.0552
 4163TIP3    H233981   2.132   0.936   5.912  1.1427 -0.0546  0.1111
 4164TIP3   OH233982   2.525   5.422  12.529  0.1147  0.7949  0.2093
 4164TIP3    H133983   2.506   5.397  12.620 -0.7628  0.6063 -0.0180
 4164TIP3    H233984   2.490   5.350  12.477  2.7947 -0.3038 -0.2030
 4165TIP3   OH233985   2.783   5.595   2.052 -0.6442 -0.3712 -0.6134
 4165TIP3    H133986   2.715   5.549   2.102 -1.0507 -0.8373 -1.5654
 4165TIP3    H233987   2.861   5.541   2.063 -0.7172 -0.4407 -0.4344
 4166TIP3   OH233988   6.380   6.491  17.334  0.2780 -0.0079  0.4566
 4166TIP3    H133989   6.434   6.487  17.255  0.8223 -0.4198  0.8357
 4166TIP3    H233990   6.315   6.558  17.316 -0.0657 -0.6073 -0.6264
 4167TIP3   OH233991   0.540   1.103   1.206  0.0503  0.6602  0.2839
 4167TIP3    H133992   0.494   1.030   1.249 -0.9682  0.8349 -0.4862
 4167TIP3    H233993   0.613   1.122   1.265 -0.4341 -0.1071  1.1709
 4168TIP3   OH233994   0.171   3.228   1.409 -0.6911  0.5438 -0.5205
 4168TIP3    H133995   0.225   3.152   1.432 -0.9495  0.3054 -0.6898
 4168TIP3    H233996   0.206   3.300   1.462 -0.7315  0.2028 -0.0332
 4169TIP3   OH233997   4.616   6.007   3.284 -0.5199  0.6787  0.3441
 4169TIP3    H133998   4.545   5.949   3.256  0.0288 -0.4461  1.1642
 4169TIP3    H233999   4.650   6.046   3.203  0.0992 -1.3711 -0.4508
 4170TIP3   OH234000   5.259   4.830   4.251 -0.0930  0.3827 -0.0899
 4170TIP3    H134001   5.330   4.840   4.186 -0.5984  2.1817 -0.4278
 4170TIP3    H234002   5.296   4.867   4.331 -0.0368 -0.3617  0.2365
 4171TIP3   OH234003   0.853   3.627   4.293 -0.4441  0.4745 -0.1274
 4171TIP3    H134004   0.915   3.612   4.364 -0.0713  1.5843 -0.2092
 4171TIP3    H234005   0.884   3.571   4.222  0.6704  1.2684 -0.2852
 4172TIP3   OH234006   6.329   0.642  13.222 -0.4149 -0.2821 -0.1229
 4172TIP3    H134007   6.306   0.571  13.283  0.2339 -0.5512 -0.1798
 4172TIP3    H234008   6.354   0.597  13.142 -1.7071  0.0914 -0.7585
 4173TIP3   OH234009   0.369   0.679   2.935  0.1639 -0.0556 -0.1573
 4173TIP3    H134010   0.437   0.629   2.980  1.1529  0.6255 -0.8527
 4173TIP3    H234011   0.413   0.759   2.906 -1.1501  0.7946  0.1176
 4174TIP3   OH234012   1.709   1.639   1.796  0.0077  0.6006 -0.3537
 4174TIP3    H134013   1.739   1.730   1.797 -0.4964  0.8361 -2.3481
 4174TIP3    H234014   1.684   1.620   1.886 -0.0721  2.5021  0.0456
 4175TIP3   OH234015   4.750   1.119   2.260  0.2887  0.1809  0.1495
 4175TIP3    H134016   4.720   1.156   2.343 -0.0166  2.9808 -1.0815
 4175TIP3    H234017   4.844   1.141   2.257  0.4221 -0.4095  0.0129
 4176TIP3   OH234018   2.303   1.893   2.923  0.0558 -0.3968  0.0578
 4176TIP3    H134019   2.280   1.808   2.961 -0.2196 -0.9003 -1.1952
 4176TIP3    H234020   2.220   1.932   2.897  0.3275 -0.8151 -1.5493
 4177TIP3   OH234021   2.976   2.570  13.301  0.0825 -0.1180  0.5172
 4177TIP3    H134022   2.983   2.623  13.222 -0.8110 -0.2872  0.3187
 4177TIP3    H234023   2.968   2.634  13.372  0.5458  0.0278  0.4436
 4178TIP3   OH234024   1.595   2.214  14.136  0.5034 -0.1773  0.7074
 4178TIP3    H134025   1.562   2.263  14.212 -1.6635 -0.0728 -0.2584
 4178TIP3    H234026   1.562   2.125  14.149  0.0484 -0.1369 -0.1480
 4179TIP3   OH234027   4.137   0.472   5.077  0.0369  0.7278  0.4365
 4179TIP3    H134028   4.119   0.498   4.987  1.7158  2.2246  0.4584
 4179TIP3    H234029   4.221   0.425   5.072 -0.0980  0.3940  1.1502
 4180TIP3   OH234030   2.372   0.653  14.151  0.5252 -0.4512  0.1935
 4180TIP3    H134031   2.434   0.671  14.221  0.5726  1.7308 -0.3577
 4180TIP3    H234032   2.363   0.736  14.104 -2.7697 -0.6855  0.2137
 4181TIP3   OH234033   1.098   2.951  17.404  0.1462  0.0833  0.5480
 4181TIP3    H134034   1.106   2.856  17.407 -1.6629 -0.1361 -0.2853
 4181TIP3    H234035   1.062   2.970  17.317 -2.7744  1.2021  1.8716
 4182TIP3   OH234036   2.794   5.382  15.497 -0.1482 -0.3658 -0.5347
 4182TIP3    H134037   2.888   5.380  15.479 -0.3124 -2.6791 -1.5644
 4182TIP3    H234038   2.771   5.290  15.513 -2.5086 -0.1327 -2.0674
 4183TIP3   OH234039   2.388   6.157   3.969 -0.3499 -0.0935  0.1646
 4183TIP3    H134040   2.390   6.118   3.881  0.0650  0.0109  0.1224
 4183TIP3    H234041   2.303   6.199   3.974  0.4500  1.8436 -1.0738
 4184TIP3   OH234042   4.923   6.090  17.488 -0.2736  0.1639  0.1672
 4184TIP3    H134043   4.899   6.073  17.397 -0.4295  1.6543 -0.1004
 4184TIP3    H234044   4.990   6.158  17.483  0.0628 -0.0764  1.1524
 4185TIP3   OH234045   2.102   6.736   5.973  0.2729 -0.0646 -0.3963
 4185TIP3    H134046   2.161   6.760   5.902  3.2812 -1.8111  1.2710
 4185TIP3    H234047   2.069   6.819   6.007 -0.1781  0.8529 -2.8972
 4186TIP3   OH234048   4.672   6.322   5.919  0.0903  0.1865 -0.2881
 4186TIP3    H134049   4.628   6.362   5.844  1.0272  2.1526  0.1316
 4186TIP3    H234050   4.615   6.341   5.994  1.3200  2.4143  0.1954
 4187TIP3   OH234051   0.154   4.126  12.451  0.4507 -0.5048 -0.0657
 4187TIP3    H134052   0.068   4.114  12.492  0.8708 -0.6282  0.7863
 4187TIP3    H234053   0.217   4.107  12.520  1.1674  0.6081 -0.3883
 4188TIP3   OH234054   4.008   2.082   1.806 -0.6317 -0.4977  0.0487
 4188TIP3    H134055   4.008   2.174   1.831 -1.5159 -0.5302  0.1869
 4188TIP3    H234056   3.949   2.040   1.869  1.8886 -1.6798  1.7969
 4189TIP3   OH234057   5.792   3.191  14.434 -0.2014 -0.4452  0.7738
 4189TIP3    H134058   5.804   3.237  14.517  0.9295  0.3412  0.1950
 4189TIP3    H234059   5.782   3.099  14.459  0.1112 -0.2185  1.7730
 4190TIP3   OH234060   3.126   5.041  11.511  0.3963 -0.3563  0.7784
 4190TIP3    H134061   3.045   5.014  11.555 -0.5222  2.5336  1.0670
 4190TIP3    H234062   3.174   5.089  11.579  0.5664  1.1933 -0.3944
 4191TIP3   OH234063   4.335   0.198   6.351 -0.1844  0.3068  0.0714
 4191TIP3    H134064   4.384   0.134   6.402 -1.8766  0.4660  2.0055
 4191TIP3    H234065   4.316   0.269   6.412 -1.5466  0.9121 -0.9898
 4192TIP3   OH234066   4.882   3.506  14.083 -0.4855 -0.3030 -0.1561
 4192TIP3    H134067   4.821   3.580  14.083 -0.9448 -0.6618  0.8301
 4192TIP3    H234068   4.906   3.494  13.991  0.2775  1.6184 -0.2458
 4193TIP3   OH234069   1.540   5.076   1.412 -0.0107 -0.4108 -0.1224
 4193TIP3    H134070   1.471   5.013   1.390 -0.0455 -0.2222 -0.5667
 4193TIP3    H234071   1.493   5.151   1.448 -0.2093  0.4424 -2.0503
 4194TIP3   OH234072   0.993   5.309  14.140  0.6739  0.0663  0.1663
 4194TIP3    H134073   0.927   5.378  14.132 -1.2002 -1.6174  0.0933
 4194TIP3    H234074   1.003   5.276  14.051  2.0157  0.6240  0.0990
 4195TIP3   OH234075   1.792   4.328  15.912  0.4981 -0.2772  0.0871
 4195TIP3    H134076   1.810   4.236  15.927  1.4293  0.0798  1.2302
 4195TIP3    H234077   1.878   4.369  15.905  0.1175  0.7324  1.0392
 4196TIP3   OH234078   2.287   5.613   4.956  0.0270 -0.1795 -0.3662
 4196TIP3    H134079   2.224   5.678   4.928 -0.1543  0.0871  0.6253
 4196TIP3    H234080   2.372   5.657   4.950  0.0773 -0.3776 -1.2171
 4197TIP3   OH234081   3.811   2.853   5.590  0.5325 -0.4214 -0.3428
 4197TIP3    H134082   3.902   2.843   5.561  0.9770  0.8471  0.5072
 4197TIP3    H234083   3.785   2.938   5.555 -0.5389 -1.0288 -1.0684
 4198TIP3   OH234084   3.531   5.792   2.525  0.0501  0.5807  0.3566
 4198TIP3    H134085   3.621   5.774   2.552  0.0283  0.9857  0.7227
 4198TIP3    H234086   3.522   5.749   2.440  1.0543  1.7464 -0.3815
 4199TIP3   OH234087   4.426   4.002  12.751 -0.4269  0.5702  0.2322
 4199TIP3    H134088   4.417   3.985  12.845  1.2648 -0.1650  0.3122
 4199TIP3    H234089   4.395   3.922  12.709 -0.7686  0.7293  0.1787
 4200TIP3   OH234090   2.613   4.693  14.010 -0.2705  0.0713 -0.1493
 4200TIP3    H134091   2.679   4.758  14.033 -0.8742  0.0214  1.9389
 4200TIP3    H234092   2.643   4.612  14.049 -1.2371 -0.0962  0.2864
 4201TIP3   OH234093   2.825   5.493  14.628 -0.0790  0.2392 -0.2210
 4201TIP3    H134094   2.800   5.403  14.607  0.3638 -0.1607  0.8934
 4201TIP3    H234095   2.753   5.527  14.681 -0.3711  0.6379 -0.8675
 4202TIP3   OH234096   5.163   4.971  17.006 -0.2664  0.6884  0.2570
 4202TIP3    H134097   5.257   4.961  16.991  0.1775  0.9821  2.5659
 4202TIP3    H234098   5.136   4.889  17.048 -1.2845  0.1991 -1.2549
 4203TIP3   OH234099   0.843   2.278   1.346 -0.1804  0.0131 -0.2423
 4203TIP3    H134100   0.754   2.263   1.314 -0.3139  2.0745 -1.0105
 4203TIP3    H234101   0.844   2.371   1.370  1.7083 -0.0221 -0.0470
 4204TIP3   OH234102   4.338   1.297   4.242  0.0434 -0.2058  0.1797
 4204TIP3    H134103   4.365   1.215   4.284  0.0837 -0.0261  0.5087
 4204TIP3    H234104   4.372   1.366   4.300 -2.4413  0.0458  1.5002
 4205TIP3   OH234105   6.052   3.025  13.584 -0.3135  0.7428 -0.6697
 4205TIP3    H134106   6.146   3.038  13.600  0.3410 -1.6860 -2.0274
 4205TIP3    H234107   6.018   2.988  13.666  0.6502 -1.3110 -1.1292
 4206TIP3   OH234108   2.547   5.887  12.125 -0.3364 -0.0975  0.2834
 4206TIP3    H134109   2.506   5.914  12.207 -1.1937 -0.9302  0.1453
 4206TIP3    H234110   2.631   5.850  12.152  0.1713  1.2241  0.6067
 4207TIP3   OH234111   2.118   3.856   0.763  0.5787  0.0509 -0.1519
 4207TIP3    H134112   2.086   3.839   0.852 -0.3956 -0.7359 -0.6240
 4207TIP3    H234113   2.167   3.777   0.739  2.4783  1.0252  0.3521
 4208TIP3   OH234114   6.228   5.191   1.254 -0.3139 -0.1716  0.3088
 4208TIP3    H134115   6.159   5.125   1.243  0.3875 -1.3297  2.3070
 4208TIP3    H234116   6.310   5.141   1.250  0.2921  0.7834  0.4771
 4209TIP3   OH234117   0.486   1.213  10.854  0.1740  0.4018 -0.3992
 4209TIP3    H134118   0.400   1.222  10.812 -0.8690 -1.3650  1.2011
 4209TIP3    H234119   0.516   1.127  10.828 -0.4498 -0.7084  2.2117
 4210TIP3   OH234120   0.510   1.009  14.319  0.0225  0.0909 -0.5404
 4210TIP3    H134121   0.579   1.042  14.376  1.1769 -0.3451 -1.6388
 4210TIP3    H234122   0.444   0.973  14.378  0.0522  1.7830  0.5849
 4211TIP3   OH234123   3.644   2.598   5.401 -0.1119 -0.1365 -0.3515
 4211TIP3    H134124   3.645   2.530   5.334 -0.9784 -0.4647 -0.0327
 4211TIP3    H234125   3.581   2.568   5.467  2.1233 -0.7635  1.6359
 4212TIP3   OH234126   1.133   5.719  13.286  0.0195 -0.3569  0.4951
 4212TIP3    H134127   1.143   5.638  13.236 -0.9517 -0.0231 -0.2585
 4212TIP3    H234128   1.223   5.752  13.296  0.3008 -0.8590 -0.2997
 4213TIP3   OH234129   0.161   6.556  11.804  0.3797  0.4259 -0.0830
 4213TIP3    H134130   0.174   6.468  11.769 -1.8770 -0.3174  0.7540
 4213TIP3    H234131   0.217   6.612  11.751 -0.3885 -1.0840 -2.6727
 4214TIP3   OH234132   4.495   1.491  16.149  0.0737  0.0340  0.2491
 4214TIP3    H134133   4.483   1.416  16.207  0.0363  0.4374  0.7616
 4214TIP3    H234134   4.450   1.563  16.192  0.5956  0.4930  0.0368
 4215TIP3   OH234135   0.011   5.265   4.019 -0.0865  0.0406 -0.2915
 4215TIP3    H134136  -0.082   5.284   4.013 -0.4592 -1.6624 -0.5561
 4215TIP3    H234137   0.053   5.350   4.031 -1.7167  0.7702  0.4602
 4216TIP3   OH234138   5.742   1.252  15.499  0.3589  0.8193 -0.0380
 4216TIP3    H134139   5.726   1.205  15.417 -1.3510  0.8068  0.2690
 4216TIP3    H234140   5.796   1.192  15.551  0.1285  0.1659 -0.5447
 4217TIP3   OH234141   1.754   5.454  10.832 -0.3123  0.6400 -0.3024
 4217TIP3    H134142   1.690   5.516  10.798 -0.6827  0.9624  0.9387
 4217TIP3    H234143   1.762   5.388  10.763 -2.1132  0.5027 -0.4258
 4218TIP3   OH234144   2.507   5.495   3.957  0.4157 -0.0446 -0.1139
 4218TIP3    H134145   2.474   5.437   4.026 -0.2008  0.1224 -0.2563
 4218TIP3    H234146   2.568   5.553   4.002  0.3063 -0.1858  0.2236
 4219TIP3   OH234147   3.387   2.453  11.803 -0.4647 -0.6785 -0.9916
 4219TIP3    H134148   3.402   2.537  11.761  0.2183  1.5368  3.1644
 4219TIP3    H234149   3.474   2.419  11.822 -0.6876 -0.5253  0.4408
 4220TIP3   OH234150   1.813   0.496   0.833  0.5147 -0.2366 -0.5838
 4220TIP3    H134151   1.724   0.529   0.829  0.1270 -1.3039 -1.5610
 4220TIP3    H234152   1.868   0.574   0.828 -0.3589  0.4121 -0.2931
 4221TIP3   OH234153   2.502   4.967   2.882  0.1425  0.0407  0.0871
 4221TIP3    H134154   2.595   4.977   2.862 -0.1140 -0.5536 -1.5740
 4221TIP3    H234155   2.496   4.882   2.926  0.6533  1.1541  2.4864
 4222TIP3   OH234156   3.061   1.940   6.079  0.2399  0.0075 -0.2802
 4222TIP3    H134157   3.077   2.031   6.052  0.6419 -0.2276 -0.8484
 4222TIP3    H234158   2.985   1.946   6.137 -2.4951  0.2285 -3.6243
 4223TIP3   OH234159   2.012   4.734   3.196  0.1847  0.3878  0.1909
 4223TIP3    H134160   2.084   4.796   3.181  0.3377 -0.0485 -1.0004
 4223TIP3    H234161   2.054   4.649   3.200 -0.1495  0.2433  0.6493
 4224TIP3   OH234162   1.447   3.780   0.810  0.0783 -0.4411 -0.1675
 4224TIP3    H134163   1.378   3.774   0.744  2.0440 -3.4942 -2.2365
 4224TIP3    H234164   1.508   3.845   0.775  0.1312 -0.5624 -0.2994
 4225TIP3   OH234165   1.996   5.310  16.759  0.5046 -0.0147 -0.4084
 4225TIP3    H134166   2.083   5.318  16.719  0.9383 -0.2653  0.4671
 4225TIP3    H234167   1.951   5.391  16.733  1.4083  0.6768  0.0980
 4226TIP3   OH234168   6.628   3.324   2.226 -0.1432 -0.1264 -0.8420
 4226TIP3    H134169   6.615   3.231   2.242  1.9762 -0.0793  2.0029
 4226TIP3    H234170   6.707   3.329   2.173 -0.8060  0.0708 -1.8430
 4227TIP3   OH234171   1.845   6.726   4.668  0.4051  0.1771  0.2309
 4227TIP3    H134172   1.906   6.697   4.601  1.3760  1.7220  0.4092
 4227TIP3    H234173   1.845   6.655   4.732 -1.7550 -2.1029 -2.0387
 4228TIP3   OH234174   0.375   5.731  14.337  0.0645  0.6007 -0.3180
 4228TIP3    H134175   0.394   5.649  14.382 -0.9036  0.4119 -0.2263
 4228TIP3    H234176   0.379   5.797  14.407 -1.0331  0.3619 -0.0046
 4229TIP3   OH234177   4.298   1.691  11.791  0.0272  0.7626  0.1642
 4229TIP3    H134178   4.378   1.683  11.740 -0.2335  1.1799 -0.3206
 4229TIP3    H234179   4.269   1.781  11.777 -1.0814  0.3199 -0.5007
 4230TIP3   OH234180   2.115   0.044   5.482 -0.1335  0.2281 -0.2052
 4230TIP3    H134181   2.165  -0.031   5.513  0.3517  0.8211  0.4841
 4230TIP3    H234182   2.106   0.030   5.388  1.2236  0.0485 -0.3256
 4231TIP3   OH234183   6.155   5.115  10.956 -0.3769  0.0729  0.4450
 4231TIP3    H134184   6.172   5.021  10.960 -1.8935 -0.2791 -0.4537
 4231TIP3    H234185   6.061   5.122  10.971 -0.4232  1.3761 -0.3814
 4232TIP3   OH234186   3.149   2.536  14.233  0.1067 -0.1792  0.5359
 4232TIP3    H134187   3.166   2.601  14.301 -0.9554 -0.9424  1.5946
 4232TIP3    H234188   3.107   2.463  14.280 -0.5634 -0.7835 -0.9232
 4233TIP3   OH234189   2.759   1.303   2.274 -0.1476  0.2049 -0.0801
 4233TIP3    H134190   2.798   1.331   2.191 -1.0279  1.1595 -0.1982
 4233TIP3    H234191   2.729   1.213   2.257  2.8339 -0.9698  0.3407
 4234TIP3   OH234192   0.809   6.398  14.800  0.7915 -0.3836 -0.1858
 4234TIP3    H134193   0.785   6.333  14.733 -1.1887 -2.3134  2.2093
 4234TIP3    H234194   0.771   6.480  14.768  2.5101 -0.4543 -2.8044
 4235TIP3   OH234195   4.625   0.664   6.530 -0.6516  0.1920 -0.1003
 4235TIP3    H134196   4.612   0.579   6.572 -1.0750  0.5343  0.4712
 4235TIP3    H234197   4.537   0.691   6.504 -0.8700  1.5242  1.8225
 4236TIP3   OH234198   5.103   2.270  15.503  0.0028  0.0979 -0.0131
 4236TIP3    H134199   5.134   2.292  15.416 -1.0443 -0.9300 -0.6684
 4236TIP3    H234200   5.143   2.336  15.560  1.6187  0.1021 -1.0898
 4237TIP3   OH234201   1.554   2.535  12.938  0.4533  0.0810  0.5406
 4237TIP3    H134202   1.609   2.564  13.011 -0.5790  0.2658  1.2626
 4237TIP3    H234203   1.487   2.603  12.930 -0.3872 -0.7388  0.4696
 4238TIP3   OH234204   4.341   2.668   0.861 -0.0326 -0.5340  0.4580
 4238TIP3    H134205   4.344   2.576   0.887  0.8210 -0.8297 -0.6040
 4238TIP3    H234206   4.278   2.670   0.789  2.7735 -1.0685 -2.2010
 4239TIP3   OH234207   4.821   6.746  16.537  0.0510 -0.2267  0.3207
 4239TIP3    H134208   4.878   6.682  16.492 -1.0324 -1.0641  0.1020
 4239TIP3    H234209   4.866   6.763  16.620  2.2538  1.5986 -1.1411
 4240TIP3   OH234210   4.754   0.629   5.851 -0.0337 -0.6242 -0.3687
 4240TIP3    H134211   4.821   0.697   5.843  0.5951 -1.4221 -2.3648
 4240TIP3    H234212   4.803   0.551   5.878 -0.2402 -1.0785 -1.2932
 4241TIP3   OH234213   2.150   0.340  16.130  0.1342  0.0277 -0.2663
 4241TIP3    H134214   2.063   0.351  16.168 -0.0014  0.4380 -0.6819
 4241TIP3    H234215   2.196   0.281  16.190 -0.8613 -1.2550 -0.7201
 4242TIP3   OH234216   6.651   1.885   6.686  0.7078  0.0601 -0.2378
 4242TIP3    H134217   6.577   1.868   6.744  0.7063  0.9606  0.0460
 4242TIP3    H234218   6.661   1.805   6.635  1.7232 -1.3968  2.0901
 4243TIP3   OH234219   5.725   4.474   1.783 -0.2434  0.4416 -0.6643
 4243TIP3    H134220   5.814   4.448   1.805  0.0221  0.5783 -1.5251
 4243TIP3    H234221   5.682   4.391   1.760 -1.0433  0.0349  1.9510
 4244TIP3   OH234222   1.745   0.960   2.290 -0.0476  1.0534  0.2577
 4244TIP3    H134223   1.822   1.016   2.299  0.5313  0.2553  0.3894
 4244TIP3    H234224   1.700   0.994   2.213  1.9415 -0.1879 -1.5614
 4245TIP3   OH234225   6.348   6.294   5.609 -0.4630 -0.6194 -0.5236
 4245TIP3    H134226   6.422   6.288   5.670 -0.4971  1.2463 -0.2518
 4245TIP3    H234227   6.385   6.268   5.525 -0.0220 -1.7022 -0.0090
 4246TIP3   OH234228   3.404   4.313  11.616  0.1542  0.1496 -0.6492
 4246TIP3    H134229   3.472   4.299  11.550 -0.6920  0.3055 -1.5974
 4246TIP3    H234230   3.367   4.226  11.632  1.5326 -0.1829  0.9918
 4247TIP3   OH234231   1.403   5.937  11.944  0.1126  0.2112  0.6736
 4247TIP3    H134232   1.447   5.892  11.872  0.1952 -0.4216  1.1139
 4247TIP3    H234233   1.418   6.030  11.926  2.3185  0.0169  1.2418
 4248TIP3   OH234234   0.345   2.882   4.190 -0.2974  0.1905  0.2733
 4248TIP3    H134235   0.381   2.914   4.107  0.6422  0.5937  0.8369
 4248TIP3    H234236   0.333   2.960   4.243 -0.5086 -0.1170  0.6834
 4249TIP3   OH234237   2.585   5.815   3.792  0.1401 -0.3442  0.8136
 4249TIP3    H134238   2.667   5.860   3.811  0.4220 -0.3744 -0.2824
 4249TIP3    H234239   2.611   5.729   3.759 -0.3083 -0.2038  0.0590
 4250TIP3   OH234240   6.688   0.315   5.485 -0.0215 -0.5870  0.2646
 4250TIP3    H134241   6.721   0.230   5.456  0.2449 -0.7611  1.0317
 4250TIP3    H234242   6.594   0.312   5.468  0.0569 -0.8564 -0.1351
 4251TIP3   OH234243   5.027   4.278  14.119  0.0352  0.0227 -0.9432
 4251TIP3    H134244   5.075   4.239  14.046  0.6529  0.7804 -0.9589
 4251TIP3    H234245   5.047   4.372  14.114  1.5927 -0.0824  1.2219
 4252TIP3   OH234246   4.306   1.755   5.214  0.1000  0.2154 -0.2624
 4252TIP3    H134247   4.364   1.805   5.271  0.3408 -0.4192  0.0611
 4252TIP3    H234248   4.276   1.682   5.268 -1.5526  0.8995 -0.2152
 4253TIP3   OH234249   4.897   5.305   6.825 -0.1817  1.0937 -1.0684
 4253TIP3    H134250   4.822   5.269   6.871 -0.0398 -0.1811 -1.7967
 4253TIP3    H234251   4.888   5.400   6.835  0.4546  0.9042  2.5256
 4254TIP3   OH234252   0.053   0.379  16.596 -0.0887  0.2641  0.0089
 4254TIP3    H134253   0.087   0.451  16.650 -1.7716 -0.0448  1.5784
 4254TIP3    H234254   0.063   0.301  16.651 -0.2516 -0.3527 -0.8188
 4255TIP3   OH234255   1.546   5.466  17.291  1.0852  0.0711 -0.2541
 4255TIP3    H134256   1.633   5.502  17.274  1.9804 -2.2890 -1.1105
 4255TIP3    H234257   1.560   5.399  17.358 -0.7630  2.1610  2.4590
 4256TIP3   OH234258   0.631   6.425   2.925 -0.0032 -0.2384  0.3966
 4256TIP3    H134259   0.678   6.424   3.008  0.1617 -1.2642  0.2971
 4256TIP3    H234260   0.696   6.454   2.861 -0.0990  0.4403  0.5997
 4257TIP3   OH234261   2.561   5.614  15.518 -0.1069  0.6623  0.6339
 4257TIP3    H134262   2.630   5.632  15.582  0.2211 -0.7847  0.7194
 4257TIP3    H234263   2.525   5.529  15.544 -0.3478  0.3156 -0.7597
 4258TIP3   OH234264   5.154   1.567   1.649 -0.3718  0.6397  0.3817
 4258TIP3    H134265   5.101   1.517   1.586 -1.0670 -0.6119  1.9092
 4258TIP3    H234266   5.094   1.587   1.721  0.8142  0.6189  1.4078
 4259TIP3   OH234267   3.603   0.685   2.000  0.2198  0.1566  0.7418
 4259TIP3    H134268   3.641   0.613   1.950  1.1718  0.4800  0.9821
 4259TIP3    H234269   3.547   0.731   1.938  0.6748  0.0141  0.2243
 4260TIP3   OH234270   5.573   5.624   1.093 -0.5056  0.2050  0.0637
 4260TIP3    H134271   5.593   5.619   0.999  1.7582  1.5440  0.4053
 4260TIP3    H234272   5.546   5.714   1.107  2.6377  1.0986  1.1939
 4261TIP3   OH234273   6.752   0.097   1.054  0.4335 -0.1759  0.5215
 4261TIP3    H134274   6.670   0.137   1.025  1.4033 -0.2049 -2.6774
 4261TIP3    H234275   6.800   0.168   1.097 -0.8357  0.0854  1.5530
 4262TIP3   OH234276   6.122   6.456  13.568 -0.3425  0.3424 -0.9332
 4262TIP3    H134277   6.176   6.501  13.633 -0.4073  1.8095 -1.8426
 4262TIP3    H234278   6.138   6.363  13.583  0.8904  0.6954  0.1028
 4263TIP3   OH234279   3.826   2.562   5.640 -1.1874  0.1682  0.1221
 4263TIP3    H134280   3.793   2.639   5.594 -1.0027  0.6211  0.7469
 4263TIP3    H234281   3.889   2.523   5.579 -0.2226  1.3047  0.3577
 4264TIP3   OH234282   3.364   3.142  14.350 -0.0067 -0.1539  0.4771
 4264TIP3    H134283   3.424   3.198  14.400 -1.9199  1.5668  0.9743
 4264TIP3    H234284   3.302   3.110  14.416 -0.9770 -0.0560 -0.3776
 4265TIP3   OH234285   4.402   5.398   1.990  0.3054  0.0392  0.1641
 4265TIP3    H134286   4.401   5.330   1.923 -1.9412 -0.8592  1.0076
 4265TIP3    H234287   4.415   5.479   1.941 -0.3520 -0.6786 -1.2676
 4266TIP3   OH234288   2.701   3.214  11.547  0.5235 -0.4368  0.1110
 4266TIP3    H134289   2.657   3.130  11.562 -0.7133  0.4757  1.9381
 4266TIP3    H234290   2.641   3.279  11.582  1.8212  1.1687 -0.5289
 4267TIP3   OH234291   0.021   4.973  15.577 -0.0212  0.5934 -0.0509
 4267TIP3    H134292  -0.013   4.892  15.614 -0.2138  0.1143 -1.2476
 4267TIP3    H234293  -0.057   5.026  15.560  0.0418  0.6573 -0.1396
 4268TIP3   OH234294   1.025   6.434  14.531  0.2072 -0.0903  0.4118
 4268TIP3    H134295   0.953   6.495  14.546 -1.2444 -0.5380 -3.6366
 4268TIP3    H234296   1.006   6.360  14.588 -1.3217  0.7220  1.0049
 4269TIP3   OH234297   2.693   5.792  10.830  0.3006  0.7810 -0.2960
 4269TIP3    H134298   2.658   5.715  10.876  1.4884  0.7377  0.5887
 4269TIP3    H234299   2.671   5.866  10.887  0.4310  0.9202 -0.4257
 4270TIP3   OH234300   3.368   2.493  16.016  0.4045  0.2949  0.0678
 4270TIP3    H134301   3.413   2.413  15.989 -1.9332 -1.8296  1.9738
 4270TIP3    H234302   3.393   2.506  16.108  0.1623  1.3705  0.0034
 4271TIP3   OH234303   1.425   2.840  12.868 -0.1173 -0.2177  0.6527
 4271TIP3    H134304   1.417   2.926  12.826  0.0439  0.3542  1.7650
 4271TIP3    H234305   1.517   2.831  12.890 -0.1583 -0.6102  0.6837
 4272TIP3   OH234306   2.823   6.092  14.565 -0.0019  0.0547  0.0679
 4272TIP3    H134307   2.868   6.111  14.647 -0.2008 -2.2221  0.7592
 4272TIP3    H234308   2.882   6.033  14.518  0.4861  1.9370 -1.8726
 4273TIP3   OH234309   4.202   4.582   2.517 -0.0849  0.1465  0.3206
 4273TIP3    H134310   4.222   4.669   2.482 -0.0003  1.4425  3.2712
 4273TIP3    H234311   4.113   4.564   2.487  0.6798  0.1696 -2.1914
 4274TIP3   OH234312   0.706   5.299   4.125 -0.0968  0.1484 -0.0510
 4274TIP3    H134313   0.698   5.288   4.030 -0.6572 -3.6437  0.3123
 4274TIP3    H234314   0.783   5.249   4.149  0.4268  1.5896  1.5041
 4275TIP3   OH234315   2.930   3.761   4.757  0.1620  0.2046  0.0261
 4275TIP3    H134316   2.851   3.806   4.727 -0.1064 -0.5447 -0.4368
 4275TIP3    H234317   2.991   3.831   4.780 -0.8348  0.8031  0.9328
 4276TIP3   OH234318   3.298   5.606   0.489  0.5508  0.2506 -0.2548
 4276TIP3    H134319   3.313   5.664   0.415 -0.0504 -0.5742 -1.0425
 4276TIP3    H234320   3.202   5.598   0.494  0.3925  2.4648  2.3251
 4277TIP3   OH234321   5.691   6.636  15.118  0.4372  0.0207 -0.2216
 4277TIP3    H134322   5.616   6.581  15.140 -0.1476  0.4052 -1.1567
 4277TIP3    H234323   5.748   6.633  15.195  0.3222 -1.7121 -0.1843
 4278TIP3   OH234324   0.449   4.859  11.969  0.2148 -0.2946 -0.1966
 4278TIP3    H134325   0.470   4.825  12.056 -0.3139  4.0186  1.9016
 4278TIP3    H234326   0.533   4.862  11.923  0.7058 -1.5404  0.5794
 4279TIP3   OH234327   4.020   1.048  13.604  0.2491 -0.6737 -0.5199
 4279TIP3    H134328   4.011   1.107  13.529  1.1765  1.4352  0.9351
 4279TIP3    H234329   3.933   1.046  13.643  0.4120  0.5102 -0.0582
 4280TIP3   OH234330   2.145   5.415  13.861 -0.0375  0.2490 -0.1394
 4280TIP3    H134331   2.154   5.509  13.879  0.3294  0.1903 -0.0032
 4280TIP3    H234332   2.232   5.389  13.830 -0.1850 -0.0130 -0.3325
 4281TIP3   OH234333   5.313   1.877  10.925 -0.4163 -0.2480 -0.0364
 4281TIP3    H134334   5.260   1.943  10.970 -3.4076 -1.5940 -1.2480
 4281TIP3    H234335   5.402   1.910  10.928 -1.7413  3.9135 -0.7084
 4282TIP3   OH234336   2.885   5.604  17.272  0.3527 -0.6703  0.4657
 4282TIP3    H134337   2.963   5.658  17.261 -1.3094  1.9050  0.4107
 4282TIP3    H234338   2.854   5.587  17.183  0.6658 -1.4659  0.4960
 4283TIP3   OH234339   0.563   3.436   0.562  0.0429  0.0269  1.0236
 4283TIP3    H134340   0.479   3.459   0.600 -0.0887 -0.9917  1.3771
 4283TIP3    H234341   0.582   3.348   0.596  0.3459 -0.5513 -0.5539
 4284TIP3   OH234342   2.522   1.460  16.216  0.3932 -0.0745  0.0588
 4284TIP3    H134343   2.447   1.486  16.269  0.0307  0.0461 -0.5012
 4284TIP3    H234344   2.489   1.460  16.126  0.9463 -0.4544 -0.1504
 4285TIP3   OH234345   3.781   6.725   3.903 -0.0271  0.1691 -0.2051
 4285TIP3    H134346   3.828   6.808   3.893 -0.5156  0.5729  0.7449
 4285TIP3    H234347   3.695   6.751   3.936 -0.8468 -0.5763 -1.6576
 4286TIP3   OH234348   1.015   2.299   3.947  0.0887 -0.1510 -0.3440
 4286TIP3    H134349   1.076   2.359   3.904  0.1842 -1.1881 -1.7270
 4286TIP3    H234350   0.930   2.342   3.940  0.5452  1.1676  1.3372
 4287TIP3   OH234351   1.974   2.573  15.022 -0.3514 -0.1855 -0.4199
 4287TIP3    H134352   1.919   2.502  14.989 -0.1349 -0.8786  0.6530
 4287TIP3    H234353   1.917   2.622  15.081 -0.0970 -0.3277 -0.0516
 4288TIP3   OH234354   1.978   4.043  16.604 -0.4435 -0.1140  0.3484
 4288TIP3    H134355   1.978   4.010  16.694 -0.0345  1.0407  0.7870
 4288TIP3    H234356   1.968   4.138  16.612 -2.0497 -0.1235 -0.9012
 4289TIP3   OH234357   5.408   0.479  16.734 -0.3611  0.8688  0.1878
 4289TIP3    H134358   5.328   0.431  16.757 -0.0100  0.7705  1.2806
 4289TIP3    H234359   5.461   0.417  16.685 -0.6362  0.6981  0.1052
 4290TIP3   OH234360   0.212   3.398  14.980  0.5764  0.1215 -0.0624
 4290TIP3    H134361   0.247   3.424  15.065  1.0978 -0.1221 -0.2000
 4290TIP3    H234362   0.194   3.305  14.990  1.4309 -0.0968 -0.4796
 4291TIP3   OH234363   2.670   3.955  14.371 -0.4364  0.1037  0.1309
 4291TIP3    H134364   2.705   3.872  14.338 -1.8867  0.2547 -2.0400
 4291TIP3    H234365   2.705   3.963  14.459 -1.2079 -3.4352  0.9113
 4292TIP3   OH234366   0.681   1.990  14.332 -0.2362  0.2087  0.3928
 4292TIP3    H134367   0.760   1.983  14.385  0.4405  0.5282 -0.5455
 4292TIP3    H234368   0.713   2.001  14.242 -1.3432 -0.8742 -0.1767
 4293TIP3   OH234369   1.405   1.365   5.813 -0.1109  0.6493  0.3477
 4293TIP3    H134370   1.457   1.418   5.873  0.2395 -0.6702  1.2710
 4293TIP3    H234371   1.400   1.279   5.855 -0.6142 -0.0719 -1.0972
 4294TIP3   OH234372   4.809   5.132  13.841 -0.4612  0.1166 -0.3778
 4294TIP3    H134373   4.888   5.083  13.820  0.6408  1.3281  0.8236
 4294TIP3    H234374   4.792   5.185  13.763 -0.7153 -0.8898 -1.0337
 4295TIP3   OH234375   1.880   3.657   1.781 -0.3204  0.2919 -0.0803
 4295TIP3    H134376   1.809   3.632   1.722 -1.5561  1.4872  0.8373
 4295TIP3    H234377   1.946   3.588   1.770 -1.3467 -0.5307 -1.3983
 4296TIP3   OH234378   3.640   1.766  13.933  0.1269 -0.0676  0.2711
 4296TIP3    H134379   3.642   1.798  14.023 -0.0502 -0.9868  0.5999
 4296TIP3    H234380   3.732   1.766  13.906  0.0222  2.6775 -0.4586
 4297TIP3   OH234381   4.614   2.567  14.652  0.3144  0.1343 -0.1006
 4297TIP3    H134382   4.586   2.601  14.567 -1.3031  0.4042  0.5167
 4297TIP3    H234383   4.538   2.577  14.708  1.4291  0.1599  1.4593
 4298TIP3   OH234384   3.841   3.706   6.442  0.7277  0.9324 -0.2564
 4298TIP3    H134385   3.918   3.762   6.431  1.0128  0.6414  0.2201
 4298TIP3    H234386   3.876   3.621   6.468  0.4771 -0.1748 -3.1653
 4299TIP3   OH234387   5.368   0.870   3.098  0.0460  0.2132  0.0837
 4299TIP3    H134388   5.460   0.896   3.102 -0.0150  0.4869 -0.2225
 4299TIP3    H234389   5.326   0.920   3.168  0.3519 -0.8787  1.0761
 4300TIP3   OH234390   3.297   6.423   0.021 -0.3521  0.6942 -0.0240
 4300TIP3    H134391   3.375   6.444  -0.031 -1.1814  0.9613 -1.2149
 4300TIP3    H234392   3.257   6.508   0.038 -0.5000  0.5420  0.3894
 4301TIP3   OH234393   5.939   6.610  15.308  0.1723 -0.0053  0.1060
 4301TIP3    H134394   6.010   6.673  15.300  1.8081 -1.6192  1.1232
 4301TIP3    H234395   5.978   6.526  15.283 -1.2027 -1.0416  1.2286
 4302TIP3   OH234396   5.377   0.332  15.745 -0.6474 -0.4637  0.0573
 4302TIP3    H134397   5.348   0.253  15.699 -1.3308 -0.1370 -0.0800
 4302TIP3    H234398   5.335   0.326  15.831 -0.5614 -0.3346  0.1093
 4303TIP3   OH234399   6.133   4.111  16.240 -0.2312  0.0399 -0.3835
 4303TIP3    H134400   6.127   4.156  16.325  2.0859 -0.2559 -0.0105
 4303TIP3    H234401   6.108   4.020  16.260 -4.0457  0.7633 -0.9739
 4304TIP3   OH234402   4.680   1.082  11.899 -0.3379 -0.4426 -0.1056
 4304TIP3    H134403   4.671   1.151  11.966  0.7371 -2.2434  2.0269
 4304TIP3    H234404   4.593   1.042  11.896 -0.8506  0.6740 -1.0491
 4305TIP3   OH234405   1.154   5.946  14.390  0.0332 -0.1065 -0.0467
 4305TIP3    H134406   1.126   5.930  14.480 -0.4546  3.9978  0.7212
 4305TIP3    H234407   1.116   5.874  14.340 -3.8310 -0.0305  2.3592
 4306TIP3   OH234408   5.881   1.782   4.341 -0.0889  0.0612 -0.0184
 4306TIP3    H134409   5.919   1.867   4.320  0.6675  0.1856  1.7338
 4306TIP3    H234410   5.827   1.798   4.418 -1.1883 -0.7601 -0.5919
 4307TIP3   OH234411   3.440   0.192  16.851 -0.6252  0.3939  0.0812
 4307TIP3    H134412   3.373   0.235  16.905 -2.4578 -0.3310 -1.5048
 4307TIP3    H234413   3.516   0.185  16.909 -1.4903  2.3375  1.5753
 4308TIP3   OH234414   3.226   4.478  14.603  0.0373  0.7371  0.0441
 4308TIP3    H134415   3.300   4.492  14.544 -0.2383 -2.0778 -1.1628
 4308TIP3    H234416   3.264   4.435  14.680 -0.3254 -1.6069 -0.9859
 4309TIP3   OH234417   2.846   0.610   1.916  0.0406 -0.2357 -0.5947
 4309TIP3    H134418   2.896   0.595   1.836 -1.6978  0.2667 -1.8485
 4309TIP3    H234419   2.777   0.544   1.914 -0.6059  0.4082 -0.0168
 4310TIP3   OH234420   3.640   3.258  14.459 -0.0203 -0.5499 -0.2512
 4310TIP3    H134421   3.663   3.273  14.551 -0.4680 -0.2585 -0.1816
 4310TIP3    H234422   3.650   3.344  14.418 -2.1279 -0.1116  0.0381
 4311TIP3   OH234423   6.530   5.090   5.094  0.5721  0.2188 -0.4207
 4311TIP3    H134424   6.518   5.092   5.189  1.3283  0.5335 -0.3219
 4311TIP3    H234425   6.535   5.182   5.069  0.1173  0.1431 -0.8087
 4312TIP3   OH234426   1.032   5.529   1.927  0.3568  0.1816  0.5194
 4312TIP3    H134427   1.024   5.511   1.833 -0.7284 -2.0021  0.9913
 4312TIP3    H234428   0.949   5.568   1.952  0.0935 -0.5650  0.8347
 4313TIP3   OH234429   0.983   6.173   2.387 -0.7165  0.2548 -0.1259
 4313TIP3    H134430   0.993   6.153   2.294 -1.4906  2.0368 -0.6366
 4313TIP3    H234431   1.069   6.156   2.424 -0.1641  0.3056 -1.3368
 4314TIP3   OH234432   3.096   0.883  16.024 -0.5468  0.1084  0.4799
 4314TIP3    H134433   3.077   0.823  16.096 -2.1277 -1.6262 -1.2845
 4314TIP3    H234434   3.174   0.932  16.054  0.4329 -2.3250  2.2678
 4315TIP3   OH234435   1.478   6.218   5.800 -0.3870 -0.6007 -0.3614
 4315TIP3    H134436   1.487   6.285   5.868  0.3379  0.4027 -1.4015
 4315TIP3    H234437   1.555   6.163   5.812 -1.1789 -1.5083  0.7365
 4316TIP3   OH234438   5.790   5.630   4.924 -0.2819  0.2680  0.3910
 4316TIP3    H134439   5.850   5.564   4.959  0.9348  1.0311 -0.2149
 4316TIP3    H234440   5.821   5.713   4.961 -0.0018  0.8664 -1.1461
 4317TIP3   OH234441   2.750   1.313  17.230 -0.0384  0.0205  0.1859
 4317TIP3    H134442   2.718   1.292  17.318 -1.2709  1.5750  0.1641
 4317TIP3    H234443   2.837   1.350  17.244  0.2285 -0.7735  0.6413
 4318TIP3   OH234444   5.740   1.533  12.306  1.1786  0.5278  0.5512
 4318TIP3    H134445   5.734   1.472  12.379  0.8500  0.1722  0.2293
 4318TIP3    H234446   5.830   1.565  12.309  0.6661  1.9784  2.2825
 4319TIP3   OH234447   4.925   5.144  15.995 -0.0835  0.5147 -0.4217
 4319TIP3    H134448   4.967   5.191  16.067  0.0459  1.0445 -0.8397
 4319TIP3    H234449   4.979   5.164  15.918  0.5262 -1.0789 -0.4432
 4320TIP3   OH234450   6.752   4.794  12.328  0.1005  0.1010  0.0494
 4320TIP3    H134451   6.780   4.883  12.347  0.5864 -0.1367  0.4935
 4320TIP3    H234452   6.821   4.758  12.272 -0.5089  0.2679 -0.8196
 4321TIP3   OH234453   4.804   6.388   0.094  1.1406  0.0410  0.2247
 4321TIP3    H134454   4.791   6.467   0.041 -2.5489 -1.4502 -1.4199
 4321TIP3    H234455   4.853   6.329   0.036  1.0433 -0.0145  0.1983
 4322TIP3   OH234456   4.706   3.804  15.190 -0.2639  0.1092 -0.1902
 4322TIP3    H134457   4.768   3.876  15.205 -0.0425 -0.5129  2.1432
 4322TIP3    H234458   4.696   3.802  15.094 -1.0805  3.9116 -0.3580
 4323TIP3   OH234459   5.723   6.228   3.088 -0.1371 -0.0434 -0.0281
 4323TIP3    H134460   5.706   6.199   3.177  0.1815  0.0716  0.0722
 4323TIP3    H234461   5.702   6.152   3.033  1.5043 -0.7740  0.2901
 4324TIP3   OH234462   2.084   3.700  12.014  0.1950  0.4339 -0.1976
 4324TIP3    H134463   2.003   3.709  11.963 -0.2497 -1.5187  0.0632
 4324TIP3    H234464   2.141   3.648  11.958  1.6922  2.5725 -0.7717
 4325TIP3   OH234465   3.870   2.097   6.055  0.0237 -0.7979 -0.5774
 4325TIP3    H134466   3.899   2.043   6.129  0.3142  0.9641  0.6562
 4325TIP3    H234467   3.947   2.149   6.033 -0.1902 -1.0183 -1.8858
 4326TIP3   OH234468   4.902   3.491  16.848 -0.2290 -0.2249 -0.1489
 4326TIP3    H134469   4.857   3.537  16.919  1.7892 -2.1573  2.5864
 4326TIP3    H234470   4.973   3.550  16.822 -0.6246  0.2427 -0.1886
 4327TIP3   OH234471   1.643   4.320   0.377  0.3242  0.0675 -0.7573
 4327TIP3    H134472   1.568   4.312   0.317 -0.5016  0.3131  0.2068
 4327TIP3    H234473   1.603   4.324   0.464  1.3926  1.4553 -0.2908
 4328TIP3   OH234474   1.507   5.017   1.845  0.5763 -0.1377 -0.2697
 4328TIP3    H134475   1.495   4.927   1.876 -0.8376  0.1065 -0.0194
 4328TIP3    H234476   1.510   5.069   1.925 -1.9786  0.3761 -0.4355
 4329TIP3   OH234477   5.474   6.161   4.842 -0.2856 -0.1264  0.0753
 4329TIP3    H134478   5.467   6.168   4.747  1.3201  3.3825  0.0824
 4329TIP3    H234479   5.391   6.195   4.875  0.7880  2.9162 -0.1307
 4330TIP3   OH234480   5.976   2.494   3.823  0.0142 -0.1685  0.5580
 4330TIP3    H134481   5.926   2.412   3.818  0.3784 -0.3808  0.4191
 4330TIP3    H234482   5.914   2.557   3.860 -0.3864 -0.4095  0.3046
 4331TIP3   OH234483   0.229   2.564   2.881 -0.0747 -0.1881 -0.4364
 4331TIP3    H134484   0.301   2.552   2.944  0.1139  0.7231 -0.4651
 4331TIP3    H234485   0.264   2.531   2.799  1.1269  2.1096 -0.9476
 4332TIP3   OH234486   0.017   4.949   2.444 -0.9460 -0.3972  0.5291
 4332TIP3    H134487   0.054   4.929   2.358 -0.7413 -1.9909  0.9459
 4332TIP3    H234488   0.035   4.871   2.496 -1.6003  0.2996  1.8484
 4333TIP3   OH234489   5.163   5.573   1.239  0.2561 -0.0085 -0.3181
 4333TIP3    H134490   5.232   5.512   1.266  0.7074  0.6983  0.1902
 4333TIP3    H234491   5.132   5.611   1.322  0.1896  0.6542 -0.6415
 4334TIP3   OH234492   2.406   2.124  14.126  0.5908 -0.5455  0.0826
 4334TIP3    H134493   2.406   2.052  14.063 -0.2587 -1.4605  1.0852
 4334TIP3    H234494   2.497   2.155  14.127  1.1966 -2.2400  0.3311
 4335TIP3   OH234495   2.942   4.324   2.533 -0.3040 -0.0340  0.3795
 4335TIP3    H134496   3.032   4.343   2.560 -0.3691  0.4909  0.2391
 4335TIP3    H234497   2.942   4.230   2.515 -0.0669 -0.2474  1.4288
 4336TIP3   OH234498   6.480   5.332   3.269  0.1557  0.5165  0.3536
 4336TIP3    H134499   6.402   5.363   3.315  0.2805  2.5722 -0.6949
 4336TIP3    H234500   6.538   5.408   3.266  0.9275 -0.0694 -1.5009
 4337TIP3   OH234501   4.430   3.537  13.843  0.0454 -0.2827 -0.0076
 4337TIP3    H134502   4.384   3.516  13.924 -1.1693  0.4208 -0.4846
 4337TIP3    H234503   4.375   3.501  13.773  0.5448 -0.0015 -0.5593
 4338TIP3   OH234504   5.426   5.135   4.718 -0.0299  0.2352 -0.2988
 4338TIP3    H134505   5.355   5.181   4.764 -0.9478 -0.8463 -0.5950
 4338TIP3    H234506   5.418   5.164   4.627 -0.9113 -0.8342 -0.5799
 4339TIP3   OH234507   2.344   0.031  15.826  0.3606  0.6105  0.4264
 4339TIP3    H134508   2.429   0.048  15.785  0.3394 -0.7529 -0.2378
 4339TIP3    H234509   2.316  -0.053  15.789  0.1600 -0.5258  2.9436
 4340TIP3   OH234510   0.112   3.506   2.351 -0.2608  0.1897  0.0201
 4340TIP3    H134511   0.105   3.531   2.259 -0.5708 -0.3320 -0.0979
 4340TIP3    H234512   0.130   3.412   2.350 -0.9172  0.0477  0.5003
 4341TIP3   OH234513   3.719   0.120   0.670 -0.4584  0.0996 -0.4259
 4341TIP3    H134514   3.768   0.068   0.733  0.7853  0.4685 -1.0366
 4341TIP3    H234515   3.742   0.211   0.692 -0.4589  0.2540 -1.0434
 4342TIP3   OH234516   3.295   1.933   0.762 -0.1614 -0.3504  0.2295
 4342TIP3    H134517   3.347   1.939   0.842 -0.1235  1.9523  0.0928
 4342TIP3    H234518   3.253   2.019   0.754  0.2773 -0.3141 -2.5214
 4343TIP3   OH234519   3.487   1.864   4.498 -0.0661  0.3312 -0.4361
 4343TIP3    H134520   3.433   1.785   4.510  1.8046 -1.0112 -0.3698
 4343TIP3    H234521   3.564   1.848   4.553  0.4438  2.1572 -0.5733
 4344TIP3   OH234522   3.093   5.196   4.825  0.4090 -0.3632  0.0652
 4344TIP3    H134523   3.094   5.196   4.730  0.7909 -0.3080  0.0708
 4344TIP3    H234524   3.176   5.236   4.851  0.3916 -0.5491  0.4214
 4345TIP3   OH234525   4.787   3.303  12.817  0.2759 -0.4347 -0.6934
 4345TIP3    H134526   4.722   3.356  12.863  0.7973 -0.1935 -0.2088
 4345TIP3    H234527   4.757   3.300  12.726  0.2959  0.7979 -0.7519
 4346TIP3   OH234528   4.851   1.091   0.124  0.3359  0.4120 -0.3264
 4346TIP3    H134529   4.936   1.129   0.105  0.9479  0.2398  1.7869
 4346TIP3    H234530   4.850   1.007   0.079  1.3602  0.3434 -0.2255
 4347TIP3   OH234531   0.075   2.403  15.516  0.1069  0.7474  0.1156
 4347TIP3    H134532   0.139   2.472  15.532 -0.0928  0.7564  0.9123
 4347TIP3    H234533   0.077   2.349  15.595  0.0995 -0.0359 -0.4098
 4348TIP3   OH234534   4.040   6.672  11.000 -0.0489  0.6610 -0.6430
 4348TIP3    H134535   3.953   6.638  10.982  0.0487  0.8295 -1.4611
 4348TIP3    H234536   4.095   6.638  10.929  0.1249  2.1813 -1.2805
 4349TIP3   OH234537   2.170   5.970  11.493  0.1393  0.5346 -0.3178
 4349TIP3    H134538   2.119   5.945  11.570 -1.5125  1.4614 -1.0647
 4349TIP3    H234539   2.129   6.050  11.461  1.4527  0.7633 -1.5463
 4350TIP3   OH234540   5.010   3.100  14.012 -0.5118 -0.6412  0.1288
 4350TIP3    H134541   5.032   3.007  13.998  0.7616 -0.8152  2.6932
 4350TIP3    H234542   4.937   3.098  14.074 -1.4289  0.1071 -0.8921
 4351TIP3   OH234543   3.955   1.354   1.834  0.4871  0.2017 -0.3819
 4351TIP3    H134544   3.998   1.285   1.886  0.4055  0.9515  0.7135
 4351TIP3    H234545   3.935   1.312   1.750 -0.5361 -1.4505  0.6394
 4352TIP3   OH234546   0.153   5.941   4.456  0.3284  0.6790 -0.0724
 4352TIP3    H134547   0.177   5.962   4.547  0.0286  2.2439 -0.3249
 4352TIP3    H234548   0.144   6.026   4.414 -0.6455 -0.0086 -1.2998
 4353TIP3   OH234549   0.443   5.353  14.363  0.1088  0.3775 -0.3200
 4353TIP3    H134550   0.430   5.427  14.422 -1.3249 -0.5821  0.6702
 4353TIP3    H234551   0.362   5.349  14.311 -0.9779 -1.8740  1.3475
 4354TIP3   OH234552   0.277   5.060   5.640  0.0722  0.3525 -0.0809
 4354TIP3    H134553   0.361   5.093   5.608 -0.9834  2.4635 -0.8482
 4354TIP3    H234554   0.230   5.138   5.668 -2.4866 -0.4673 -1.7296
 4355TIP3   OH234555   3.121   6.097   0.674  1.0263 -0.4897 -0.4454
 4355TIP3    H134556   3.177   6.107   0.751  0.2026 -2.5183  0.4814
 4355TIP3    H234557   3.046   6.046   0.705  0.7617 -1.5448 -2.6369
 4356TIP3   OH234558   2.998   2.751  13.565 -0.2187 -0.0980 -0.1744
 4356TIP3    H134559   3.082   2.710  13.584  1.3642  3.2656  0.7461
 4356TIP3    H234560   2.983   2.811  13.638 -2.1903  1.1979 -1.5389
 4357TIP3   OH234561   2.415   6.119   5.456 -0.3120 -0.2257  0.1324
 4357TIP3    H134562   2.498   6.166   5.465 -1.1985  1.2614  1.0982
 4357TIP3    H234563   2.370   6.133   5.539 -1.7282 -0.5906 -0.5256
 4358TIP3   OH234564   2.315   4.603  17.487  0.1851  0.7652 -0.6288
 4358TIP3    H134565   2.236   4.587  17.539 -0.5648 -1.8436 -2.3761
 4358TIP3    H234566   2.387   4.584  17.548 -0.6561 -2.0446 -0.3498
 4359TIP3   OH234567   0.350   1.943  14.559 -0.3241  0.3114 -0.0310
 4359TIP3    H134568   0.278   1.966  14.619  0.5419  1.1207  0.7227
 4359TIP3    H234569   0.395   2.025  14.543  0.1996 -0.1195 -0.8342
 4360TIP3   OH234570   6.410   1.410  10.528  0.5460 -0.2338 -0.0031
 4360TIP3    H134571   6.469   1.484  10.542  1.4783 -1.2405  1.7690
 4360TIP3    H234572   6.322   1.446  10.539  0.9517  0.7200  0.1958
 4361TIP3   OH234573   2.122   1.740   0.072 -0.4547  0.3091  0.2032
 4361TIP3    H134574   2.175   1.664   0.095 -0.8118  0.3867  1.3657
 4361TIP3    H234575   2.135   1.801   0.144  1.3837  2.2320 -1.6204
 4362TIP3   OH234576   0.024   4.270  16.322  0.1295  0.2638 -0.1722
 4362TIP3    H134577   0.002   4.358  16.290 -2.8852 -0.9108 -1.7632
 4362TIP3    H234578   0.031   4.217  16.243  1.2262 -1.1034  0.7863
 4363TIP3   OH234579   3.665   5.086  13.496  0.2296  0.0201 -0.2688
 4363TIP3    H134580   3.693   5.058  13.409  1.3037  1.1221 -0.3001
 4363TIP3    H234581   3.665   5.005  13.548 -0.3232 -0.6309 -1.2486
 4364TIP3   OH234582   1.327   0.938   2.805  0.1526 -0.8499  0.1073
 4364TIP3    H134583   1.250   0.907   2.852  1.3410 -3.7455  0.3244
 4364TIP3    H234584   1.397   0.936   2.870  0.8420 -0.1120 -0.5825
 4365TIP3   OH234585   2.692   3.586  13.694  0.0388  0.4841  0.0548
 4365TIP3    H134586   2.631   3.576  13.767 -0.6465  0.6502 -0.4846
 4365TIP3    H234587   2.636   3.595  13.617  0.6674  3.0200 -0.1802
 4366TIP3   OH234588   3.972   0.939   4.940  0.0758  0.2840 -0.3905
 4366TIP3    H134589   3.984   0.849   4.969  1.5149  0.3034 -0.8523
 4366TIP3    H234590   3.937   0.931   4.851  0.1807  0.1839 -0.4217
 4367TIP3   OH234591   3.212   0.871   4.707  0.0706 -0.8532  0.1012
 4367TIP3    H134592   3.246   0.823   4.782  0.6329 -1.0979 -0.3081
 4367TIP3    H234593   3.196   0.959   4.740  0.3852 -0.9388  0.4890
 4368TIP3   OH234594   4.868   3.645   2.702  0.0612 -0.1512 -0.1344
 4368TIP3    H134595   4.854   3.736   2.728  0.1077 -0.0871 -0.3312
 4368TIP3    H234596   4.913   3.605   2.776 -0.2920 -0.1078  0.1019
 4369TIP3   OH234597   2.235   3.996   2.263  0.8455  0.2662  0.2930
 4369TIP3    H134598   2.189   3.913   2.253 -0.9629  1.2243  0.3167
 4369TIP3    H234599   2.286   4.005   2.183 -0.9483  0.3091 -0.8979
 4370TIP3   OH234600   4.082   2.297  16.092 -0.4534  0.0944 -0.0086
 4370TIP3    H134601   4.089   2.373  16.150 -0.9372  0.9083 -0.9986
 4370TIP3    H234602   4.036   2.231  16.145  1.6613 -0.2715  1.5521
 4371TIP3   OH234603   4.791   0.649   3.618 -0.1850  0.1416 -0.2156
 4371TIP3    H134604   4.733   0.574   3.611  3.2444 -2.5741 -3.1666
 4371TIP3    H234605   4.857   0.622   3.683  1.9594 -0.2506 -2.4173
 4372TIP3   OH234606   3.645   6.771  12.545  0.3377 -0.2625  0.1006
 4372TIP3    H134607   3.741   6.775  12.540  0.2967 -0.3463 -1.2266
 4372TIP3    H234608   3.627   6.732  12.630  1.4999 -0.6716  0.1820
 4373TIP3   OH234609   6.651   6.558   4.628 -0.3757 -0.4635 -0.1316
 4373TIP3    H134610   6.585   6.604   4.680 -2.1545 -0.0018 -2.6032
 4373TIP3    H234611   6.601   6.497   4.574  1.0069  0.7333 -2.9639
 4374TIP3   OH234612   1.059   5.784  13.911 -0.4047  0.1585 -0.6952
 4374TIP3    H134613   1.065   5.813  13.820 -0.3294  0.2224 -0.6704
 4374TIP3    H234614   1.044   5.865  13.961 -1.0845  0.0492 -0.7160
 4375TIP3   OH234615   4.206   5.900   4.696 -0.1406 -1.0697 -0.3360
 4375TIP3    H134616   4.184   5.810   4.720 -0.3592 -1.6267 -2.3699
 4375TIP3    H234617   4.189   5.904   4.601  1.3021  0.6743 -0.5828
 4376TIP3   OH234618   0.574   3.984  13.354 -0.2103  0.1256  0.3007
 4376TIP3    H134619   0.604   3.978  13.264 -0.7715  2.2952 -0.0874
 4376TIP3    H234620   0.485   3.948  13.353 -0.5126  0.8640 -0.2033
 4377TIP3   OH234621   3.454   3.931   3.814  0.4890  0.4695  0.0687
 4377TIP3    H134622   3.480   4.017   3.847  2.1149 -0.3981  1.1989
 4377TIP3    H234623   3.417   3.886   3.890 -1.0314  0.4120 -0.6896
 4378TIP3   OH234624   4.193   2.811   6.606  0.0664 -0.1072  0.0604
 4378TIP3    H134625   4.146   2.853   6.678  0.0458 -0.9305  0.5404
 4378TIP3    H234626   4.260   2.758   6.649 -1.3555 -2.4060 -0.3596
 4379TIP3   OH234627   3.561   1.751   0.849 -0.3600  0.4912 -0.4225
 4379TIP3    H134628   3.518   1.827   0.888 -0.5313  0.5897 -0.7907
 4379TIP3    H234629   3.533   1.677   0.902 -1.1362  0.5310 -0.7662
 4380TIP3   OH234630   1.882   5.507  13.123  0.1756 -0.6882  0.1952
 4380TIP3    H134631   1.960   5.515  13.068 -0.2763  0.9160 -0.2648
 4380TIP3    H234632   1.875   5.413  13.141  1.8192 -0.9444 -0.3031
 4381TIP3   OH234633   0.747   1.987   6.297  0.5111 -0.0978  0.3002
 4381TIP3    H134634   0.747   2.062   6.237  1.1950  0.0320  0.4495
 4381TIP3    H234635   0.711   2.022   6.379 -0.4462 -0.2814 -0.0326
 4382TIP3   OH234636   2.808   6.499   2.644  0.2883 -0.8268 -0.5105
 4382TIP3    H134637   2.717   6.484   2.618  0.6852 -1.4364 -1.6050
 4382TIP3    H234638   2.860   6.451   2.580  1.4944  2.0367 -1.8524
 4383TIP3   OH234639   3.153   5.312   0.609 -0.1598 -0.6187  0.0603
 4383TIP3    H134640   3.074   5.352   0.646  0.8382  1.2671  0.2541
 4383TIP3    H234641   3.144   5.325   0.514 -0.0795 -0.4161  0.0811
 4384TIP3   OH234642   0.922   4.960  13.632  0.4353 -0.4150 -0.3352
 4384TIP3    H134643   1.000   4.971  13.687 -0.8660  1.0169  1.3445
 4384TIP3    H234644   0.879   4.882  13.667  0.5022 -0.5296 -0.5040
 4385TIP3   OH234645   0.901   1.007   0.627  0.0780 -0.2490  0.4873
 4385TIP3    H134646   0.950   1.071   0.574  2.1780 -0.6400  1.8254
 4385TIP3    H234647   0.855   0.953   0.563 -0.1174  1.3207 -0.7605
 4386TIP3   OH234648   1.084   3.547  12.525  0.0067  0.5288 -0.0706
 4386TIP3    H134649   1.104   3.616  12.588 -1.0438  0.3955  0.4284
 4386TIP3    H234650   1.039   3.592  12.454  1.7043  0.7805 -1.0613
 4387TIP3   OH234651   1.298   1.701  14.708 -0.3058 -0.1917  0.2376
 4387TIP3    H134652   1.391   1.689  14.724 -0.1704  1.5238  0.8784
 4387TIP3    H234653   1.291   1.725  14.616 -0.0886  0.0197  0.2776
 4388TIP3   OH234654   0.056   0.432   5.688  0.3550  0.0545 -0.7467
 4388TIP3    H134655   0.124   0.368   5.671 -0.9289 -0.9486 -2.3071
 4388TIP3    H234656  -0.016   0.408   5.631 -0.8175  1.9042 -0.1624
 4389TIP3   OH234657   2.671   6.502   0.978 -0.6954 -0.0930  0.2747
 4389TIP3    H134658   2.689   6.448   1.055 -1.2182 -1.2977 -0.4200
 4389TIP3    H234659   2.623   6.444   0.919 -1.7793  1.3031 -0.2756
 4390TIP3   OH234660   1.018   2.294  13.795 -0.3883  0.2587  0.3607
 4390TIP3    H134661   1.083   2.365  13.795 -1.0901  0.9664  2.2404
 4390TIP3    H234662   1.070   2.214  13.791  0.6080  0.8264  1.2097
 4391TIP3   OH234663   4.806   3.272   2.923 -0.2505 -0.0653  0.6278
 4391TIP3    H134664   4.799   3.208   2.993  1.4034  0.5891  1.4625
 4391TIP3    H234665   4.717   3.306   2.912 -0.4229  0.4149  3.0233
 4392TIP3   OH234666   6.520   1.070   1.102  0.0532 -0.3768 -0.5248
 4392TIP3    H134667   6.576   1.000   1.068 -1.8419 -1.3390 -1.8104
 4392TIP3    H234668   6.581   1.135   1.137  2.0906 -0.2930 -3.8617
 4393TIP3   OH234669   3.810   2.322   3.261 -0.8515 -0.1464  0.4386
 4393TIP3    H134670   3.729   2.298   3.305 -0.9994  0.7824  0.6889
 4393TIP3    H234671   3.816   2.417   3.271 -1.1792  0.1890 -2.0584
 4394TIP3   OH234672   6.424   5.878   1.490 -0.5018  0.2075  0.0671
 4394TIP3    H134673   6.456   5.965   1.469 -0.9597  0.1456 -0.9523
 4394TIP3    H234674   6.447   5.865   1.582  0.5105  0.9754 -0.0672
 4395TIP3   OH234675   0.373   1.560   0.496  0.4219 -0.4232 -0.4828
 4395TIP3    H134676   0.283   1.586   0.477  0.1351  0.0025  1.2742
 4395TIP3    H234677   0.382   1.473   0.457 -1.2822 -1.1676  0.6618
 4396TIP3   OH234678   2.278   2.046   3.804  0.2139  0.1482 -0.1172
 4396TIP3    H134679   2.227   2.004   3.735 -0.1616  1.4921 -0.6776
 4396TIP3    H234680   2.346   1.982   3.825 -0.3608 -0.7519 -0.9151
 4397TIP3   OH234681   3.962   5.112   0.104  0.2304  0.0944  0.0164
 4397TIP3    H134682   3.916   5.190   0.135  0.7822 -0.2932  1.9894
 4397TIP3    H234683   3.895   5.061   0.059 -0.5498  0.8961  0.2347
 4398TIP3   OH234684   5.775   5.208   1.309  0.3198 -0.1797  0.0129
 4398TIP3    H134685   5.766   5.129   1.362 -1.5459  0.2444  0.3830
 4398TIP3    H234686   5.752   5.180   1.220 -1.9949  0.2291  0.4185
 4399TIP3   OH234687   2.259   4.494   2.378  0.3620  0.0387 -0.0825
 4399TIP3    H134688   2.320   4.565   2.400  0.4559  0.0582 -0.3996
 4399TIP3    H234689   2.269   4.431   2.450  1.4709 -0.4120 -0.6103
 4400TIP3   OH234690   2.528   5.655  10.999  0.0364  0.0672  0.1217
 4400TIP3    H134691   2.466   5.721  11.029 -0.6119 -0.1482 -0.7366
 4400TIP3    H234692   2.478   5.574  10.995  0.2372 -0.0092 -1.0616
 4401TIP3   OH234693   6.190   0.783   5.510  0.0562 -0.0361  0.1490
 4401TIP3    H134694   6.100   0.762   5.537 -0.8181 -2.2380 -3.6591
 4401TIP3    H234695   6.240   0.704   5.527 -0.0477 -0.7209 -2.3296
 4402TIP3   OH234696   2.888   5.684   2.331  0.0818 -0.4331 -0.2556
 4402TIP3    H134697   2.957   5.719   2.387 -1.0800  0.5189  0.6400
 4402TIP3    H234698   2.931   5.616   2.279  1.3854 -0.7543  1.1740
 4403TIP3   OH234699   5.165   4.116  13.297 -0.4365 -0.1038  0.4403
 4403TIP3    H134700   5.128   4.029  13.310 -2.4775  0.5218 -0.6449
 4403TIP3    H234701   5.236   4.102  13.234  0.7590 -1.2409  1.9655
 4404TIP3   OH234702   4.692   0.063   5.725  0.0396 -0.5584  0.1998
 4404TIP3    H134703   4.685   0.025   5.638  0.8249  1.2408 -0.6791
 4404TIP3    H234704   4.780   0.040   5.754  0.7238  0.9951 -0.5645
 4405TIP3   OH234705   4.508   1.579   5.433 -0.5716  0.1260  0.5665
 4405TIP3    H134706   4.416   1.561   5.412  0.0497 -1.1592 -1.3131
 4405TIP3    H234707   4.509   1.590   5.528 -2.2886 -2.3660  0.9735
 4406TIP3   OH234708   1.661   3.811   1.891 -0.1900  0.6234  0.4217
 4406TIP3    H134709   1.596   3.860   1.841  0.0391  0.0359 -0.4752
 4406TIP3    H234710   1.742   3.817   1.839  0.0102 -0.1294  0.6250
 4407TIP3   OH234711   4.407   5.939  15.221 -0.1658 -0.2396 -0.1592
 4407TIP3    H134712   4.383   6.031  15.224 -2.6482 -0.8271  0.0363
 4407TIP3    H234713   4.500   5.937  15.246 -0.0809  2.1616 -0.1239
 4408TIP3   OH234714   2.224   1.344  11.804  0.4751  0.1489  0.1909
 4408TIP3    H134715   2.273   1.317  11.882 -0.2678 -0.2862  0.5251
 4408TIP3    H234716   2.290   1.351  11.735  1.2217  1.0288  0.9730
 4409TIP3   OH234717   4.330   6.076   0.322 -0.1509  0.4491  0.2536
 4409TIP3    H134718   4.348   5.982   0.332 -0.2336  0.5283  1.2783
 4409TIP3    H234719   4.290   6.084   0.236 -1.3846 -0.6672  0.6817
 4410TIP3   OH234720   6.195   2.237  16.183 -0.1601  1.2123 -0.2745
 4410TIP3    H134721   6.169   2.329  16.182  0.7665  1.4909  0.4470
 4410TIP3    H234722   6.271   2.234  16.125  0.0925  0.9861  0.0703
 4411TIP3   OH234723   2.257   0.190  11.202  0.6012 -0.0527  0.1297
 4411TIP3    H134724   2.254   0.220  11.111 -1.9383  2.0349  0.7799
 4411TIP3    H234725   2.333   0.235  11.239  1.7291 -1.0182 -0.9437
 4412TIP3   OH234726   5.878   4.330   1.533  0.1146  0.3543  0.5222
 4412TIP3    H134727   5.831   4.396   1.584  0.6064  0.4191  0.8987
 4412TIP3    H234728   5.865   4.249   1.581 -0.9498  0.0558 -0.2325
 4413TIP3   OH234729   0.337   4.323   6.150 -0.4342 -0.1390 -0.0410
 4413TIP3    H134730   0.390   4.316   6.071  0.1535  1.0337  0.2223
 4413TIP3    H234731   0.401   4.322   6.222 -0.9644 -1.3538  0.4537
 4414TIP3   OH234732   2.006   2.120   1.918  0.5974  0.2402  0.0318
 4414TIP3    H134733   2.043   2.196   1.963 -0.1624  0.3677  0.4496
 4414TIP3    H234734   1.985   2.058   1.988 -2.7865  1.3631  0.1937
 4415TIP3   OH234735   2.029   2.662  13.687  0.1026  0.7219  0.1929
 4415TIP3    H134736   2.110   2.646  13.638  0.1759  0.3514  0.4345
 4415TIP3    H234737   2.058   2.681  13.776 -0.1416 -1.3578  0.7795
 4416TIP3   OH234738   2.413   0.857   4.087 -0.4115  0.1162 -0.0181
 4416TIP3    H134739   2.380   0.946   4.098  0.0747  0.0865  2.0463
 4416TIP3    H234740   2.508   0.867   4.076 -0.2372 -0.1688  1.1133
 4417TIP3   OH234741   2.188   2.237   0.737  0.1252 -0.1707  0.6423
 4417TIP3    H134742   2.182   2.321   0.783 -1.4006  1.3941 -2.1037
 4417TIP3    H234743   2.277   2.235   0.703  0.7808 -0.6312  2.2984
 4418TIP3   OH234744   4.810   2.574   4.750  0.0717  0.1351  0.5453
 4418TIP3    H134745   4.747   2.638   4.716  0.6024 -0.3984 -1.5689
 4418TIP3    H234746   4.878   2.628   4.792 -1.2028  0.7604  1.8948
 4419TIP3   OH234747   2.088   1.956  12.654 -0.0087 -0.1373 -0.7351
 4419TIP3    H134748   2.175   1.920  12.671 -1.1258 -2.4560  0.6533
 4419TIP3    H234749   2.055   1.980  12.741  0.0051  2.8566 -1.4528
 4420TIP3   OH234750   1.727   1.147   4.886 -0.9316  0.1786  0.1287
 4420TIP3    H134751   1.633   1.147   4.905 -1.0637 -0.3609 -0.4946
 4420TIP3    H234752   1.763   1.078   4.942 -1.0160 -0.0806 -0.1346
 4421TIP3   OH234753   1.156   4.716   3.425 -0.0286  0.2998  0.0506
 4421TIP3    H134754   1.203   4.698   3.506 -0.1449  0.8448  0.2429
 4421TIP3    H234755   1.218   4.767   3.372  0.7008 -1.5192 -0.9306
 4422TIP3   OH234756   2.836   3.257   2.558 -0.2257  0.6810 -0.8996
 4422TIP3    H134757   2.877   3.288   2.478 -0.7299  2.8256 -0.3833
 4422TIP3    H234758   2.897   3.280   2.628 -0.2295 -0.2924 -0.5598
 4423TIP3   OH234759   6.134   0.007  13.256 -0.1272  0.0778  0.2116
 4423TIP3    H134760   6.221  -0.023  13.230 -0.0779 -0.0155  0.4887
 4423TIP3    H234761   6.090   0.027  13.173  0.2039  0.2542  0.0772
 4424TIP3   OH234762   3.359   6.000   0.310  0.0749  0.4435 -0.4649
 4424TIP3    H134763   3.337   5.949   0.232 -0.1451  0.2624 -0.2865
 4424TIP3    H234764   3.397   6.081   0.276 -0.2256  0.4604 -0.7629
 4425TIP3   OH234765   0.091   1.001   1.529  0.1853  0.0936  0.6973
 4425TIP3    H134766   0.128   1.062   1.465  0.1105  1.0059  1.4957
 4425TIP3    H234767   0.154   0.930   1.534  1.7594  1.4917  1.8543
 4426TIP3   OH234768   6.228   1.194  12.934 -0.1125  0.2284 -0.3680
 4426TIP3    H134769   6.280   1.113  12.931 -0.2533 -0.0898  2.8964
 4426TIP3    H234770   6.290   1.262  12.907  1.2454 -0.4970  0.7343
 4427TIP3   OH234771   0.202   2.963  12.485  0.1516  0.9169  0.0252
 4427TIP3    H134772   0.150   2.884  12.494  0.0905  1.0963  1.5584
 4427TIP3    H234773   0.161   3.011  12.413  0.0742 -0.3279 -0.8007
 4428TIP3   OH234774   4.678   0.456   1.064  0.2634 -0.0687 -0.6294
 4428TIP3    H134775   4.625   0.399   1.008 -0.4968  0.2173 -0.2089
 4428TIP3    H234776   4.715   0.397   1.129 -0.4955 -0.0920 -0.2160
 4429TIP3   OH234777   2.643   1.870  17.273  0.1104 -0.8588  0.0146
 4429TIP3    H134778   2.645   1.965  17.257  0.6869 -1.3752 -4.2919
 4429TIP3    H234779   2.577   1.859  17.341  0.4125  2.6232  1.1115
 4430TIP3   OH234780   6.087   5.489   3.118  0.3512 -0.2040  0.2697
 4430TIP3    H134781   6.015   5.550   3.102  0.2552 -0.3295  0.2193
 4430TIP3    H234782   6.058   5.407   3.078  1.9045  0.5783 -2.6981
 4431TIP3   OH234783   4.100   6.462   4.143  0.0720 -0.0845  0.4332
 4431TIP3    H134784   4.012   6.474   4.179 -0.1247  1.2742 -0.4096
 4431TIP3    H234785   4.096   6.503   4.056  0.3277 -3.7189 -1.5260
 4432TIP3   OH234786   4.034   5.486   0.131  0.2975  0.0461 -0.7081
 4432TIP3    H134787   4.044   5.412   0.191 -1.4273 -0.6519 -1.2379
 4432TIP3    H234788   4.123   5.523   0.123  0.9820 -1.3028  0.3896
 4433TIP3   OH234789   5.906   3.676  11.757  0.4103 -0.1175 -0.1248
 4433TIP3    H134790   5.976   3.737  11.778 -1.0467  1.8715 -0.7800
 4433TIP3    H234791   5.851   3.674  11.835 -0.4304  0.7395 -0.6644
 4434TIP3   OH234792   6.128   3.067   0.197  0.1500  0.6717  0.6851
 4434TIP3    H134793   6.186   3.116   0.139  1.7694 -0.7780  0.9753
 4434TIP3    H234794   6.187   3.023   0.259 -0.9270 -3.1355 -0.6999
 4435TIP3   OH234795   3.806   3.978  12.940  0.2498 -0.4355  0.1403
 4435TIP3    H134796   3.807   3.883  12.955  1.0664 -0.1750  2.0157
 4435TIP3    H234797   3.873   3.992  12.873  0.1640 -1.1739 -0.1086
 4436TIP3   OH234798   1.470   4.304   0.602  0.2987  0.0380  0.2781
 4436TIP3    H134799   1.423   4.387   0.614 -1.0798 -0.6693 -0.0610
 4436TIP3    H234800   1.404   4.236   0.616  0.8192 -0.9689 -1.7404
 4437TIP3   OH234801   5.303   1.838   1.097 -0.3351 -1.0396 -0.2845
 4437TIP3    H134802   5.362   1.828   1.022  0.2063  0.6709 -0.1189
 4437TIP3    H234803   5.231   1.890   1.063 -0.5183 -1.0006  0.1720
 4438TIP3   OH234804   5.096   0.278  13.734  0.7548 -0.4535  0.3289
 4438TIP3    H134805   5.171   0.232  13.697  0.8079  0.4466 -0.7450
 4438TIP3    H234806   5.051   0.213  13.787  1.5892 -1.3461 -0.0388
 4439TIP3   OH234807   0.699   4.499   5.047 -0.1100  0.2886 -0.5551
 4439TIP3    H134808   0.682   4.592   5.065 -1.2336 -0.0028 -0.0016
 4439TIP3    H234809   0.675   4.487   4.955  0.4110  0.6231 -0.7380
 4440TIP3   OH234810   1.341   6.155  14.343 -0.6137 -0.2786 -0.5989
 4440TIP3    H134811   1.289   6.228  14.310 -0.8897 -0.8065 -1.3357
 4440TIP3    H234812   1.281   6.081  14.345 -0.6232 -0.2617  1.1569
 4441TIP3   OH234813   4.043   0.257  15.198  0.6651  0.3817 -0.3207
 4441TIP3    H134814   4.108   0.220  15.139 -0.4823 -0.2064 -1.2573
 4441TIP3    H234815   4.084   0.254  15.285  1.3994 -1.1296 -0.7017
 4442TIP3   OH234816   0.449   3.007  11.431 -0.7278 -0.2234 -0.2519
 4442TIP3    H134817   0.376   2.951  11.459 -0.4973 -0.3584  0.0933
 4442TIP3    H234818   0.523   2.946  11.420 -0.7548 -0.1395 -0.9473
 4443TIP3   OH234819   3.957   5.982  12.203 -0.3365  0.0720 -0.3214
 4443TIP3    H134820   3.902   6.037  12.259  0.9526 -0.5107  1.6487
 4443TIP3    H234821   3.898   5.914  12.170 -1.0838  0.2386  0.6330
 4444TIP3   OH234822   3.717   6.044  14.767 -0.9972 -0.2777  0.3201
 4444TIP3    H134823   3.784   6.032  14.835  0.3127  0.1009 -0.8462
 4444TIP3    H234824   3.693   6.136  14.773 -2.2685 -0.6426  1.4489
 4445TIP3   OH234825   6.688   4.841  11.836  0.5623 -0.3775 -0.7964
 4445TIP3    H134826   6.764   4.844  11.777 -0.0588  0.8271 -1.5898
 4445TIP3    H234827   6.683   4.929  11.873  0.5930 -0.9601  0.6457
 4446TIP3   OH234828   4.156   1.619  14.981 -0.7647  0.3300 -0.5837
 4446TIP3    H134829   4.225   1.632  14.915 -0.5268  3.0284  0.0531
 4446TIP3    H234830   4.187   1.668  15.057 -2.3452 -0.3597  0.5448
 4447TIP3   OH234831   6.048   3.548   0.653 -0.1097 -0.1305  0.0196
 4447TIP3    H134832   6.074   3.493   0.727  1.8083 -0.9202 -1.1678
 4447TIP3    H234833   5.959   3.520   0.632  0.6760 -2.5724 -0.3187
 4448TIP3   OH234834   4.150   5.141  11.933  0.4142 -0.2616  0.1928
 4448TIP3    H134835   4.229   5.167  11.886  0.4310 -1.1234 -0.2679
 4448TIP3    H234836   4.088   5.117  11.864  0.4361 -1.5214  0.6039
 4449TIP3   OH234837   3.047   2.657   2.841 -0.0937  0.5007 -0.1030
 4449TIP3    H134838   3.137   2.686   2.853  0.4630 -1.4992  1.1002
 4449TIP3    H234839   3.034   2.589   2.908 -1.2384 -1.9975 -2.6313
 4450TIP3   OH234840   4.662   4.704  11.525  0.0724 -0.3514  0.0667
 4450TIP3    H134841   4.580   4.752  11.533 -0.2719 -0.6394 -1.3690
 4450TIP3    H234842   4.729   4.771  11.518 -0.2443 -0.0843 -0.4687
 4451TIP3   OH234843   0.760   3.482  12.400 -0.3333 -0.0783  0.0348
 4451TIP3    H134844   0.759   3.577  12.390 -1.3967  0.0171  0.8336
 4451TIP3    H234845   0.768   3.468  12.495  2.2623 -0.8344 -0.2165
 4452TIP3   OH234846   2.798   0.799  15.680  0.4421 -0.3373  0.0693
 4452TIP3    H134847   2.838   0.828  15.762  0.6844  3.1292 -1.1058
 4452TIP3    H234848   2.840   0.852  15.612  0.2757 -3.0608 -2.3966
 4453TIP3   OH234849   5.586   3.156  12.179  0.9327  0.2356  0.0233
 4453TIP3    H134850   5.679   3.178  12.179  1.2162 -0.8001  1.4620
 4453TIP3    H234851   5.574   3.103  12.258 -0.5718 -0.9150 -0.9187
 4454TIP3   OH234852   4.536   6.711  13.946 -0.1714 -0.2676  0.4563
 4454TIP3    H134853   4.538   6.802  13.976  0.0345 -0.3454  0.6834
 4454TIP3    H234854   4.452   6.678  13.977 -0.2759 -0.1360  0.3155
 4455TIP3   OH234855   3.297   3.823  11.726 -0.2708  0.6322  0.1948
 4455TIP3    H134856   3.289   3.794  11.635  0.5245  2.2535 -0.4349
 4455TIP3    H234857   3.381   3.787  11.755  0.4615  1.7779 -0.4130
 4456TIP3   OH234858   3.025   1.541  16.098  0.1069  0.3609  0.1436
 4456TIP3    H134859   2.985   1.540  16.011 -0.8844 -0.1410  0.5901
 4456TIP3    H234860   2.966   1.489  16.152  0.5637  0.8986  1.1872
 4457TIP3   OH234861   5.912   0.466   0.394 -0.0805  0.3619 -0.0378
 4457TIP3    H134862   5.876   0.543   0.350  0.1497  0.6487  0.2695
 4457TIP3    H234863   5.902   0.484   0.487 -0.1735 -0.0529  0.0347
 4458TIP3   OH234864   1.622   6.031   0.855 -0.2315  0.3695  0.6708
 4458TIP3    H134865   1.617   6.017   0.761  1.1886  1.7820  0.3297
 4458TIP3    H234866   1.685   5.966   0.886 -1.4330 -0.7523  0.8436
 4459TIP3   OH234867   2.320   6.057  16.957  0.2305  0.4483  0.4266
 4459TIP3    H134868   2.281   6.145  16.957  2.5317  1.5258  0.9101
 4459TIP3    H234869   2.411   6.070  16.931  0.8036 -1.7172  1.0925
 4460TIP3   OH234870   1.206   5.025  11.618 -0.2160 -0.0913  0.0804
 4460TIP3    H134871   1.219   5.114  11.585 -0.1145 -0.1665 -0.0839
 4460TIP3    H234872   1.134   4.991  11.566 -0.6330  0.0887  0.5261
 4461TIP3   OH234873   4.414   0.466  13.526 -0.0812  0.0033 -0.1805
 4461TIP3    H134874   4.469   0.457  13.448  1.0775  1.8041  0.3775
 4461TIP3    H234875   4.467   0.432  13.597 -0.0129  0.9723  0.2403
 4462TIP3   OH234876   2.302   3.527  11.912 -0.7453 -0.3104 -0.4929
 4462TIP3    H134877   2.294   3.461  11.842 -1.8086 -0.2262 -0.4706
 4462TIP3    H234878   2.375   3.496  11.965 -1.1903 -1.4588 -0.5115
 4463TIP3   OH234879   5.660   4.106   1.889  0.5611 -0.1690 -0.1746
 4463TIP3    H134880   5.617   4.167   1.949  0.9814  0.8590 -0.9079
 4463TIP3    H234881   5.738   4.076   1.937  1.0269  0.8373 -0.2919
 4464TIP3   OH234882   3.848   0.864   3.751  0.1189 -0.0262  0.5638
 4464TIP3    H134883   3.801   0.945   3.768 -2.5045 -1.4061  0.3409
 4464TIP3    H234884   3.874   0.871   3.659 -1.6410 -0.1104  0.0183
 4465TIP3   OH234885   3.285   2.423   0.861 -0.4159 -0.1143 -0.0755
 4465TIP3    H134886   3.354   2.479   0.896 -0.7773  0.3770 -0.1300
 4465TIP3    H234887   3.203   2.465   0.889 -0.6909 -1.1515  0.6961
 4466TIP3   OH234888   1.051   1.260   0.809  0.0984 -0.0248 -0.2548
 4466TIP3    H134889   1.071   1.227   0.722 -2.6116  1.8981 -1.7390
 4466TIP3    H234890   0.998   1.190   0.849  1.7887 -1.1401  0.1635
 4467TIP3   OH234891   4.734   2.532   6.523  0.7249  0.0229  0.0561
 4467TIP3    H134892   4.677   2.545   6.599 -0.8169 -0.7219 -0.9277
 4467TIP3    H234893   4.747   2.437   6.520  1.0064  0.0783 -0.4553
 4468TIP3   OH234894   2.529   2.313   3.445  0.4911  0.3217 -0.3117
 4468TIP3    H134895   2.544   2.398   3.486  2.1348 -0.4030  0.7264
 4468TIP3    H234896   2.606   2.300   3.389  0.4027 -0.5986 -0.2322
 4469TIP3   OH234897   5.492   6.664   4.005  0.3127  0.6975 -0.3418
 4469TIP3    H134898   5.411   6.690   3.962 -1.1773  0.0411  1.8952
 4469TIP3    H234899   5.484   6.570   4.017  0.2229  0.9605  2.0815
 4470TIP3   OH234900   6.675   2.465  13.660  0.0425  0.3407 -0.5652
 4470TIP3    H134901   6.581   2.476  13.667  0.1544  1.7571 -0.8773
 4470TIP3    H234902   6.699   2.512  13.580  0.9933 -0.0889 -0.5543
 4471TIP3   OH234903   4.669   3.298  16.361 -0.1342 -0.4858 -0.0143
 4471TIP3    H134904   4.738   3.232  16.350  0.7893  0.5051 -0.4432
 4471TIP3    H234905   4.716   3.377  16.387 -1.2301 -0.0246  0.6199
 4472TIP3   OH234906   2.561   5.084  15.248 -0.0087 -0.6801 -0.5087
 4472TIP3    H134907   2.634   5.071  15.188 -0.2095 -1.9616 -0.5174
 4472TIP3    H234908   2.518   5.164  15.217 -1.5604 -2.5297 -3.6637
 4473TIP3   OH234909   0.769   5.335  13.296  0.2818  0.0603  0.2770
 4473TIP3    H134910   0.843   5.290  13.337  1.4438  2.4947  1.0237
 4473TIP3    H234911   0.807   5.384  13.223 -0.6776  0.9144  0.3158
 4474TIP3   OH234912   6.311   4.831   3.644  0.7179  0.2823  0.0714
 4474TIP3    H134913   6.352   4.845   3.729  1.7793  0.6691 -0.4946
 4474TIP3    H234914   6.290   4.738   3.643 -0.4165  0.4957  1.2278
 4475TIP3   OH234915   6.728   1.336   0.812  0.2339  0.1875  0.0569
 4475TIP3    H134916   6.785   1.321   0.888 -0.5791 -0.8147  0.4966
 4475TIP3    H234917   6.661   1.396   0.844  0.5377  0.6667 -0.2028
 4476TIP3   OH234918   1.300   4.703  15.385 -0.2158  0.1982  0.4589
 4476TIP3    H134919   1.338   4.763  15.450  0.0189 -0.4838  0.9642
 4476TIP3    H234920   1.232   4.656  15.434 -2.5687  2.1551 -0.6817
 4477TIP3   OH234921   2.561   2.512   4.571  0.4468 -0.3427 -0.0242
 4477TIP3    H134922   2.533   2.550   4.488 -0.9157  1.7334  1.2912
 4477TIP3    H234923   2.598   2.427   4.547 -2.0129 -0.8477 -2.4990
 4478TIP3   OH234924   2.950   1.147   2.964 -0.7031  0.0958  0.0222
 4478TIP3    H134925   2.914   1.214   2.906  0.7815  0.4234 -0.5807
 4478TIP3    H234926   3.029   1.187   3.000 -0.4634 -0.8859  0.6250
 4479TIP3   OH234927   6.767   2.596  12.120  0.3834  0.1722 -0.1890
 4479TIP3    H134928   6.730   2.514  12.152 -0.0121  0.6336  0.5588
 4479TIP3    H234929   6.847   2.609  12.172 -0.1679  0.8346  0.5234
 4480TIP3   OH234930   0.329   2.385  16.767  0.0352 -0.3007  0.1525
 4480TIP3    H134931   0.331   2.375  16.672 -0.5572 -1.1442  0.2157
 4480TIP3    H234932   0.271   2.460  16.782 -1.1344 -1.1335 -0.1052
 4481TIP3   OH234933   2.646   4.080  11.605  0.5064 -0.2791 -0.4535
 4481TIP3    H134934   2.693   4.120  11.532 -1.0598  1.4592 -0.5914
 4481TIP3    H234935   2.601   4.005  11.566  0.5488 -0.0012 -1.0457
 4482TIP3   OH234936   0.996   6.570   1.289  0.0031 -0.1101 -0.1795
 4482TIP3    H134937   0.973   6.577   1.381  0.1460  0.0061 -0.1516
 4482TIP3    H234938   1.088   6.595   1.285  0.1665 -0.6968 -0.2691
 4483TIP3   OH234939   5.428   4.032  13.261 -0.1037 -0.2228  0.0659
 4483TIP3    H134940   5.469   4.047  13.347  0.5531  0.4715 -0.3554
 4483TIP3    H234941   5.489   4.071  13.198 -1.1367  0.3498 -0.6235
 4484TIP3   OH234942   0.288   2.660   5.469 -0.9823  0.1476  0.3026
 4484TIP3    H134943   0.323   2.613   5.544  2.6659  1.8568 -0.1025
 4484TIP3    H234944   0.317   2.751   5.482 -0.3052  0.5303 -3.0334
 4485TIP3   OH234945   2.036   6.760   0.444 -0.0491 -0.4662  0.8942
 4485TIP3    H134946   2.125   6.753   0.411 -0.5093  2.5352 -1.4038
 4485TIP3    H234947   2.046   6.780   0.537  1.5172 -2.5555  1.2392
 4486TIP3   OH234948   2.664   4.412  17.195  0.3612 -0.6333 -0.0874
 4486TIP3    H134949   2.569   4.399  17.199  0.2713  0.1397  0.5483
 4486TIP3    H234950   2.686   4.398  17.103 -0.1228 -2.3586  0.0237
 4487TIP3   OH234951   0.346   3.580   1.567 -0.0670 -0.0100  0.0753
 4487TIP3    H134952   0.297   3.662   1.555 -1.2700 -0.7186  0.0254
 4487TIP3    H234953   0.280   3.511   1.559  1.0030 -1.0155 -0.3096
 4488TIP3   OH234954   5.685   3.505   3.069 -0.1807 -0.0364  0.4084
 4488TIP3    H134955   5.779   3.518   3.085 -0.5798  1.8344  1.4928
 4488TIP3    H234956   5.661   3.575   3.008 -0.7488 -0.9041 -0.3784
 4489TIP3   OH234957   2.908   6.600   3.833  0.2638  0.5345  0.0678
 4489TIP3    H134958   2.849   6.600   3.757 -0.3838 -0.9388  0.5386
 4489TIP3    H234959   2.934   6.508   3.843  0.2946  0.6858  1.6449
 4490TIP3   OH234960   0.914   2.701  13.276 -1.0105 -0.0264 -0.5033
 4490TIP3    H134961   0.828   2.730  13.303 -1.3796 -0.8297 -0.7672
 4490TIP3    H234962   0.922   2.728  13.185 -1.4649 -0.9424 -0.8332
 4491TIP3   OH234963   2.353   4.482   5.054  0.3730 -0.2054 -0.0261
 4491TIP3    H134964   2.398   4.478   5.138  3.0506 -0.7471 -1.3813
 4491TIP3    H234965   2.408   4.539   5.000 -2.2959  1.7591 -0.9224
 4492TIP3   OH234966   2.268   4.953   4.619 -0.4372  0.9732  0.3094
 4492TIP3    H134967   2.193   4.919   4.667 -1.2495 -0.5007 -1.8865
 4492TIP3    H234968   2.234   4.977   4.533  1.2866  1.8620 -0.1806
 4493TIP3   OH234969   0.065   3.024  13.180 -0.3270 -0.1459  0.5655
 4493TIP3    H134970   0.120   2.953  13.146  1.5544  1.8370 -0.8316
 4493TIP3    H234971  -0.025   2.993  13.166  0.4154 -1.7611 -1.1243
 4494TIP3   OH234972   6.227   6.033  12.010  0.0302 -0.0376  0.0265
 4494TIP3    H134973   6.138   6.021  12.043  0.8021 -1.2703  1.8435
 4494TIP3    H234974   6.255   6.117  12.048  0.2768 -0.5737  1.0765
 4495TIP3   OH234975   4.773   3.947   2.776 -0.1294 -0.0066  0.8501
 4495TIP3    H134976   4.680   3.967   2.769 -0.2825 -0.9793  0.0228
 4495TIP3    H234977   4.801   3.992   2.856 -1.1401  0.8870  0.7181
 4496TIP3   OH234978   2.399   2.398  10.379  0.0428  0.1809 -0.5476
 4496TIP3    H134979   2.395   2.400  10.475  0.7306  1.1373 -0.5247
 4496TIP3    H234980   2.310   2.374  10.352 -0.5528  1.3005  0.3003
 4497TIP3   OH234981   0.980   4.333  17.262  0.5844  0.1567  0.2972
 4497TIP3    H134982   0.906   4.283  17.228 -0.8269  1.2869  1.5789
 4497TIP3    H234983   1.027   4.271  17.318  1.7696 -1.1204 -1.9734
 4498TIP3   OH234984   0.629   3.331  16.862  0.3127  0.1669 -0.3765
 4498TIP3    H134985   0.609   3.238  16.858  0.8501  0.0621 -0.7873
 4498TIP3    H234986   0.642   3.350  16.955  0.2359 -0.1757 -0.2979
 4499TIP3   OH234987   0.683   3.904  12.627 -0.5181  0.6661 -0.5901
 4499TIP3    H134988   0.641   3.990  12.631  0.3040  1.0707 -0.4155
 4499TIP3    H234989   0.642   3.854  12.697 -1.0114  0.9049 -0.7002
 4500TIP3   OH234990   5.126   1.939  16.698 -0.4977 -0.0596 -0.2066
 4500TIP3    H134991   5.152   1.860  16.651  0.2623  0.5826 -0.8889
 4500TIP3    H234992   5.070   1.985  16.635 -1.0523 -0.1177  0.2421
 4501TIP3   OH234993   1.243   6.640   1.266 -0.5657 -0.4093  0.3399
 4501TIP3    H134994   1.296   6.611   1.192 -0.9459 -1.3298  0.4137
 4501TIP3    H234995   1.266   6.732   1.278 -0.5948 -0.2100 -1.0111
 4502TIP3   OH234996   1.972   3.653  14.121 -0.3576 -0.3374 -0.0334
 4502TIP3    H134997   2.034   3.582  14.137  2.5300  1.5035 -2.0782
 4502TIP3    H234998   1.961   3.695  14.206  1.9049 -0.2524  0.2754
 4503TIP3   OH234999   2.911   6.645  13.477  0.1385  0.1649 -0.0914
 4503TIP3    H135000   2.842   6.603  13.530  0.6270  0.3506  0.7176
 4503TIP3    H235001   2.879   6.734  13.465 -0.0362  0.0863 -0.2179
 4504TIP3   OH235002   2.329   5.990   2.641 -1.3062  0.1212 -0.0661
 4504TIP3    H135003   2.245   5.992   2.686 -1.3110 -1.7915  0.0659
 4504TIP3    H235004   2.312   5.942   2.560 -0.1317 -1.2858  0.4833
 4505TIP3   OH235005   1.337   0.144   1.938 -0.1394 -0.5101  0.4110
 4505TIP3    H135006   1.303   0.216   1.990 -3.4786 -0.8051 -1.1098
 4505TIP3    H235007   1.277   0.137   1.864  0.7894 -4.0151 -0.2015
 4506TIP3   OH235008   0.551   3.044   0.904 -0.2858  0.2400 -0.1982
 4506TIP3    H135009   0.555   2.950   0.887 -2.4673 -0.3092  1.8408
 4506TIP3    H235010   0.589   3.055   0.991 -1.1876  1.0510  0.1137
 4507TIP3   OH235011   5.636   5.167  15.970 -0.2297 -0.3040  0.0410
 4507TIP3    H135012   5.591   5.188  16.051  1.8267 -0.6317  1.3580
 4507TIP3    H235013   5.687   5.245  15.950 -0.5043 -0.3274 -0.8004
 4508TIP3   OH235014   2.777   2.212  11.363 -0.2598  0.8513 -0.0835
 4508TIP3    H135015   2.717   2.229  11.290 -0.1291  1.3815 -0.0691
 4508TIP3    H235016   2.764   2.119  11.383  0.3323  0.4666 -1.3455
 4509TIP3   OH235017   0.167   1.023  16.150 -0.1047  0.2561  0.7333
 4509TIP3    H135018   0.121   1.028  16.066  0.0032 -0.5106  0.6265
 4509TIP3    H235019   0.254   1.058  16.132 -0.3303  0.8243  0.7168
 4510TIP3   OH235020   4.203   3.897  12.589 -1.0003 -0.1632 -0.2581
 4510TIP3    H135021   4.202   3.973  12.530 -0.3952  0.5380  0.6046
 4510TIP3    H235022   4.147   3.923  12.662 -0.1405 -0.2050  0.4400
 4511TIP3   OH235023   6.599   2.557  16.101 -0.3261  0.1282  0.0783
 4511TIP3    H135024   6.543   2.602  16.164 -0.1151 -0.1689  0.4817
 4511TIP3    H235025   6.637   2.628  16.048 -1.3476  0.3109 -0.4329
 4512TIP3   OH235026   6.391   0.655  16.189 -0.4552  0.0486 -0.4191
 4512TIP3    H135027   6.344   0.724  16.237  1.2134  0.9675 -0.0358
 4512TIP3    H235028   6.458   0.702  16.139  0.2030 -1.2351 -0.7781
 4513TIP3   OH235029   2.664   5.131  14.325 -0.0785 -0.0665 -0.1343
 4513TIP3    H135030   2.755   5.110  14.346  0.0027 -0.4915 -0.8765
 4513TIP3    H235031   2.655   5.111  14.232 -0.7971  0.4561 -0.1925
 4514TIP3   OH235032   5.111   4.208   2.716  0.0870 -0.0373  0.0404
 4514TIP3    H135033   5.126   4.248   2.802 -0.5568  0.5743 -0.1159
 4514TIP3    H235034   5.086   4.282   2.660 -2.2953 -0.7612  0.0314
 4515TIP3   OH235035   2.425   5.758   0.747  0.1745  1.0014 -0.3804
 4515TIP3    H135036   2.516   5.730   0.738 -0.4792 -1.4645 -0.2042
 4515TIP3    H235037   2.379   5.711   0.678 -1.1810  0.9976  0.4892
 4516TIP3   OH235038   4.606   6.783  16.125  0.1931 -0.1920 -0.2204
 4516TIP3    H135039   4.656   6.707  16.153  1.1804  0.0240 -1.3473
 4516TIP3    H235040   4.670   6.853  16.115 -0.7571  0.9637  1.2731
 4517TIP3   OH235041   0.536   3.332   2.819 -0.4198 -0.0274 -0.0964
 4517TIP3    H135042   0.467   3.327   2.884 -0.4994  1.8602  0.0096
 4517TIP3    H235043   0.583   3.249   2.828 -2.5204 -1.2888 -0.0648
 4518TIP3   OH235044   0.333   5.844  14.974  0.0857  0.3498  0.5167
 4518TIP3    H135045   0.238   5.836  14.988  0.3026 -1.5229  1.2305
 4518TIP3    H235046   0.364   5.894  15.049 -0.7040  4.2267 -1.4929
 4519TIP3   OH235047   0.953   0.064  12.486  0.5725 -0.2840 -0.0762
 4519TIP3    H135048   0.909   0.117  12.420 -0.6148 -2.5674 -1.2570
 4519TIP3    H235049   0.899   0.073  12.565 -0.5074 -0.9178 -0.7218
 4520TIP3   OH235050   1.445   0.274  13.213  0.1310  0.0785 -0.0906
 4520TIP3    H135051   1.389   0.199  13.197  0.5059 -0.1516 -0.3403
 4520TIP3    H235052   1.453   0.318  13.128 -1.4832  1.4050  0.3818
 4521TIP3   OH235053   4.644   2.770   0.459  0.1393 -0.1417 -0.4747
 4521TIP3    H135054   4.590   2.839   0.421  0.6782  0.4654 -0.1580
 4521TIP3    H235055   4.733   2.790   0.430  0.3828 -0.3677  0.1032
 4522TIP3   OH235056   6.505   6.519  16.118 -0.2328 -0.2192  0.1491
 4522TIP3    H135057   6.500   6.546  16.210 -1.0848  0.1919 -0.0017
 4522TIP3    H235058   6.562   6.583  16.077  0.0886 -0.3596  0.3736
 4523TIP3   OH235059   5.179   5.863  11.799 -0.4083  0.0666  0.0469
 4523TIP3    H135060   5.195   5.836  11.890 -1.6577 -0.5924  0.1001
 4523TIP3    H235061   5.120   5.938  11.806  0.8487  1.1174 -0.1961
 4524TIP3   OH235062   3.709   4.813  11.008  0.6519 -0.3359  0.0928
 4524TIP3    H135063   3.698   4.817  11.103  0.8144  0.1163  0.0980
 4524TIP3    H235064   3.774   4.744  10.994 -1.5023 -2.4641  0.1084
 4525TIP3   OH235065   3.644   3.850   3.102 -0.1404  0.2034  0.3490
 4525TIP3    H135066   3.714   3.872   3.163 -0.6487 -1.0018  1.4137
 4525TIP3    H235067   3.577   3.917   3.116  0.3535  0.7558  0.0762
 4526TIP3   OH235068   0.946   5.265   2.480  0.3538  0.1302 -0.4625
 4526TIP3    H135069   0.983   5.331   2.538 -0.2799  1.1753 -1.1979
 4526TIP3    H235070   0.871   5.308   2.440  1.5843 -0.0184 -3.1407
 4527TIP3   OH235071   3.451   1.512   0.982 -0.3065  0.8580  0.5222
 4527TIP3    H135072   3.497   1.479   1.059  0.7874 -1.2970 -0.9510
 4527TIP3    H235073   3.499   1.475   0.908 -4.0339 -1.1329 -1.1760
 4528TIP3   OH235074   2.498   6.125   2.214 -0.5411  0.2700 -0.3783
 4528TIP3    H135075   2.590   6.151   2.209 -0.8654  1.3114 -2.1614
 4528TIP3    H235076   2.473   6.139   2.305  0.4957  2.1245 -0.3378
 4529TIP3   OH235077   1.056   3.907   0.503  0.1233 -0.3763  0.0981
 4529TIP3    H135078   1.084   3.929   0.415  1.8141  0.1575  0.7376
 4529TIP3    H235079   0.993   3.975   0.527  2.5983  1.8628  0.7149
 4530TIP3   OH235080   1.009   3.209   0.946  0.1520  0.3565 -0.4663
 4530TIP3    H135081   0.943   3.184   0.881  0.1432  0.9691 -0.6948
 4530TIP3    H235082   1.085   3.155   0.925 -0.0347  0.1615 -0.6460
 4531TIP3   OH235083   1.457   6.007  15.867  0.6273  0.4303  0.2474
 4531TIP3    H135084   1.447   6.094  15.827  0.5202  1.1642  1.7906
 4531TIP3    H235085   1.550   6.002  15.890  0.9513 -0.4994 -1.1744
 4532TIP3   OH235086   6.047   5.242  13.261  0.7188  0.6688 -0.6363
 4532TIP3    H135087   5.957   5.214  13.277  1.7640 -2.5610  0.4487
 4532TIP3    H235088   6.052   5.330  13.300 -1.2239 -0.2779  2.0654
 4533TIP3   OH235089   1.743   3.023  16.774 -0.2936  0.2452  0.5671
 4533TIP3    H135090   1.804   3.043  16.845 -0.3065 -0.9528  0.9320
 4533TIP3    H235091   1.788   2.958  16.721 -1.7011 -1.6656  1.5702
 4534TIP3   OH235092   5.080   5.159   5.070 -0.6452 -0.3542  0.4121
 4534TIP3    H135093   5.176   5.154   5.073 -0.5401  1.0481  3.0461
 4534TIP3    H235094   5.051   5.109   5.147 -1.8626  0.8858  0.8100
 4535TIP3   OH235095   3.771   0.654   4.127  0.2036 -0.0768 -0.5978
 4535TIP3    H135096   3.811   0.711   4.062  0.7376  0.0648 -0.1464
 4535TIP3    H235097   3.707   0.709   4.171 -1.1268 -0.5254 -1.8855
 4536TIP3   OH235098   1.093   5.757  11.805  0.2196 -0.4758 -1.1378
 4536TIP3    H135099   1.020   5.702  11.778  0.4356  0.0222 -2.8691
 4536TIP3    H235100   1.053   5.838  11.838 -0.0711 -1.3384  0.7857
 4537TIP3   OH235101   4.213   3.125  14.343  0.5370 -0.4162 -0.0268
 4537TIP3    H135102   4.184   3.216  14.335  1.6629 -0.0418 -0.0902
 4537TIP3    H235103   4.199   3.088  14.256 -0.2056 -0.3963  0.0789
 4538TIP3   OH235104   6.463   2.923   6.347 -0.0780 -0.2195  0.5234
 4538TIP3    H135105   6.370   2.944   6.355  0.2820  1.6300  0.3689
 4538TIP3    H235106   6.471   2.833   6.380 -1.7113  0.0422  1.7171
 4539TIP3   OH235107   3.944   5.151   6.035  0.0289  0.2364  0.7267
 4539TIP3    H135108   3.882   5.125   6.103 -2.2886  1.2212 -0.8887
 4539TIP3    H235109   3.939   5.247   6.032  1.1690  0.3023  0.1045
 4540TIP3   OH235110   4.989   5.819  12.208  0.5225  0.1617  0.1874
 4540TIP3    H135111   4.907   5.854  12.175  1.3130  1.3374 -0.5741
 4540TIP3    H235112   4.994   5.851  12.298 -0.2195 -0.5878  0.5110
 4541TIP3   OH235113   0.395   6.149   2.752  0.7980  0.1994 -0.2925
 4541TIP3    H135114   0.381   6.085   2.822  1.5296  0.3277 -0.0206
 4541TIP3    H235115   0.372   6.101   2.672  1.2401 -0.3853 -0.0838
 4542TIP3   OH235116   0.487   3.927   1.847  0.2246  0.1826 -0.2331
 4542TIP3    H135117   0.566   3.934   1.901  1.7364 -0.9555 -2.1880
 4542TIP3    H235118   0.485   3.836   1.818 -0.7128  0.6571 -1.7918
 4543TIP3   OH235119   4.152   0.511  13.605 -0.1158  0.9380 -0.3152
 4543TIP3    H135120   4.237   0.474  13.578  0.1854  0.7705  0.8281
 4543TIP3    H235121   4.159   0.521  13.700 -2.2444 -1.4395  0.2141
 4544TIP3   OH235122   4.288   5.873  16.674  0.1073  0.3126  0.5239
 4544TIP3    H135123   4.282   5.854  16.768  0.6559  1.1491  0.7410
 4544TIP3    H235124   4.321   5.963  16.670 -2.9859  1.5408 -0.4186
 4545TIP3   OH235125   3.107   0.210   1.783 -0.2336  0.1888 -0.5276
 4545TIP3    H135126   3.013   0.203   1.798 -0.3824 -1.1359 -1.8759
 4545TIP3    H235127   3.132   0.125   1.748  1.2344  0.9358 -1.3607
 4546TIP3   OH235128   4.175   5.805  13.348  0.6083 -0.2671 -0.4257
 4546TIP3    H135129   4.130   5.885  13.374 -1.1660 -1.3535  0.0109
 4546TIP3    H235130   4.117   5.766  13.282  1.6934 -0.9564 -0.9979
 4547TIP3   OH235131   6.198   0.276  13.093  0.3215  0.1685 -0.4885
 4547TIP3    H135132   6.248   0.354  13.068 -0.3836  0.9019  0.3456
 4547TIP3    H235133   6.254   0.203  13.067  2.4416  0.9534  1.5310
 4548TIP3   OH235134   2.430   4.731  14.383 -0.4670 -0.2097 -0.6568
 4548TIP3    H135135   2.402   4.811  14.426 -2.2343 -1.5889  0.9266
 4548TIP3    H235136   2.381   4.730  14.300  2.3468  2.0536 -2.5405
 4549TIP3   OH235137   2.614   1.092  11.812 -0.0558  0.4369 -0.9655
 4549TIP3    H135138   2.520   1.080  11.825  0.0802 -0.1353 -0.4461
 4549TIP3    H235139   2.635   1.039  11.735  0.1424 -0.9283 -0.0143
 4550TIP3   OH235140   1.415   2.059  16.638  0.5046  0.3830 -0.0834
 4550TIP3    H135141   1.335   2.021  16.673  0.0646  0.8922 -0.5171
 4550TIP3    H235142   1.432   2.134  16.695  2.0824 -1.1294  1.5870
 4551TIP3   OH235143   6.176   0.165   6.008 -0.3250  0.1219 -0.0284
 4551TIP3    H135144   6.150   0.256   5.991  0.9521  0.2477 -1.5034
 4551TIP3    H235145   6.107   0.131   6.064 -0.2811  2.3221  1.4800
 4552TIP3   OH235146   3.445   2.494   6.189 -0.1989 -0.6629  0.3241
 4552TIP3    H135147   3.458   2.550   6.266 -2.0751  0.0737  0.1617
 4552TIP3    H235148   3.446   2.555   6.115 -0.4565 -1.0887 -0.0312
 4553TIP3   OH235149   3.998   5.195   1.692  0.1697  0.0730 -0.7766
 4553TIP3    H135150   3.944   5.249   1.634  1.2153  0.6883 -1.2196
 4553TIP3    H235151   4.036   5.257   1.754 -0.5092 -0.5112  0.2378
 4554TIP3   OH235152   3.165   1.446  17.117  0.4449  0.1221  0.5757
 4554TIP3    H135153   3.167   1.510  17.046  1.0092 -0.0152  0.4605
 4554TIP3    H235154   3.110   1.487  17.184 -0.8860 -0.1622 -0.3113
 4555TIP3   OH235155   4.181   3.396   2.493  0.5195  0.2607 -0.3478
 4555TIP3    H135156   4.233   3.471   2.523  1.0737  0.1646 -1.0316
 4555TIP3    H235157   4.232   3.319   2.520 -0.5659  0.0684  1.3091
 4556TIP3   OH235158   3.230   6.507   3.116 -0.0611  0.0820  0.1247
 4556TIP3    H135159   3.310   6.543   3.078 -1.5398  0.6662 -2.7927
 4556TIP3    H235160   3.220   6.422   3.073 -1.6131  0.5832 -0.6011
 4557TIP3   OH235161   5.345   1.969   0.124 -0.1531 -0.1375 -0.0076
 4557TIP3    H135162   5.283   1.952   0.053  0.4735  1.6983 -1.0953
 4557TIP3    H235163   5.395   1.888   0.133 -0.7838 -0.6738 -1.1199
 4558TIP3   OH235164   0.729   0.352   5.529  0.8157  0.7221 -0.3671
 4558TIP3    H135165   0.711   0.439   5.494  0.4741  0.9890  0.4415
 4558TIP3    H235166   0.821   0.336   5.508  0.8446  1.2294 -0.6249
 4559TIP3   OH235167   1.651   3.832  17.213 -0.4941  0.6873 -0.3637
 4559TIP3    H135168   1.614   3.748  17.186  1.3567 -0.4470  0.4129
 4559TIP3    H235169   1.663   3.824  17.307  0.4320  1.4958 -0.3919
 4560TIP3   OH235170   1.083   0.293  15.158  0.4157  0.1800  0.4204
 4560TIP3    H135171   1.102   0.251  15.075  0.5727  1.1403 -0.0476
 4560TIP3    H235172   0.998   0.335  15.145  1.3774  2.1170 -0.0060
 4561TIP3   OH235173   5.569   2.899  16.430  0.0272 -0.5934  0.0756
 4561TIP3    H135174   5.512   2.834  16.470 -0.2892  0.5144  1.4945
 4561TIP3    H235175   5.541   2.982  16.467  0.9342  0.2748 -1.1061
 4562TIP3   OH235176   6.272   4.580   3.229  0.2318  0.0332  0.1439
 4562TIP3    H135177   6.234   4.533   3.154 -0.4761  2.1298 -0.8716
 4562TIP3    H235178   6.338   4.637   3.191 -0.5274  1.5535  1.0060
 4563TIP3   OH235179   3.619   2.394  13.681 -0.3777 -0.2470 -0.1287
 4563TIP3    H135180   3.688   2.333  13.706 -0.4030 -0.2933 -0.1712
 4563TIP3    H235181   3.568   2.347  13.615 -0.9189 -0.5081  0.4655
 4564TIP3   OH235182   3.368   5.344   4.293 -0.1413  0.0238  0.3431
 4564TIP3    H135183   3.388   5.273   4.354  1.4272  0.5987  0.5526
 4564TIP3    H235184   3.408   5.316   4.210 -0.4972  0.1524  0.1267
 4565TIP3   OH235185   1.724   1.199  15.757 -0.2739 -0.3755 -0.5827
 4565TIP3    H135186   1.742   1.230  15.668 -1.4575  2.7500  0.1262
 4565TIP3    H235187   1.630   1.184  15.759 -0.3810  0.3195  0.3069
 4566TIP3   OH235188   0.954   1.665  16.377 -0.1348 -0.2813  0.4052
 4566TIP3    H135189   1.050   1.660  16.380 -0.0880  0.8810  1.6194
 4566TIP3    H235190   0.928   1.685  16.467 -1.2804  2.6824 -0.4743
 4567TIP3   OH235191   6.538   4.636  14.076 -0.5680  0.3472 -0.7691
 4567TIP3    H135192   6.598   4.584  14.022  0.8370  0.5483  0.5494
 4567TIP3    H235193   6.496   4.696  14.014 -0.5724 -0.8208 -1.9585
 4568TIP3   OH235194   2.698   2.962   2.777  0.3270  0.2253 -0.5535
 4568TIP3    H135195   2.718   3.055   2.779 -0.7362  0.4937  2.2667
 4568TIP3    H235196   2.632   2.950   2.846  0.9233 -2.7055 -0.3469
 4569TIP3   OH235197   1.203   4.211   3.011 -0.3405 -0.3060 -0.0474
 4569TIP3    H135198   1.157   4.271   2.953 -0.5977 -0.6456 -0.1974
 4569TIP3    H235199   1.287   4.195   2.967  0.0820  0.5954  0.4033
 4570TIP3   OH235200   2.851   2.088  16.896 -0.5252  0.2022  0.3531
 4570TIP3    H135201   2.936   2.058  16.863 -1.0689  1.1534 -2.1323
 4570TIP3    H235202   2.810   2.009  16.931  1.1246 -0.3852  1.0848
 4571TIP3   OH235203   6.605   0.275  15.056  0.5364  0.4422 -0.3891
 4571TIP3    H135204   6.606   0.370  15.050 -0.7515  0.5548  0.6988
 4571TIP3    H235205   6.513   0.251  15.051  0.7998 -0.7050 -0.0995
 4572TIP3   OH235206   6.650   6.171   1.788  0.1287 -0.1167  0.0520
 4572TIP3    H135207   6.726   6.151   1.734  0.5007 -1.6413  1.0662
 4572TIP3    H235208   6.577   6.126   1.744 -0.2271  1.3330 -0.9122
 4573TIP3   OH235209   4.004   4.059  13.792 -0.1265  0.2508  0.3945
 4573TIP3    H135210   4.067   4.129  13.777  1.0659 -0.7519  0.5547
 4573TIP3    H235211   4.057   3.980  13.800 -1.3417 -0.5135  1.3649
 4574TIP3   OH235212   5.512   4.938  15.115  0.3473  0.0119 -0.1375
 4574TIP3    H135213   5.540   4.846  15.115 -0.1970 -0.1591  0.1799
 4574TIP3    H235214   5.430   4.937  15.066  0.8288  0.4900 -0.9773
 4575TIP3   OH235215   1.493   1.045   4.143  0.6603 -0.8186 -0.5941
 4575TIP3    H135216   1.508   1.046   4.048  2.2509  0.0747 -0.3743
 4575TIP3    H235217   1.562   0.989   4.177 -1.0629 -2.7237 -0.0827
 4576TIP3   OH235218   6.472   0.021   6.001 -0.1867  0.1109  0.3073
 4576TIP3    H135219   6.545  -0.041   6.002 -0.0449  0.1753 -1.9093
 4576TIP3    H235220   6.403  -0.023   5.950 -1.2944  0.5241  1.3837
 4577TIP3   OH235221   2.715   1.589   0.890 -0.0619 -0.2654 -0.1839
 4577TIP3    H135222   2.641   1.531   0.907 -1.4793  0.9853 -1.6389
 4577TIP3    H235223   2.756   1.602   0.975 -0.1694 -2.7114  0.3043
 4578TIP3   OH235224   1.157   3.362  17.165 -0.2454  0.4630  0.5123
 4578TIP3    H135225   1.101   3.287  17.186 -0.0839  0.5922  1.4278
 4578TIP3    H235226   1.201   3.337  17.084  1.5107 -1.4118  1.9350
 4579TIP3   OH235227   1.699   4.026  16.266  0.3080  0.2329  0.0652
 4579TIP3    H135228   1.613   4.060  16.289  0.5771  0.4804  0.7133
 4579TIP3    H235229   1.713   4.056  16.176  0.0080  0.7757  0.1953
 4580TIP3   OH235230   6.586   6.113   4.341 -0.5734  0.5597  0.5322
 4580TIP3    H135231   6.682   6.116   4.340 -0.5060 -0.6900  0.7936
 4580TIP3    H235232   6.561   6.115   4.249 -0.2773  0.4759  0.4483
 4581TIP3   OH235233   4.281   6.123  14.419 -0.2263 -0.4814 -0.5048
 4581TIP3    H135234   4.234   6.041  14.431 -0.3591 -0.5716 -1.5379
 4581TIP3    H235235   4.217   6.181  14.377 -0.1310  0.1484  0.2088
 4582TIP3   OH235236   0.819   2.219  10.893 -0.0860  0.0693 -0.5103
 4582TIP3    H135237   0.892   2.276  10.917  0.4769 -0.7840 -0.1265
 4582TIP3    H235238   0.757   2.276  10.849  1.4072  0.5993 -2.0614
 4583TIP3   OH235239   3.162   6.707   3.317  0.0584  0.6738 -0.6335
 4583TIP3    H135240   3.217   6.631   3.300  1.4876  1.4690  0.2770
 4583TIP3    H235241   3.173   6.763   3.240 -0.1314  0.4723 -0.8099
 4584TIP3   OH235242   0.567   0.483  13.928  0.2173  0.1637  0.3463
 4584TIP3    H135243   0.550   0.571  13.961 -0.0303  0.0614  0.4906
 4584TIP3    H235244   0.481   0.450  13.901  0.5311  0.5876 -1.2618
 4585TIP3   OH235245   4.561   2.058  13.738  0.3928 -0.3222  0.3770
 4585TIP3    H135246   4.533   1.982  13.789 -0.0115 -0.1410  0.4259
 4585TIP3    H235247   4.638   2.027  13.689  0.7936 -0.4861  1.1047
 4586TIP3   OH235248   4.866   2.191  16.707 -0.1399  0.5216 -0.9752
 4586TIP3    H135249   4.908   2.151  16.631 -0.1331  1.1682 -1.3231
 4586TIP3    H235250   4.773   2.173  16.694  0.0176 -1.1869 -0.0413
 4587TIP3   OH235251   2.819   5.434  17.010  0.1874  0.1447  0.0601
 4587TIP3    H135252   2.836   5.468  16.922 -0.0516 -0.3616 -0.1819
 4587TIP3    H235253   2.884   5.364  17.022  0.6622  0.6501  0.5510
 4588TIP3   OH235254   2.444   4.866  15.449  0.1497  0.3535 -0.4332
 4588TIP3    H135255   2.400   4.798  15.398 -1.6752  1.3100 -0.1882
 4588TIP3    H235256   2.465   4.934  15.386  0.5443  0.2630 -0.4027
 4589TIP3   OH235257   1.655   0.678   1.814  0.1710  0.8534  0.3278
 4589TIP3    H135258   1.591   0.729   1.863  0.9816  2.4252 -0.1866
 4589TIP3    H235259   1.642   0.705   1.723  0.0172 -0.5546 -0.0978
 4590TIP3   OH235260   6.667   4.836  16.378  0.4417 -0.6996  0.1431
 4590TIP3    H135261   6.583   4.842  16.332  0.3514  0.0804  0.4002
 4590TIP3    H235262   6.725   4.894  16.329  0.3559  0.1080  0.9780
 4591TIP3   OH235263   5.810   0.727   0.301  0.5778  0.0529  0.5287
 4591TIP3    H135264   5.737   0.735   0.363  2.2674  1.2377  2.4922
 4591TIP3    H235265   5.817   0.814   0.261 -0.5022 -0.7089 -1.3885
 4592TIP3   OH235266   2.632   2.198  12.881  0.2624 -0.3251 -0.1044
 4592TIP3    H135267   2.698   2.242  12.827 -1.4253 -0.1140 -2.1425
 4592TIP3    H235268   2.613   2.261  12.951 -0.1158  1.0806 -1.4015
 4593TIP3   OH235269   5.621   0.407  15.841  0.0524 -0.0222 -0.1455
 4593TIP3    H135270   5.549   0.386  15.781  0.9553  0.8990 -1.6192
 4593TIP3    H235271   5.697   0.417  15.784  0.7192  2.0537  0.9937
 4594TIP3   OH235272   1.229   1.548  15.314  0.0242  0.1372  0.5304
 4594TIP3    H135273   1.323   1.555  15.326 -0.1379 -0.1907  2.2139
 4594TIP3    H235274   1.211   1.454  15.319 -0.3638  0.1739 -0.0789
 4595TIP3   OH235275   1.576   2.786   6.465 -0.3571  0.6247 -0.0900
 4595TIP3    H135276   1.566   2.833   6.382 -1.9086  1.3545  0.4642
 4595TIP3    H235277   1.667   2.758   6.466 -0.1773  1.0283 -1.8151
 4596TIP3   OH235278   4.936   0.685  14.768 -0.1194 -0.3834 -0.0354
 4596TIP3    H135279   4.884   0.757  14.733  0.7348  0.3107  0.0887
 4596TIP3    H235280   5.017   0.726  14.798 -0.1357 -1.2115  1.2093
 4597TIP3   OH235281   4.356   6.087  12.274 -0.4355 -0.0135 -0.0919
 4597TIP3    H135282   4.420   6.089  12.345 -0.9178  0.2584  0.3426
 4597TIP3    H235283   4.405   6.114  12.196  0.2419 -0.8973  0.0132
 4598TIP3   OH235284   4.784   0.245  11.348  0.3230  0.2879  0.9840
 4598TIP3    H135285   4.876   0.234  11.323  0.4705 -1.1772  2.0889
 4598TIP3    H235286   4.771   0.340  11.344  1.3652  0.4134 -0.8894
 4599TIP3   OH235287   0.233   1.230   5.841  0.1300 -0.0223  0.0934
 4599TIP3    H135288   0.182   1.303   5.875  0.5327  0.5777 -0.5635
 4599TIP3    H235289   0.267   1.186   5.919 -1.4897 -0.5277  0.5529
 4600TIP3   OH235290   0.605   3.221  13.344  0.1480 -0.0466 -0.4890
 4600TIP3    H135291   0.542   3.169  13.293  1.0191 -1.1166 -0.5213
 4600TIP3    H235292   0.681   3.163  13.354  1.0758  1.1561 -0.3263
 4601TIP3   OH235293   1.526   0.021   1.063 -0.2358  0.6169  1.0036
 4601TIP3    H135294   1.545   0.087   0.997  0.4171  0.0876  0.6525
 4601TIP3    H235295   1.457  -0.033   1.023  1.5293 -0.9122 -0.1096
 4602TIP3   OH235296   3.453   6.353  10.895  0.2670  0.3462  0.1593
 4602TIP3    H135297   3.426   6.302  10.818  0.1818 -1.6181  1.4163
 4602TIP3    H235298   3.397   6.431  10.894 -0.1710  0.0388 -1.3934
 4603TIP3   OH235299   0.661   2.024  15.059  0.6207 -0.4958 -0.4249
 4603TIP3    H135300   0.576   1.999  15.093  1.0054 -0.6099  0.4756
 4603TIP3    H235301   0.659   2.119  15.054  0.6334 -0.4667  0.1186
 4604TIP3   OH235302   5.299   2.602   3.410  0.0420  0.1567  0.0085
 4604TIP3    H135303   5.321   2.671   3.473  2.7768 -0.8918  0.3324
 4604TIP3    H235304   5.246   2.541   3.460  2.1650 -0.6602  1.4305
 4605TIP3   OH235305   1.430   3.877   5.510 -0.1051 -0.1269  0.6831
 4605TIP3    H135306   1.482   3.840   5.439  0.8343  0.3591  1.1046
 4605TIP3    H235307   1.387   3.802   5.550 -1.1762 -0.3518 -0.7968
 4606TIP3   OH235308   1.921   0.573  14.730 -0.6659  0.0838 -0.0970
 4606TIP3    H135309   1.831   0.547  14.749 -0.7305 -0.4233 -1.0363
 4606TIP3    H235310   1.918   0.669  14.730 -1.6271  0.0993 -1.8541
 4607TIP3   OH235311   2.037   5.031   3.737  0.0714  0.1038  0.0162
 4607TIP3    H135312   2.123   5.055   3.772  0.1832 -1.3535  0.8414
 4607TIP3    H235313   2.016   4.948   3.780 -1.0623 -0.3515 -1.3188
 4608TIP3   OH235314   1.269   6.721  13.354 -0.0952 -0.0832  0.5378
 4608TIP3    H135315   1.198   6.659  13.337  0.1295 -0.5701  1.2797
 4608TIP3    H235316   1.257   6.744  13.446  0.8818 -0.4078  0.7544
 4609TIP3   OH235317   0.972   1.588   5.254 -0.0952 -0.2151  0.4316
 4609TIP3    H135318   0.893   1.575   5.307  0.4277 -0.4843  1.1716
 4609TIP3    H235319   1.003   1.500   5.235  0.6186 -0.1175  1.0774
 4610TIP3   OH235320   3.470   1.289  16.487  0.1501  0.7318 -0.2308
 4610TIP3    H135321   3.395   1.345  16.468  0.4243  0.1495 -3.6891
 4610TIP3    H235322   3.446   1.242  16.566 -2.1421  2.1996  0.0243
 4611TIP3   OH235323   0.797   0.855   1.330  0.2984 -0.0897  0.0776
 4611TIP3    H135324   0.723   0.815   1.284 -0.2403  0.9700 -0.0060
 4611TIP3    H235325   0.813   0.797   1.404 -0.2559 -0.6367 -0.2231
 4612TIP3   OH235326   6.132   0.446  13.352  0.5057 -0.2626 -0.7872
 4612TIP3    H135327   6.089   0.452  13.267 -0.9469  0.8486 -0.0092
 4612TIP3    H235328   6.114   0.356  13.382 -2.7497  0.5933  0.2041
 4613TIP3   OH235329   4.221   2.697   0.306 -0.1078  0.2212 -0.0577
 4613TIP3    H135330   4.170   2.637   0.360  1.4238 -0.4089  0.7498
 4613TIP3    H235331   4.192   2.784   0.332  0.1367 -0.0941  1.2981
 4614TIP3   OH235332   1.749   1.050   1.717  0.6013 -1.1864 -0.1671
 4614TIP3    H135333   1.702   0.984   1.666  0.1401  0.1549 -1.5408
 4614TIP3    H235334   1.831   1.064   1.669  0.9108 -1.0861  0.3809
 4615TIP3   OH235335   1.680   4.673  12.311 -0.3966 -0.3563  0.7653
 4615TIP3    H135336   1.691   4.641  12.221  0.1265  1.6073  0.0782
 4615TIP3    H235337   1.601   4.629  12.342  0.5335 -2.6169  0.0845
 4616TIP3   OH235338   3.572   0.016  14.887 -0.1158 -0.2718 -0.4032
 4616TIP3    H135339   3.556   0.091  14.829  2.8601  1.1500  0.4027
 4616TIP3    H235340   3.528   0.039  14.969 -1.8787 -0.9514 -1.1076
 4617TIP3   OH235341   2.886   0.649  11.523 -0.5322 -0.2318  0.2142
 4617TIP3    H135342   2.960   0.706  11.502 -0.3580 -1.2573 -2.2319
 4617TIP3    H235343   2.820   0.669  11.457 -1.9937 -0.2098  1.6209
 4618TIP3   OH235344   2.827   5.099   4.411 -0.0957  0.3998 -0.4099
 4618TIP3    H135345   2.790   5.024   4.364  0.5031 -0.8416  1.0179
 4618TIP3    H235346   2.889   5.138   4.349  2.8294 -2.8994  0.1099
 4619TIP3   OH235347   4.318   5.604  11.952  0.0740 -0.1595 -0.2030
 4619TIP3    H135348   4.354   5.692  11.964 -2.0595  0.8585 -0.7707
 4619TIP3    H235349   4.366   5.568  11.878  1.3553  0.2918  0.3874
 4620TIP3   OH235350   0.877   2.176  13.504 -0.2130  0.6269 -0.0322
 4620TIP3    H135351   0.970   2.161  13.487  0.2473  2.6538  0.3899
 4620TIP3    H235352   0.833   2.144  13.425  0.9663  0.7648 -0.7722
 4621TIP3   OH235353   2.890   6.305  13.873 -0.0435 -0.0440 -0.0805
 4621TIP3    H135354   2.825   6.356  13.922 -0.6883 -1.6003  0.7597
 4621TIP3    H235355   2.950   6.272  13.940  1.2683  0.8490 -0.7816
 4622TIP3   OH235356   5.990   2.745   4.613 -0.0716 -0.5334  0.0150
 4622TIP3    H135357   5.925   2.715   4.676  0.6556 -1.9606  0.1075
 4622TIP3    H235358   6.072   2.746   4.661  0.0939  0.7572 -0.2473
 4623TIP3   OH235359   6.244   1.571   5.378  0.2438 -0.1618  0.3147
 4623TIP3    H135360   6.282   1.646   5.333  0.3837 -0.0481  0.6187
 4623TIP3    H235361   6.296   1.496   5.350 -0.1692 -0.2129 -0.3267
 4624TIP3   OH235362   5.407   4.843   1.021 -0.1891 -0.3070 -0.5014
 4624TIP3    H135363   5.326   4.846   1.072  0.8861 -1.6659  1.4231
 4624TIP3    H235364   5.445   4.931   1.030 -1.1891  0.1890 -1.0194
 4625TIP3   OH235365   5.568   3.955  15.723 -0.4649  0.1970 -0.0872
 4625TIP3    H135366   5.619   3.939  15.802 -0.8542  0.8147  0.2956
 4625TIP3    H235367   5.498   3.890  15.724  1.1960 -1.7351 -1.4377
 4626TIP3   OH235368   0.878   2.771   2.844 -0.0408 -0.7087 -0.1618
 4626TIP3    H135369   0.913   2.829   2.776  2.0822 -0.7678  0.7852
 4626TIP3    H235370   0.914   2.685   2.822 -1.3647 -1.2388 -0.3239
 4627TIP3   OH235371   3.908   0.221  11.399  0.0594 -0.1361 -0.3740
 4627TIP3    H135372   3.836   0.280  11.374 -1.7272 -1.6347  0.9921
 4627TIP3    H235373   3.906   0.152  11.333 -1.1058 -1.2142  0.7336
 4628TIP3   OH235374   2.549   5.478   2.271 -0.2715 -0.0034 -0.2977
 4628TIP3    H135375   2.483   5.430   2.321  0.7794  0.9017  2.1835
 4628TIP3    H235376   2.607   5.411   2.236 -1.7450 -0.7350 -1.4099
 4629TIP3   OH235377   0.072   4.398  15.346 -0.1100  0.0503 -0.8104
 4629TIP3    H135378   0.031   4.338  15.408  0.7279  1.0551  0.7859
 4629TIP3    H235379   0.119   4.462  15.401 -0.1193  1.5600 -2.4484
 4630TIP3   OH235380   0.254   0.979   0.119  0.1765  0.2791  0.2176
 4630TIP3    H135381   0.330   0.973   0.061  0.2426 -3.3883  0.4687
 4630TIP3    H235382   0.291   0.990   0.207  0.4799 -1.2177  0.3065
 4631TIP3   OH235383   1.670   2.712   4.353 -0.8145 -0.2891 -0.0732
 4631TIP3    H135384   1.655   2.630   4.399  0.8714  0.3140  1.6476
 4631TIP3    H235385   1.704   2.772   4.419  0.8017  0.9238 -1.8646
 4632TIP3   OH235386   0.795   3.008  13.409 -0.1039 -0.8039 -0.1870
 4632TIP3    H135387   0.858   3.023  13.479 -0.4630 -0.0181 -0.0193
 4632TIP3    H235388   0.847   3.005  13.329  0.1036  0.3780 -0.1137
 4633TIP3   OH235389   4.699   0.148   2.997 -0.0392  0.0634  0.2031
 4633TIP3    H135390   4.607   0.133   2.978 -0.1300 -0.2443  0.8481
 4633TIP3    H235391   4.713   0.241   2.977 -0.1970 -0.1549 -0.9951
 4634TIP3   OH235392   4.601   5.100  16.251 -0.0280  0.0169 -0.1932
 4634TIP3    H135393   4.579   5.159  16.323 -0.7885 -0.1127 -0.3081
 4634TIP3    H235394   4.640   5.023  16.293  1.1482  0.6616 -0.0515
 4635TIP3   OH235395   4.913   2.958   4.260  0.1530 -0.2785  0.2259
 4635TIP3    H135396   4.992   2.944   4.208  0.7283  0.8941  0.7456
 4635TIP3    H235397   4.864   3.024   4.211 -0.7543 -1.3437 -0.3393
 4636TIP3   OH235398   1.707   4.083  12.883 -0.4370  0.2527  0.1217
 4636TIP3    H135399   1.632   4.099  12.940 -0.2059 -0.4878  0.6623
 4636TIP3    H235400   1.782   4.086  12.941  0.0364  1.6192 -0.5240
 4637TIP3   OH235401   5.586   0.741  12.771 -0.0984  0.4149  0.0627
 4637TIP3    H135402   5.510   0.683  12.777  0.6359 -0.4492  1.9513
 4637TIP3    H235403   5.549   0.828  12.753 -1.3966 -0.2357 -0.5371
 4638TIP3   OH235404   3.378   5.915  10.684  0.0526  0.0253 -0.2955
 4638TIP3    H135405   3.446   5.884  10.624  2.5213  3.0436  0.6313
 4638TIP3    H235406   3.314   5.958  10.628  0.1076 -0.8590 -1.0521
 4639TIP3   OH235407   0.355   6.298   5.616 -0.2729  0.4174  0.4740
 4639TIP3    H135408   0.343   6.393   5.616 -0.8694  0.3490 -0.7225
 4639TIP3    H235409   0.367   6.275   5.524 -0.8853 -0.7635  0.6801
 4640TIP3   OH235410   4.575   3.178   5.442 -0.0879  0.0332 -0.2456
 4640TIP3    H135411   4.554   3.272   5.439  2.1033  0.6549  1.2943
 4640TIP3    H235412   4.547   3.150   5.529  1.3435 -0.1616  0.1664
 4641TIP3   OH235413   2.903   0.884   3.320  0.2656  0.4125  0.4348
 4641TIP3    H135414   2.820   0.885   3.367  0.4714 -0.0030  0.8113
 4641TIP3    H235415   2.968   0.912   3.385  0.8352 -1.9499  0.9826
 4642TIP3   OH235416   5.219   4.019  11.499  0.1320  0.3640  0.0105
 4642TIP3    H135417   5.288   4.001  11.435  0.8810  1.2918  0.5351
 4642TIP3    H235418   5.168   3.938  11.502  1.2334 -0.3737 -0.3475
 4643TIP3   OH235419   2.016   2.182   4.311 -0.1716 -0.0174  0.1187
 4643TIP3    H135420   2.086   2.191   4.376  1.3382  0.0245 -1.4567
 4643TIP3    H235421   2.046   2.233   4.236 -1.6880 -0.3903 -0.7760
 4644TIP3   OH235422   2.739   5.740  14.339  0.4910  0.1763  0.5076
 4644TIP3    H135423   2.689   5.677  14.391  1.1479 -0.8327 -0.0577
 4644TIP3    H235424   2.830   5.712  14.347  0.6406  0.1742 -0.9112
 4645TIP3   OH235425   4.001   4.122   0.033 -0.1168 -0.0641 -0.6442
 4645TIP3    H135426   4.039   4.086  -0.046 -0.2610  0.3060 -0.8855
 4645TIP3    H235427   3.958   4.203   0.005  1.4113  1.0709  0.1202
 4646TIP3   OH235428   4.536   6.366   6.173 -0.7469 -0.2625  0.0417
 4646TIP3    H135429   4.464   6.423   6.199 -1.1622 -0.0599 -1.4369
 4646TIP3    H235430   4.558   6.318   6.252 -1.3220  0.9399  0.9719
 4647TIP3   OH235431   4.391   2.523   5.993  0.1447  0.0753  0.3204
 4647TIP3    H135432   4.376   2.557   5.904 -0.1326  0.4234  0.4983
 4647TIP3    H235433   4.403   2.429   5.980 -1.8289 -0.1929  0.1072
 4648TIP3   OH235434   4.986   3.748   6.065  0.0563  0.5958  0.5534
 4648TIP3    H135435   4.990   3.795   6.148 -1.3898  1.0757  0.3760
 4648TIP3    H235436   5.077   3.743   6.036  0.4854  1.1799  1.7351
 4649TIP3   OH235437   2.669   5.615  14.801 -0.0010  0.1460 -0.0347
 4649TIP3    H135438   2.732   5.597  14.871  0.3330  0.1402 -0.3390
 4649TIP3    H235439   2.591   5.647  14.847  0.2978  0.3586  0.3257
 4650TIP3   OH235440   4.101   0.541  17.005 -0.8327  0.6257  0.0695
 4650TIP3    H135441   4.075   0.605  16.938 -0.3907  2.4148  1.5307
 4650TIP3    H235442   4.051   0.565  17.082 -0.4401 -0.6498  0.7571
 4651TIP3   OH235443   4.563   3.991   1.667 -0.5793 -0.0141 -0.4080
 4651TIP3    H135444   4.593   3.963   1.754 -1.2938  1.0959  0.2243
 4651TIP3    H235445   4.571   3.913   1.613  1.5438 -0.2866  0.2103
 4652TIP3   OH235446   4.214   6.097  10.681 -0.2155  0.5796  0.1663
 4652TIP3    H135447   4.158   6.034  10.636  0.4685  0.0266  0.0586
 4652TIP3    H235448   4.231   6.165  10.615  1.2537 -0.5191 -0.6618
 4653TIP3   OH235449   3.691   5.165  13.833 -0.1116 -0.0520  0.7066
 4653TIP3    H135450   3.608   5.175  13.787  0.0801 -1.9516 -0.1245
 4653TIP3    H235451   3.685   5.081  13.878  1.5387 -0.4668  0.2407
 4654TIP3   OH235452   3.614   5.954  11.715  0.2182 -0.0629  0.9745
 4654TIP3    H135453   3.546   5.927  11.777  1.6644 -0.4888  2.4795
 4654TIP3    H235454   3.625   5.878  11.657  0.9634 -0.9241  2.1867
 4655TIP3   OH235455   5.778   0.558  17.226  0.1670  0.4781 -0.3319
 4655TIP3    H135456   5.828   0.551  17.307  1.6010  0.6500 -1.1658
 4655TIP3    H235457   5.806   0.641  17.188 -1.6445  1.1691 -0.2841
 4656TIP3   OH235458   0.121   4.648  16.699 -0.4389 -0.0068  0.2001
 4656TIP3    H135459   0.057   4.603  16.644 -1.7475  0.7059  1.0791
 4656TIP3    H235460   0.115   4.740  16.673  0.1521  0.0891  0.3755
 4657TIP3   OH235461   1.800   2.630  12.169 -0.0127 -0.2020  0.2460
 4657TIP3    H135462   1.846   2.559  12.125  0.7863  1.1207 -1.1889
 4657TIP3    H235463   1.861   2.661  12.236 -0.4746 -1.0268  1.0589
 4658TIP3   OH235464   0.646   5.877  15.607  0.6304 -0.0888  0.4943
 4658TIP3    H135465   0.592   5.956  15.612 -1.2479 -1.2814 -0.1397
 4658TIP3    H235466   0.647   5.843  15.696  0.8346  0.2310  0.6173
 4659TIP3   OH235467   2.649   2.721  15.757  0.2365  0.3326  0.3214
 4659TIP3    H135468   2.737   2.715  15.793  0.8233 -0.4082 -1.1314
 4659TIP3    H235469   2.637   2.814  15.740  1.3600  0.3048 -0.8309
 4660TIP3   OH235470   6.328   5.038   2.344 -0.3767  0.1239 -0.3528
 4660TIP3    H135471   6.284   4.958   2.316  1.2747 -1.2179  0.6959
 4660TIP3    H235472   6.408   5.041   2.292  1.0198 -0.5530  1.6383
 4661TIP3   OH235473   1.206   3.549   0.027 -0.0304  0.1872 -0.3417
 4661TIP3    H135474   1.142   3.568  -0.041  0.7510 -0.2907 -1.2173
 4661TIP3    H235475   1.241   3.635   0.052 -1.5824  0.5597  0.7617
 4662TIP3   OH235476   0.357   4.070  14.433  0.4364 -0.5279 -0.2370
 4662TIP3    H135477   0.360   4.164  14.420 -0.5461 -0.7301 -2.2068
 4662TIP3    H235478   0.444   4.048  14.469  0.9453  0.9997 -0.4788
 4663TIP3   OH235479   1.590   1.430  14.323 -0.2515 -0.0346 -0.0752
 4663TIP3    H135480   1.536   1.509  14.323 -0.6656 -0.2998  0.8979
 4663TIP3    H235481   1.678   1.462  14.345 -0.3744  0.1840  0.1088
 4664TIP3   OH235482   4.951   3.422   5.549  0.3649  0.1426 -0.7600
 4664TIP3    H135483   4.957   3.432   5.454 -0.3421  0.9844 -0.7260
 4664TIP3    H235484   4.944   3.327   5.562  1.5050 -0.0627 -1.4696
 4665TIP3   OH235485   2.299   1.128  17.380 -0.2371 -0.1624 -0.3805
 4665TIP3    H135486   2.254   1.071  17.442 -2.6982  0.5750 -1.3883
 4665TIP3    H235487   2.371   1.074  17.347 -1.0919 -1.8708  0.3974
 4666TIP3   OH235488   1.163   0.571  12.445  0.5166 -0.3136 -0.2428
 4666TIP3    H135489   1.069   0.553  12.444  0.7430 -2.7575  3.2249
 4666TIP3    H235490   1.171   0.653  12.495  0.2513 -0.4446  0.0183
 4667TIP3   OH235491   6.524   2.258   2.989 -0.5289  0.0440  0.0726
 4667TIP3    H135492   6.444   2.240   2.940  0.9843 -2.9088 -1.5786
 4667TIP3    H235493   6.560   2.336   2.948 -1.5103  0.1766 -0.5632
 4668TIP3   OH235494   0.420   5.673   3.816 -0.1107 -0.4265  0.1981
 4668TIP3    H135495   0.379   5.603   3.765  0.5471 -1.3693  0.9419
 4668TIP3    H235496   0.510   5.676   3.785  0.0871 -0.4870  0.7597
 4669TIP3   OH235497   3.200   5.165   2.711 -0.3827  0.0731  0.3111
 4669TIP3    H135498   3.167   5.158   2.800 -0.7271  0.9479  0.2555
 4669TIP3    H235499   3.124   5.192   2.659  0.0871  0.7382 -0.0461
 4670TIP3   OH235500   4.586   0.077  11.454 -0.2756  0.3242 -0.4826
 4670TIP3    H135501   4.501   0.115  11.473 -0.0133  1.6370 -1.8057
 4670TIP3    H235502   4.630   0.141  11.398  1.2951 -0.6599 -0.4532
 4671TIP3   OH235503   5.267   4.053   1.682  0.5337  0.7717  0.2774
 4671TIP3    H135504   5.236   3.985   1.741  0.0856 -0.6795 -1.5166
 4671TIP3    H235505   5.324   4.007   1.620  0.2686  2.0291 -0.9709
 4672TIP3   OH235506   0.403   3.991  11.955 -0.2360  0.1802  0.3761
 4672TIP3    H135507   0.352   3.912  11.970 -0.5411  0.3515  0.2530
 4672TIP3    H235508   0.481   3.961  11.909 -0.2378 -0.0794  0.5385
 4673TIP3   OH235509   5.721   3.682  14.140 -0.2610 -0.4136  0.1350
 4673TIP3    H135510   5.643   3.700  14.192 -1.5137 -1.8036 -1.1338
 4673TIP3    H235511   5.771   3.620  14.192 -0.7685 -0.6632  0.3343
 4674TIP3   OH235512   6.333   0.604   1.219 -0.3143  0.4369 -0.2063
 4674TIP3    H135513   6.241   0.629   1.208  0.0076  1.5356 -0.6315
 4674TIP3    H235514   6.368   0.670   1.280  0.3785  0.5316 -0.6958
 4675TIP3   OH235515   3.368   5.238   0.305  0.1130  0.2693 -0.3499
 4675TIP3    H135516   3.296   5.276   0.355  1.1827  0.5397  1.0326
 4675TIP3    H235517   3.380   5.298   0.231 -0.2484  0.9307  0.1141
 4676TIP3   OH235518   2.724   0.647  11.275  0.3968  0.2278  0.9340
 4676TIP3    H135519   2.757   0.671  11.188 -1.0560 -0.8864  0.0491
 4676TIP3    H235520   2.631   0.668  11.272  0.0762 -0.9793  1.7923
 4677TIP3   OH235521   4.087   5.612   3.116  0.2750 -0.4557 -0.1740
 4677TIP3    H135522   4.021   5.546   3.097  0.6327 -0.9677  0.3191
 4677TIP3    H235523   4.051   5.693   3.081 -0.3998 -0.8162 -0.3318
 4678TIP3   OH235524   2.339   5.822  14.822  0.0084  0.4112  0.0512
 4678TIP3    H135525   2.429   5.831  14.790  0.1647  0.5158  0.5125
 4678TIP3    H235526   2.332   5.889  14.891 -0.7210  1.0577 -0.6330
 4679TIP3   OH235527   5.843   5.516   4.312  0.1132  0.2544 -0.0117
 4679TIP3    H135528   5.877   5.598   4.276  0.2725 -0.0712 -0.6080
 4679TIP3    H235529   5.894   5.502   4.392  0.0762  0.7359  0.1021
 4680TIP3   OH235530   4.925   3.011   1.307 -0.0130 -0.5040 -0.6381
 4680TIP3    H135531   4.967   3.081   1.258 -1.1155  1.3438  0.8805
 4680TIP3    H235532   4.851   3.054   1.351 -0.5440 -2.5575  0.6253
 4681TIP3   OH235533   3.869   1.535  12.349  0.2383  0.0071  0.5545
 4681TIP3    H135534   3.824   1.549  12.266  0.8995  2.5857  0.5211
 4681TIP3    H235535   3.827   1.458  12.387 -2.4308  0.7709 -0.6153
 4682TIP3   OH235536   0.278   2.021  17.010 -0.3037  0.0223  0.1462
 4682TIP3    H135537   0.204   2.042  16.953 -0.1331  0.2246 -0.0026
 4682TIP3    H235538   0.330   2.101  17.012  0.3520 -0.3742 -0.4235
 4683TIP3   OH235539   4.328   6.532  12.626 -0.4394  0.4911  0.1856
 4683TIP3    H135540   4.242   6.511  12.662 -0.1609 -0.4007  0.3555
 4683TIP3    H235541   4.389   6.485  12.682  0.0607 -0.1071 -0.8235
 4684TIP3   OH235542   4.148   1.319  15.193 -0.6705  0.4244 -0.5972
 4684TIP3    H135543   4.198   1.293  15.115  1.1266  1.9200 -0.0185
 4684TIP3    H235544   4.066   1.270  15.186  0.4129 -1.3155 -2.1747
 4685TIP3   OH235545   1.244   5.116   2.931  0.2444 -0.4322 -0.6478
 4685TIP3    H135546   1.324   5.168   2.935  1.1168 -1.6027 -1.7854
 4685TIP3    H235547   1.204   5.140   2.847  0.7213 -1.6068 -1.2452
 4686TIP3   OH235548   4.754   5.188   3.277  0.1279  0.0993  0.6128
 4686TIP3    H135549   4.741   5.282   3.289 -2.1796 -0.2767  1.4447
 4686TIP3    H235550   4.848   5.176   3.291  0.3652  2.1584  1.2293
 4687TIP3   OH235551   2.787   1.308  13.711  0.0691 -0.1767  0.2209
 4687TIP3    H135552   2.745   1.305  13.797 -0.1887  1.3730  0.1787
 4687TIP3    H235553   2.880   1.291  13.729 -0.1814 -1.2249  0.6117
 4688TIP3   OH235554   0.692   5.492  11.096 -0.7807 -0.1944 -0.3014
 4688TIP3    H135555   0.701   5.584  11.070  1.2733 -0.5911 -1.1722
 4688TIP3    H235556   0.675   5.446  11.014  1.2898 -0.9246 -0.3793
 4689TIP3   OH235557   2.235   5.361  12.897 -0.4203 -0.0967  0.4932
 4689TIP3    H135558   2.193   5.419  12.833  0.5530  0.0472 -0.0242
 4689TIP3    H235559   2.294   5.418  12.946  0.6712 -0.6729 -0.1304
 4690TIP3   OH235560   1.770   3.279   5.600  0.6412  0.4443 -0.0470
 4690TIP3    H135561   1.802   3.238   5.680  0.0745  0.8834  0.4143
 4690TIP3    H235562   1.780   3.212   5.533 -1.9586 -1.1672  1.0251
 4691TIP3   OH235563   5.036   2.212   6.419  0.6423  0.2469  0.2005
 4691TIP3    H135564   4.988   2.266   6.483 -1.2385 -1.0584 -0.0101
 4691TIP3    H235565   5.078   2.145   6.473 -1.9689 -1.6147  0.1110
 4692TIP3   OH235566   3.084   1.092  17.236  0.1432  0.4111  0.5819
 4692TIP3    H135567   3.121   1.023  17.291 -0.9943 -1.2459 -0.6037
 4692TIP3    H235568   3.154   1.113  17.174  0.2720 -0.2199  0.5046
 4693TIP3   OH235569   4.704   3.153   1.341  0.1196 -0.4207 -0.1743
 4693TIP3    H135570   4.706   3.247   1.325 -0.1684 -0.2542  0.7227
 4693TIP3    H235571   4.628   3.122   1.291  0.3109 -0.2040 -0.5993
 4694TIP3   OH235572   2.438   0.016   3.148  0.4532 -0.1097 -0.0333
 4694TIP3    H135573   2.379   0.006   3.074 -2.2628 -2.2326  2.1699
 4694TIP3    H235574   2.412   0.098   3.189 -0.9398 -0.9274  0.8004
 4695TIP3   OH235575   5.404   4.096  15.573 -0.7276  0.1639 -0.3466
 4695TIP3    H135576   5.456   4.025  15.609 -0.6271 -0.2978 -1.3806
 4695TIP3    H235577   5.356   4.131  15.648 -0.0290 -0.3436  0.3485
 4696TIP3   OH235578   0.087   4.622   1.047 -0.9751 -0.2559 -0.1941
 4696TIP3    H135579   0.065   4.564   0.974 -1.6226 -0.8146  0.4324
 4696TIP3    H235580   0.134   4.695   1.006  3.5558 -3.0475 -0.6387
 4697TIP3   OH235581   3.069   0.377   6.457  0.3053  0.2702 -1.0609
 4697TIP3    H135582   3.036   0.391   6.545  0.8206  0.1871 -0.8508
 4697TIP3    H235583   3.015   0.433   6.402  0.8164  1.3081 -0.5340
 4698TIP3   OH235584   5.962   6.412   5.645  0.1523  0.5317 -0.2921
 4698TIP3    H135585   5.976   6.317   5.646 -2.7560 -0.0512  3.1932
 4698TIP3    H235586   5.914   6.428   5.563 -0.0681 -1.1285 -0.5139
 4699TIP3   OH235587   3.503   1.128  11.524 -0.7508 -0.1047 -0.0311
 4699TIP3    H135588   3.493   1.219  11.495  1.2527  0.5457  1.1310
 4699TIP3    H235589   3.474   1.075  11.450  0.8160  1.4744 -1.8497
 4700TIP3   OH235590   1.186   5.796   4.187  0.3518  0.0976 -0.3650
 4700TIP3    H135591   1.200   5.701   4.184  0.6931  0.1541 -0.6023
 4700TIP3    H235592   1.119   5.813   4.121 -0.5871 -0.1256  0.5064
 4701TIP3   OH235593   3.281   1.517   2.583 -0.2987  0.2277 -0.2059
 4701TIP3    H135594   3.354   1.558   2.536  1.2166 -1.2376  0.7990
 4701TIP3    H235595   3.260   1.439   2.531  1.8965 -1.8321  1.8099
 4702TIP3   OH235596   2.132   3.536  17.140 -0.2769  0.2099 -0.5508
 4702TIP3    H135597   2.137   3.480  17.062  0.2784  0.5639 -0.7678
 4702TIP3    H235598   2.038   3.555  17.149 -0.5897 -1.4023 -0.0086
 4703TIP3   OH235599   3.894   1.283   3.291 -0.2254 -0.4359  0.3732
 4703TIP3    H135600   3.807   1.245   3.282 -0.5139 -0.2479  2.0866
 4703TIP3    H235601   3.931   1.280   3.202 -1.9560 -0.5185 -0.3819
 4704TIP3   OH235602   3.205   2.948  12.315 -0.4765 -0.2049 -0.0594
 4704TIP3    H135603   3.174   3.009  12.382  1.6487 -1.3060  2.1070
 4704TIP3    H235604   3.153   2.869  12.329 -0.9157 -0.0176 -0.6058
 4705TIP3   OH235605   1.696   1.023  11.471 -0.5902 -0.0602 -0.3246
 4705TIP3    H135606   1.720   0.969  11.395 -0.8808  1.1058 -1.2776
 4705TIP3    H235607   1.739   1.107  11.455  1.6526 -0.5750  2.1716
 4706TIP3   OH235608   2.301   5.829  14.212  0.1460 -0.4004 -0.0482
 4706TIP3    H135609   2.232   5.863  14.268  0.1439  0.1513 -0.3855
 4706TIP3    H235610   2.319   5.899  14.149 -0.2455 -1.2111 -1.0994
 4707TIP3   OH235611   6.506   2.667   1.269  0.2380 -0.2896  0.3751
 4707TIP3    H135612   6.551   2.654   1.185  1.3543 -0.3094  0.9589
 4707TIP3    H235613   6.566   2.630   1.334 -1.4064 -1.8790  1.0384
 4708TIP3   OH235614   4.235   3.177   4.953 -0.1273  0.4608 -0.2769
 4708TIP3    H135615   4.252   3.124   4.875  1.7477  0.5977 -0.0093
 4708TIP3    H235616   4.147   3.152   4.980 -0.9084  0.5287 -2.5233
 4709TIP3   OH235617   3.591   1.283   5.094  0.5414  0.4399  0.2475
 4709TIP3    H135618   3.551   1.367   5.072  0.4668  0.8624  1.9106
 4709TIP3    H235619   3.661   1.273   5.030 -0.2902  1.1211 -0.8117
 4710TIP3   OH235620   4.684   1.395  16.687  0.3280 -0.1802 -0.3674
 4710TIP3    H135621   4.752   1.341  16.647  1.7000  0.4998  0.9366
 4710TIP3    H235622   4.607   1.382  16.632  1.0587 -2.1958 -0.9911
 4711TIP3   OH235623   3.072   1.854   0.943  0.6978 -0.1012  0.0615
 4711TIP3    H135624   3.098   1.762   0.947  0.0507 -0.3156 -0.6447
 4711TIP3    H235625   3.134   1.893   0.882 -1.4749 -0.9398 -2.8743
 4712TIP3   OH235626   2.777   6.048   3.914  0.0314  0.3812  0.3514
 4712TIP3    H135627   2.759   6.130   3.868  0.2677  0.9539  1.2636
 4712TIP3    H235628   2.721   6.050   3.991 -3.7419 -2.5495 -1.9336
 4713TIP3   OH235629   4.279   6.366  14.711  0.3905  0.2856  0.2841
 4713TIP3    H135630   4.345   6.406  14.768  1.8622  0.1387 -1.2117
 4713TIP3    H235631   4.195   6.391  14.748  1.2624 -0.5025  2.9796
 4714TIP3   OH235632   3.996   3.094  16.905 -0.1271 -0.0039  0.5654
 4714TIP3    H135633   3.963   3.048  16.828  0.8095  0.4319 -0.1226
 4714TIP3    H235634   3.919   3.132  16.946 -0.5596  0.4353 -0.6128
 4715TIP3   OH235635   1.341   4.925   6.036  0.1905  0.0508  0.2638
 4715TIP3    H135636   1.325   4.958   5.948 -1.5840 -1.0296  0.1260
 4715TIP3    H235637   1.405   4.856   6.025 -1.3020 -1.2786 -0.4905
 4716TIP3   OH235638   0.553   2.734   6.065 -0.2336 -0.4748  0.2104
 4716TIP3    H135639   0.609   2.748   6.141  0.7415 -0.6250 -0.4680
 4716TIP3    H235640   0.581   2.650   6.029 -0.4785 -0.2666 -0.4885
 4717TIP3   OH235641   4.674   5.779  16.020  0.1881  0.2226  0.0275
 4717TIP3    H135642   4.599   5.815  16.067 -1.8804 -2.1418 -1.2286
 4717TIP3    H235643   4.658   5.800  15.928  2.1603  1.3927 -0.1152
 4718TIP3   OH235644   2.182   0.276  14.255  0.0039  0.2859 -0.7353
 4718TIP3    H135645   2.255   0.220  14.282  1.1715  2.7328  1.7302
 4718TIP3    H235646   2.120   0.272  14.328 -1.2756  0.0564 -1.7850
 4719TIP3   OH235647   1.922   2.094  16.062 -0.3039 -0.3623  0.3205
 4719TIP3    H135648   1.841   2.145  16.067 -0.5783 -0.4631 -1.9142
 4719TIP3    H235649   1.990   2.159  16.049 -0.4080 -0.4170 -0.5778
 4720TIP3   OH235650   4.575   1.652   5.704 -0.2491  0.5439  0.1380
 4720TIP3    H135651   4.622   1.603   5.772 -1.9497  0.1181  1.0509
 4720TIP3    H235652   4.613   1.740   5.708 -0.2884  0.5172  1.6195
 4721TIP3   OH235653   3.584   1.436   3.498  0.0278  0.2300  0.6668
 4721TIP3    H135654   3.625   1.500   3.440 -0.0569  1.6193  2.0532
 4721TIP3    H235655   3.552   1.489   3.572 -1.2983 -1.2494  1.1938
 4722TIP3   OH235656   6.655   4.228   3.877 -0.3932 -0.1527 -0.0103
 4722TIP3    H135657   6.603   4.164   3.926  0.3443  0.3214  1.4576
 4722TIP3    H235658   6.727   4.177   3.840 -0.5242 -0.3899  0.0550
 4723TIP3   OH235659   1.074   1.687   4.081 -0.0291 -0.2096 -0.2415
 4723TIP3    H135660   1.142   1.699   4.014 -0.3669  0.8750 -0.4237
 4723TIP3    H235661   1.116   1.637   4.150  0.6160 -0.5183 -0.8523
 4724TIP3   OH235662   0.686   2.915   4.847 -0.0510  0.3162 -0.1971
 4724TIP3    H135663   0.758   2.920   4.784  0.0260  1.7562 -0.0309
 4724TIP3    H235664   0.700   2.989   4.905 -0.8150 -0.2831  0.7862
 4725TIP3   OH235665   6.228   0.823  11.285 -0.0168  0.3618  0.1980
 4725TIP3    H135666   6.282   0.891  11.244 -0.9371 -0.0575 -1.8550
 4725TIP3    H235667   6.145   0.867  11.303 -1.4325 -0.5982 -3.1919
 4726TIP3   OH235668   5.823   6.180  11.506  0.0731 -0.5423 -0.0641
 4726TIP3    H135669   5.883   6.108  11.486  0.5841  0.2171 -1.4158
 4726TIP3    H235670   5.865   6.226  11.579 -0.9368 -2.3380  1.7787
 4727TIP3   OH235671   0.523   6.222   1.587 -0.2582 -0.5536 -0.5485
 4727TIP3    H135672   0.507   6.131   1.562  0.2172 -0.5826 -0.7534
 4727TIP3    H235673   0.541   6.267   1.504 -2.7838  0.2393 -0.7649
 4728TIP3   OH235674   2.778   5.526   2.800  0.5516  0.8145 -0.0198
 4728TIP3    H135675   2.708   5.464   2.823  0.9867  0.7489  1.2126
 4728TIP3    H235676   2.736   5.589   2.743 -0.7932  1.3235  1.4565
 4729TIP3   OH235677   0.503   6.136  14.956  0.2481 -0.1445  0.1194
 4729TIP3    H135678   0.444   6.137  15.031  0.5958  1.4758  0.4187
 4729TIP3    H235679   0.446   6.123  14.881 -0.4084  0.5659  0.4804
 4730TIP3   OH235680   4.212   3.434   4.125  0.1086 -0.0714  0.0249
 4730TIP3    H135681   4.242   3.450   4.036 -1.0464 -0.3571 -0.4312
 4730TIP3    H235682   4.122   3.404   4.115  0.9693 -3.4638  1.0183
 4731TIP3   OH235683   5.112   5.585  14.867 -0.2262  0.5046 -0.5588
 4731TIP3    H135684   5.024   5.587  14.830 -0.0520  0.0481 -1.0032
 4731TIP3    H235685   5.170   5.601  14.793  0.0088  2.9271  0.0457
 4732TIP3   OH235686   1.501   0.419  14.496  0.1275 -0.4146  0.1371
 4732TIP3    H135687   1.447   0.342  14.511  0.9084 -0.8027  1.0611
 4732TIP3    H235688   1.591   0.385  14.495  0.3970  0.2631 -1.0066
 4733TIP3   OH235689   3.764   4.890  11.680  0.2601  0.0780 -0.3895
 4733TIP3    H135690   3.701   4.961  11.677  0.4139  0.2930  0.8851
 4733TIP3    H235691   3.726   4.821  11.625 -0.0529  0.9899 -1.3495
 4734TIP3   OH235692   1.887   3.700   4.817 -0.0381  0.3607  0.0127
 4734TIP3    H135693   1.949   3.748   4.872  0.3722 -1.0308  0.8063
 4734TIP3    H235694   1.930   3.695   4.731  1.2053 -1.0161  0.6866
 4735TIP3   OH235695   4.972   4.226  14.705 -0.3612  0.2831  0.8359
 4735TIP3    H135696   5.044   4.289  14.706  0.4544 -0.5401 -1.5119
 4735TIP3    H235697   4.896   4.278  14.678  0.4866  0.1927 -2.0009
 4736TIP3   OH235698   6.167   3.249   4.486 -0.3708 -0.0037  0.3282
 4736TIP3    H135699   6.202   3.305   4.554  0.0061  0.2313 -0.0526
 4736TIP3    H235700   6.088   3.210   4.524  1.2138 -1.9107  1.8507
 4737TIP3   OH235701   0.007   0.499   0.973 -0.3375 -0.1194  0.3400
 4737TIP3    H135702  -0.060   0.520   1.038 -2.3595 -2.2808 -0.9190
 4737TIP3    H235703   0.060   0.430   1.013 -0.8927 -0.6720  0.1322
 4738TIP3   OH235704   4.369   6.207   5.653 -0.1307 -0.0661 -0.3464
 4738TIP3    H135705   4.275   6.218   5.644 -0.3967  2.2171  3.2246
 4738TIP3    H235706   4.405   6.295   5.636  1.0198 -0.2457  0.9693
 4739TIP3   OH235707   4.005   3.093   0.001 -0.1788 -0.4200  0.2869
 4739TIP3    H135708   3.954   3.074  -0.078  0.9964 -2.4766 -0.0695
 4739TIP3    H235709   4.030   3.007   0.034  0.1509  0.4297  2.4009
 4740TIP3   OH235710   2.290   3.228  13.743  0.5520  0.5143  0.1997
 4740TIP3    H135711   2.234   3.292  13.787 -0.6785 -1.0648  1.0372
 4740TIP3    H235712   2.331   3.179  13.815  0.8727 -0.1354 -0.4191
 4741TIP3   OH235713   0.886   6.672   5.746  0.1335  0.0733  0.3595
 4741TIP3    H135714   0.790   6.667   5.754 -0.0878  3.3797  1.0613
 4741TIP3    H235715   0.916   6.705   5.830  1.6168  1.4293 -0.6419
 4742TIP3   OH235716   4.648   2.078  15.825  0.0359  0.5821 -0.4046
 4742TIP3    H135717   4.703   2.036  15.891 -0.7020 -1.0136 -0.7564
 4742TIP3    H235718   4.674   2.170  15.828  1.9058  0.0873  0.2236
 4743TIP3   OH235719   0.401   5.864   0.740 -0.5486  0.4543 -0.6426
 4743TIP3    H135720   0.389   5.809   0.662 -1.1913 -0.8125  0.3110
 4743TIP3    H235721   0.338   5.936   0.729 -0.4912  0.3982 -1.3829
 4744TIP3   OH235722   6.743   1.448  15.576  0.7876 -0.0268 -0.3661
 4744TIP3    H135723   6.707   1.487  15.656 -0.6347  1.3372 -1.5944
 4744TIP3    H235724   6.708   1.359  15.575  0.4110  0.1078  0.3047
 4745TIP3   OH235725   0.875   4.095   0.919  0.9140  0.3327  0.1716
 4745TIP3    H135726   0.844   4.033   0.853  0.0406  1.2645 -0.3194
 4745TIP3    H235727   0.840   4.062   1.001  0.6228  0.0625 -0.0592
 4746TIP3   OH235728   5.286   4.573  16.850 -0.2964  0.3285 -0.8516
 4746TIP3    H135729   5.379   4.553  16.862 -0.0970  1.2125 -0.8811
 4746TIP3    H235730   5.243   4.488  16.852  0.6961 -0.2627 -2.4905
 4747TIP3   OH235731   1.348   5.830  14.565 -0.8941 -0.4490 -0.2693
 4747TIP3    H135732   1.409   5.885  14.614 -3.0170  2.8252 -0.9994
 4747TIP3    H235733   1.275   5.815  14.625 -0.6157 -2.0756 -0.2877
 4748TIP3   OH235734   5.715   5.100   6.220  0.2495  0.2600  0.0789
 4748TIP3    H135735   5.711   5.195   6.233 -1.6947  0.3647 -0.8504
 4748TIP3    H235736   5.676   5.063   6.300 -1.5322  0.4084 -0.6772
 4749TIP3   OH235737   2.454   6.133  15.963  0.3981 -0.4015 -0.0534
 4749TIP3    H135738   2.417   6.058  16.010  0.8846  0.5185  1.9095
 4749TIP3    H235739   2.546   6.110  15.949  0.5419 -0.2085  0.5301
 4750TIP3   OH235740   2.522   0.432  17.022 -0.2443  0.1681 -0.0570
 4750TIP3    H135741   2.614   0.456  17.015 -0.3014  0.4303  0.0691
 4750TIP3    H235742   2.491   0.479  17.099 -0.3620 -0.3045  0.1918
 4751TIP3   OH235743   3.168   2.150  16.470  0.8823  0.0849 -0.3834
 4751TIP3    H135744   3.078   2.165  16.500 -0.1652 -1.1462 -2.6598
 4751TIP3    H235745   3.213   2.115  16.547 -0.6319  0.4696  0.7409
 4752TIP3   OH235746   1.616   6.106   0.246 -0.9436 -0.1075 -0.2518
 4752TIP3    H135747   1.613   6.181   0.305  0.5097  0.2094 -0.5656
 4752TIP3    H235748   1.623   6.030   0.305  0.1137  0.1807  0.0129
 4753TIP3   OH235749   6.068   1.497   0.781  0.0487 -0.0790  0.0615
 4753TIP3    H135750   6.093   1.457   0.698  2.9193  1.2640  0.1532
 4753TIP3    H235751   5.976   1.522   0.769 -0.1225 -1.4712 -2.0356
 4754TIP3   OH235752   5.098   4.021   4.112  0.2539 -0.7848  0.2563
 4754TIP3    H135753   5.107   4.000   4.205 -2.8780 -1.1055  0.5901
 4754TIP3    H235754   5.165   3.967   4.069  1.9028 -0.4902  2.2936
 4755TIP3   OH235755   3.537   2.633  13.091 -0.6227  0.4592  0.2167
 4755TIP3    H135756   3.508   2.622  13.001  0.9853  0.0609 -0.2776
 4755TIP3    H235757   3.616   2.685  13.086 -1.0057  1.2181  1.4957
 4756TIP3   OH235758   5.754   3.229   5.384 -0.0070  0.7581 -0.0848
 4756TIP3    H135759   5.805   3.256   5.308  1.3233 -2.1654 -0.3646
 4756TIP3    H235760   5.781   3.289   5.453 -0.3182  2.6863 -1.5403
 4757TIP3   OH235761   4.785   4.450  15.013 -0.6439 -0.2487 -0.1405
 4757TIP3    H135762   4.864   4.491  15.047  0.0313 -0.0310 -1.8397
 4757TIP3    H235763   4.751   4.513  14.949 -1.7155 -0.7100 -0.0542
 4758TIP3   OH235764   5.873   4.218   5.896  0.0274  0.9640  0.1080
 4758TIP3    H135765   5.960   4.206   5.859 -0.5807  1.5796 -1.6317
 4758TIP3    H235766   5.867   4.153   5.966  0.9143 -0.9156 -1.4844
 4759TIP3   OH235767   4.206   5.955  11.546 -0.0928 -0.0611  0.6061
 4759TIP3    H135768   4.228   5.966  11.453 -0.1236 -1.5868  0.3939
 4759TIP3    H235769   4.222   6.042  11.584 -2.6667  1.3867 -1.2975
 4760TIP3   OH235770   3.280   2.361   0.194  0.2994 -0.1102  0.5576
 4760TIP3    H135771   3.250   2.373   0.104  1.6393 -1.8681 -0.1837
 4760TIP3    H235772   3.224   2.419   0.246 -2.6537 -1.3547 -0.9881
 4761TIP3   OH235773   4.627   1.073   5.048  0.3374 -0.0766 -0.2090
 4761TIP3    H135774   4.679   1.078   4.968  2.0213  1.1491  0.8721
 4761TIP3    H235775   4.687   1.035   5.113 -0.0503  1.4390  1.1013
 4762TIP3   OH235776   2.293   6.218  15.227  0.2995 -0.5392 -0.7079
 4762TIP3    H135777   2.288   6.226  15.322 -0.4841  1.6369 -0.8762
 4762TIP3    H235778   2.345   6.293  15.198 -1.4260  0.2069 -2.1187
 4763TIP3   OH235779   2.381   4.776   3.248 -0.6697 -0.2879  0.3222
 4763TIP3    H135780   2.375   4.759   3.154 -0.3699 -1.6384  0.5278
 4763TIP3    H235781   2.451   4.841   3.256 -1.0162  0.1887 -0.4189
 4764TIP3   OH235782   6.204   4.602   6.208  0.3765  0.1140 -0.6933
 4764TIP3    H135783   6.219   4.550   6.287  1.3047 -0.0639 -0.9676
 4764TIP3    H235784   6.263   4.677   6.218 -0.3795  0.7120 -0.6674
 4765TIP3   OH235785   3.294   6.636   3.810 -0.1861 -0.1293  0.5669
 4765TIP3    H135786   3.240   6.695   3.863  0.9638  0.4292  1.1329
 4765TIP3    H235787   3.356   6.693   3.765  0.9960 -0.9116  1.1790
 4766TIP3   OH235788   5.168   2.925   4.704 -0.4569  0.0156 -0.9294
 4766TIP3    H135789   5.190   2.967   4.620 -0.5977  2.4136  0.1579
 4766TIP3    H235790   5.241   2.947   4.762 -1.3989  0.3079  0.1833
 4767TIP3   OH235791   0.745   5.961   2.090 -0.3346  0.0993  0.8560
 4767TIP3    H135792   0.677   6.015   2.050  0.1199 -0.6795 -1.0712
 4767TIP3    H235793   0.816   6.022   2.110 -0.6165  0.5208  0.5827
 4768TIP3   OH235794   5.124   0.041   2.313  0.4130  0.2691  0.2802
 4768TIP3    H135795   5.144   0.082   2.229  1.6838 -0.8135  0.0289
 4768TIP3    H235796   5.168   0.095   2.378 -0.9575  1.3803  0.3373
 4769TIP3   OH235797   1.356   6.755   2.158 -0.3693  0.3641 -0.1292
 4769TIP3    H135798   1.338   6.823   2.092  0.4209  0.4713 -0.2454
 4769TIP3    H235799   1.283   6.694   2.150 -0.0404  0.1106 -1.4662
 4770TIP3   OH235800   0.225   2.819   0.203 -0.9162 -0.0016  0.0658
 4770TIP3    H135801   0.130   2.811   0.211 -1.0533  0.5281 -0.8051
 4770TIP3    H235802   0.244   2.908   0.234 -0.9912  0.6564 -1.6350
 4771TIP3   OH235803   6.334   5.921   3.457  0.1533 -0.2115  0.3661
 4771TIP3    H135804   6.406   5.984   3.446 -0.5399  0.3718 -1.1707
 4771TIP3    H235805   6.378   5.838   3.473  1.1745  0.2309 -0.0047
 4772TIP3   OH235806   0.463   4.107  16.713 -0.5863  0.0324 -0.1484
 4772TIP3    H135807   0.515   4.040  16.668  0.7204 -1.0508  2.7560
 4772TIP3    H235808   0.397   4.058  16.761  0.0346  0.8183  1.5703
 4773TIP3   OH235809   5.008   0.393   3.068 -0.1971  0.1155 -0.0921
 4773TIP3    H135810   4.939   0.438   3.018  0.2357  1.4087  0.4157
 4773TIP3    H235811   5.026   0.453   3.141  0.7607 -0.6829  0.3389
 4774TIP3   OH235812   0.299   5.205  13.682  0.6339 -0.0496 -0.5698
 4774TIP3    H135813   0.366   5.166  13.626  0.4063  0.0745 -0.9366
 4774TIP3    H235814   0.216   5.181  13.639  0.4714  0.3276 -0.4687
 4775TIP3   OH235815   2.392   2.215   0.527 -0.0745 -0.1251  0.2177
 4775TIP3    H135816   2.381   2.299   0.483 -2.1956 -0.5424 -0.1553
 4775TIP3    H235817   2.373   2.150   0.460 -2.1385 -0.8033  1.3713
 4776TIP3   OH235818   6.094   2.613  12.694  0.2809 -0.0518  0.1256
 4776TIP3    H135819   6.035   2.599  12.620 -0.3635 -0.1890  0.6570
 4776TIP3    H235820   6.177   2.575  12.666 -0.4028 -1.6120  0.1113
 4777TIP3   OH235821   1.369   1.967   4.774 -0.9521 -0.2392  0.0461
 4777TIP3    H135822   1.329   1.888   4.737  0.6668 -1.4168  0.6646
 4777TIP3    H235823   1.441   1.934   4.828 -0.1017  1.6866  0.1830
 4778TIP3   OH235824   3.522   6.664   1.735 -0.7209 -0.1353  0.2097
 4778TIP3    H135825   3.579   6.721   1.786 -3.2078  3.5336 -0.7410
 4778TIP3    H235826   3.552   6.675   1.645 -0.8399 -0.8771  0.0700
 4779TIP3   OH235827   3.619   3.462   3.790 -0.6273 -0.6134  1.5065
 4779TIP3    H135828   3.707   3.434   3.766  0.3095  2.0845  1.4442
 4779TIP3    H235829   3.568   3.453   3.710  0.1689 -0.2101  0.9323
 4780TIP3   OH235830   3.383   2.917  15.338  0.2935  0.0947  0.3429
 4780TIP3    H135831   3.333   2.934  15.259 -0.5925 -1.7723  0.4676
 4780TIP3    H235832   3.319   2.888  15.402  1.2719 -0.4479  1.1088
 4781TIP3   OH235833   3.620   0.288   0.091  0.0294  0.3012 -0.2334
 4781TIP3    H135834   3.620   0.359   0.026  0.8469 -2.2954 -3.3074
 4781TIP3    H235835   3.530   0.285   0.123 -0.8176  0.7862 -2.3846
 4782TIP3   OH235836   0.650   3.368   1.759 -0.1311  0.0517  0.3647
 4782TIP3    H135837   0.684   3.456   1.738  2.7410 -1.3289 -1.4069
 4782TIP3    H235838   0.603   3.342   1.679  0.9797 -0.8375 -0.0246
 4783TIP3   OH235839   2.692   3.367   6.221 -0.5158 -0.1143 -0.5787
 4783TIP3    H135840   2.765   3.427   6.204 -0.3687 -0.5710 -1.6423
 4783TIP3    H235841   2.719   3.317   6.297 -1.7461  2.9105  2.1013
 4784TIP3   OH235842   4.669   1.681  14.299 -0.1407  0.1034  0.0780
 4784TIP3    H135843   4.637   1.629  14.373  1.4348 -0.4163  0.4258
 4784TIP3    H235844   4.763   1.689  14.313  0.2579 -0.2368 -2.0135
 4785TIP3   OH235845   0.154   6.133   5.765 -0.2358 -0.4562  0.2861
 4785TIP3    H135846   0.195   6.203   5.715  1.3494  0.0043  2.1472
 4785TIP3    H235847   0.209   6.056   5.748 -1.4118 -1.0867 -0.9679
 4786TIP3   OH235848   3.790   3.703  12.903  0.1490 -0.0441  0.6862
 4786TIP3    H135849   3.708   3.677  12.861  0.6226 -0.6907  0.1471
 4786TIP3    H235850   3.811   3.631  12.962  1.1337 -0.6247 -0.3406
 4787TIP3   OH235851   1.575   6.203   2.610 -0.0048 -0.2951 -0.1735
 4787TIP3    H135852   1.611   6.158   2.533  1.6053 -2.1159  1.5287
 4787TIP3    H235853   1.608   6.292   2.604 -1.2632  0.0859 -2.3976
 4788TIP3   OH235854   6.562   2.056  14.072 -0.1712 -0.0549 -0.7475
 4788TIP3    H135855   6.649   2.022  14.050 -0.4611  0.1634 -2.4118
 4788TIP3    H235856   6.559   2.141  14.027 -0.2277  1.2790  1.5938
 4789TIP3   OH235857   6.029   0.070   5.503 -0.1369 -0.0842 -0.1894
 4789TIP3    H135858   6.067  -0.013   5.531  0.5911  0.7290  1.4183
 4789TIP3    H235859   5.935   0.052   5.496 -0.0255 -0.9913  0.4089
 4790TIP3   OH235860   2.331   1.917   0.504  0.2694 -0.2389  0.1361
 4790TIP3    H135861   2.350   1.835   0.550  0.0021 -0.8880 -0.8926
 4790TIP3    H235862   2.415   1.941   0.463 -0.4033 -1.8446 -2.4116
 4791TIP3   OH235863   4.327   1.424  12.566  0.3652 -0.0795  0.5531
 4791TIP3    H135864   4.397   1.423  12.631  0.4719  0.0221  0.4386
 4791TIP3    H235865   4.369   1.453  12.485 -0.4727  3.6552  1.2484
 4792TIP3   OH235866   6.586   5.261  17.363 -0.0889 -0.8233  0.1315
 4792TIP3    H135867   6.678   5.259  17.338 -0.3443 -1.4650 -0.8216
 4792TIP3    H235868   6.576   5.189  17.425  0.3566  0.2023  1.4306
 4793TIP3   OH235869   5.825   5.774  17.419  0.3041 -0.2584  0.4662
 4793TIP3    H135870   5.732   5.776  17.443  0.2158 -2.2978  0.4888
 4793TIP3    H235871   5.865   5.844  17.470 -1.2706  0.9102  0.1608
 4794TIP3   OH235872   2.591   4.450   2.842 -0.7831 -0.7434 -0.0949
 4794TIP3    H135873   2.622   4.370   2.884  0.7727 -0.8561 -1.3579
 4794TIP3    H235874   2.627   4.446   2.754  0.0143  1.7113  0.0454
 4795TIP3   OH235875   3.356   3.937   0.256 -0.0643 -0.6353  0.0010
 4795TIP3    H135876   3.282   3.877   0.255  0.0936 -0.8290 -0.5770
 4795TIP3    H235877   3.357   3.975   0.168  0.9720 -1.2034 -0.2452
 4796TIP3   OH235878   2.474   4.731  16.586 -0.0740 -0.3221  0.7969
 4796TIP3    H135879   2.470   4.773  16.500 -0.2783 -0.9876  0.4693
 4796TIP3    H235880   2.529   4.653  16.572 -0.2219 -0.5113  1.2333
 4797TIP3   OH235881   0.080   6.179   1.608  0.1599  0.4679 -0.0957
 4797TIP3    H135882   0.126   6.232   1.544 -0.2400  0.7570 -0.1520
 4797TIP3    H235883   0.137   6.178   1.685  0.9853 -0.4920 -0.6992
 4798TIP3   OH235884   0.622   1.387   2.303  0.2564  0.2619 -1.4085
 4798TIP3    H135885   0.603   1.308   2.353 -0.8851  1.9444  1.0032
 4798TIP3    H235886   0.715   1.405   2.319  0.1014  0.3252 -0.5745
 4799TIP3   OH235887   4.880   0.564  13.550 -0.0993 -0.6877  0.1119
 4799TIP3    H135888   4.845   0.649  13.576  0.8854 -0.0525 -0.5821
 4799TIP3    H235889   4.913   0.577  13.462 -0.5590 -1.9843 -0.2784
 4800TIP3   OH235890   1.761   0.999  16.150 -0.3665  0.1052  0.5142
 4800TIP3    H135891   1.764   1.091  16.177 -0.0499  0.2980 -0.1707
 4800TIP3    H235892   1.698   0.958  16.210 -1.0107  0.9030  0.3932
 4801TIP3   OH235893   5.593   5.358   2.743 -0.4415 -0.3449  0.2248
 4801TIP3    H135894   5.586   5.362   2.647  1.0149  0.2805  0.1286
 4801TIP3    H235895   5.507   5.388   2.774 -0.9284 -0.5420 -0.8704
 4802TIP3   OH235896   3.946   3.703  16.361 -0.6028 -0.0872 -0.0167
 4802TIP3    H135897   3.966   3.786  16.402  0.3532  0.5795 -1.7220
 4802TIP3    H235898   4.002   3.639  16.407  0.3988  0.6177 -0.2156
 4803TIP3   OH235899   1.532   0.381   0.651  0.1221 -0.2017  0.3478
 4803TIP3    H135900   1.561   0.467   0.682  2.1578 -1.0503  0.9963
 4803TIP3    H235901   1.524   0.329   0.731  0.0237 -0.9110 -0.1181
 4804TIP3   OH235902   4.331   6.416  12.166  0.0402  0.2044 -0.4288
 4804TIP3    H135903   4.267   6.391  12.099  0.5367 -0.3363 -0.7174
 4804TIP3    H235904   4.411   6.435  12.116  0.0008  1.2566 -0.1102
 4805TIP3   OH235905   1.988   3.666   0.987 -0.8726 -0.0179 -0.0801
 4805TIP3    H135906   1.989   3.575   0.958 -4.1550 -0.2814  0.1754
 4805TIP3    H235907   1.975   3.660   1.082 -4.3182  0.5107 -0.3814
 4806TIP3   OH235908   5.297   2.573   4.438 -0.6148 -0.2776 -0.0182
 4806TIP3    H135909   5.331   2.641   4.496 -2.0073  0.7453 -0.3755
 4806TIP3    H235910   5.277   2.500   4.497  1.6998 -0.7737  0.2640
 4807TIP3   OH235911   4.410   6.443   4.869 -0.1998 -0.3225 -0.2097
 4807TIP3    H135912   4.424   6.355   4.832 -0.0130 -0.5243  0.3330
 4807TIP3    H235913   4.347   6.429   4.939  0.1959 -0.0949  0.1904
 4808TIP3   OH235914   1.970   1.921   2.127  0.2160 -0.0104 -0.3232
 4808TIP3    H135915   1.990   1.968   2.207  1.6154  0.9063 -1.1730
 4808TIP3    H235916   1.880   1.891   2.139 -0.1266  1.3979  0.9570
 4809TIP3   OH235917   2.669   6.407  16.146  0.3191 -0.5885  0.1548
 4809TIP3    H135918   2.576   6.386  16.157  0.1523 -0.1502 -0.3289
 4809TIP3    H235919   2.698   6.352  16.073  0.6160 -1.2206  0.7456
 4810TIP3   OH235920   2.961   5.990   6.022  0.1132  0.2025  0.1170
 4810TIP3    H135921   2.999   5.948   5.945 -0.6441 -0.5470  0.1332
 4810TIP3    H235922   2.892   5.930   6.050  0.1563  0.6280  1.1800
 4811TIP3   OH235923   0.103   3.680  11.233 -0.3724 -0.2531 -0.4824
 4811TIP3    H135924   0.036   3.638  11.286 -1.3016  0.1630 -1.3012
 4811TIP3    H235925   0.055   3.720  11.161  0.7236  0.3502 -0.8986
 4812TIP3   OH235926   0.514   6.196   0.430 -0.1414  0.2135  0.7861
 4812TIP3    H135927   0.486   6.189   0.339 -0.1636  1.1459  0.7189
 4812TIP3    H235928   0.535   6.106   0.455  1.5120  0.1468 -0.6462
 4813TIP3   OH235929   1.269   4.970  16.507  0.0406 -0.3214  0.4191
 4813TIP3    H135930   1.318   5.050  16.488 -2.0657  0.4626 -2.4014
 4813TIP3    H235931   1.302   4.906  16.443 -1.6689 -0.1605 -0.6595
 4814TIP3   OH235932   0.187   0.326   0.581  0.3574 -0.3675  0.2734
 4814TIP3    H135933   0.128   0.299   0.652  0.9785  0.7709  1.2474
 4814TIP3    H235934   0.194   0.248   0.526 -2.6063 -0.3469 -0.2827
 4815TIP3   OH235935   0.835   2.484  15.385  0.5656  0.7200  0.0532
 4815TIP3    H135936   0.859   2.505  15.475 -1.3481 -0.2681  0.8659
 4815TIP3    H235937   0.899   2.419  15.357  1.4911  1.4291  0.5026
 4816TIP3   OH235938   5.073   3.448   1.568 -0.3747 -0.4706  0.2127
 4816TIP3    H135939   5.126   3.376   1.604  0.6634  0.4272  0.5332
 4816TIP3    H235940   5.127   3.486   1.499 -0.9865 -0.1095 -0.0738
 4817TIP3   OH235941   4.896   2.657  11.720  0.0545  0.5971  0.1193
 4817TIP3    H135942   4.967   2.720  11.721  2.4588 -1.9077  0.1151
 4817TIP3    H235943   4.883   2.634  11.812  0.3381 -0.0585  0.0009
 4818TIP3   OH235944   4.469   3.227  16.546  0.6508  0.0767 -0.4101
 4818TIP3    H135945   4.543   3.248  16.489  0.9595 -1.4761 -0.6520
 4818TIP3    H235946   4.406   3.185  16.487  0.8062 -1.1864  0.2896
 4819TIP3   OH235947   1.702   6.175  16.312  0.4977 -0.4736 -0.4717
 4819TIP3    H135948   1.647   6.135  16.380  3.5123 -0.2048  2.4286
 4819TIP3    H235949   1.659   6.258  16.292 -0.3969 -0.4323  1.3796
 4820TIP3   OH235950   3.303   0.191   5.088  0.4088 -0.4460 -0.3246
 4820TIP3    H135951   3.288   0.272   5.040  1.0580  0.0021  0.2232
 4820TIP3    H235952   3.216   0.165   5.119  0.1966  0.0202 -0.5313
 4821TIP3   OH235953   6.442   2.622  14.695 -0.3570  0.2224 -0.4871
 4821TIP3    H135954   6.527   2.583  14.673  0.9224  3.1237 -1.0704
 4821TIP3    H235955   6.378   2.560  14.660  1.5306 -0.3224 -3.3358
 4822TIP3   OH235956   4.140   6.705   2.923  0.3889 -0.3614 -0.2446
 4822TIP3    H135957   4.221   6.695   2.874  1.5611  1.4005  1.2193
 4822TIP3    H235958   4.164   6.757   3.000 -2.3985  1.6141 -0.5344
 4823TIP3   OH235959   4.807   6.204  13.223 -0.0573 -0.1902 -0.5546
 4823TIP3    H135960   4.758   6.127  13.249  0.5942 -0.2164  0.7160
 4823TIP3    H235961   4.757   6.242  13.151 -0.9494 -1.1974 -0.4894
 4824TIP3   OH235962   6.022   4.320   3.784 -0.4120 -0.4281  0.0398
 4824TIP3    H135963   6.026   4.389   3.850  2.5521 -1.5910  1.2906
 4824TIP3    H235964   5.960   4.256   3.820 -0.8866  0.2102  0.3614
 4825TIP3   OH235965   3.156   5.831  13.655 -0.5105  0.0684 -0.6863
 4825TIP3    H135966   3.109   5.903  13.697 -1.3948  0.7329 -2.6913
 4825TIP3    H235967   3.245   5.863  13.643 -0.7834  0.6688 -1.1429
 4826TIP3   OH235968   3.161   1.724   5.412  0.0816  0.1438  0.1779
 4826TIP3    H135969   3.177   1.772   5.493 -1.2892 -0.5559  0.8965
 4826TIP3    H235970   3.079   1.677   5.427 -1.0434  1.1780 -2.1402
 4827TIP3   OH235971   2.314   5.868   4.224  0.7997  0.6723  0.4013
 4827TIP3    H135972   2.314   5.954   4.265  1.8654  0.8945 -0.0448
 4827TIP3    H235973   2.250   5.875   4.153 -0.4879  0.5170  1.4965
 4828TIP3   OH235974   1.667   4.116  13.263 -0.0379 -0.0312  0.9586
 4828TIP3    H135975   1.607   4.141  13.193  0.6200 -0.0338  0.3791
 4828TIP3    H235976   1.613   4.111  13.341 -0.4644  1.8253  0.8220
 4829TIP3   OH235977   2.948   0.699  13.704  0.0795  0.5025 -0.8355
 4829TIP3    H135978   2.987   0.684  13.618 -0.0762 -0.2499 -0.7863
 4829TIP3    H235979   2.967   0.791  13.724  2.2242  0.0600 -0.6181
 4830TIP3   OH235980   2.142   6.230  17.244  0.5366  0.3477  0.1720
 4830TIP3    H135981   2.137   6.137  17.221 -0.0947  0.2320  0.7491
 4830TIP3    H235982   2.175   6.273  17.165  0.5522 -0.3255 -0.1893
 4831TIP3   OH235983   4.421   2.122   1.216  0.1541  0.3481  0.4374
 4831TIP3    H135984   4.407   2.100   1.124 -2.3728  0.3990  0.7394
 4831TIP3    H235985   4.516   2.124   1.226  0.4908 -0.4953 -1.9533
 4832TIP3   OH235986   6.535   1.495   6.629 -0.3072 -0.2214 -0.6395
 4832TIP3    H135987   6.590   1.418   6.636 -1.1118 -0.7039  0.6959
 4832TIP3    H235988   6.588   1.558   6.580  2.2639  0.0417  2.1758
 4833TIP3   OH235989   0.987   1.891   2.144 -0.2398  0.4841 -0.7937
 4833TIP3    H135990   1.050   1.937   2.090  0.5502 -0.7758 -1.0014
 4833TIP3    H235991   1.005   1.798   2.127 -1.1995  0.0885  0.2405
 4834TIP3   OH235992   3.648   6.094   5.503  0.2172 -0.3669  0.1888
 4834TIP3    H135993   3.716   6.151   5.539 -0.0884 -0.3682  0.7816
 4834TIP3    H235994   3.568   6.121   5.549 -0.3106  0.0602 -0.9372
 4835TIP3   OH235995   6.440   0.851   2.476  0.6524 -0.0623 -0.1366
 4835TIP3    H135996   6.493   0.772   2.490 -0.3454 -0.7199  0.0528
 4835TIP3    H235997   6.352   0.818   2.456  0.1410  1.0033  0.2646
 4836TIP3   OH235998   6.451   0.291   3.712 -0.1828  0.0991 -0.1136
 4836TIP3    H135999   6.444   0.383   3.689  0.0691 -0.0303 -0.7237
 4836TIP3    H236000   6.519   0.257   3.654 -1.1612 -0.7634 -0.7985
 4837TIP3   OH236001   5.906   0.452  11.026  0.8906 -0.0369  0.4075
 4837TIP3    H136002   5.969   0.487  11.088  0.0504  0.3936  1.0345
 4837TIP3    H236003   5.861   0.529  10.991  1.3431 -0.2707 -0.7433
 4838TIP3   OH236004   5.256   3.755  12.367 -0.1801  0.5904  0.8393
 4838TIP3    H136005   5.185   3.777  12.307  0.3705 -1.5822 -0.7304
 4838TIP3    H236006   5.218   3.691  12.428  0.2664 -0.1879  0.3162
 4839TIP3   OH236007   3.196   3.053   1.301  0.1220  0.0556  0.4246
 4839TIP3    H136008   3.160   3.005   1.375  1.4968  0.9354  1.7210
 4839TIP3    H236009   3.242   2.987   1.249  1.7792 -0.1284  2.0404
 4840TIP3   OH236010   3.856   1.198  10.543 -0.3656  0.2007  1.0019
 4840TIP3    H136011   3.863   1.108  10.513  1.4098  0.7738 -0.5441
 4840TIP3    H236012   3.933   1.241  10.505 -1.0764  2.3175  1.8348
 4841TIP3   OH236013   0.052   4.574   5.700 -0.2035 -0.3792  0.5847
 4841TIP3    H136014   0.018   4.644   5.644  0.4909 -0.8132 -0.4062
 4841TIP3    H236015   0.124   4.536   5.650  0.2535 -0.9738  1.6625
 4842TIP3   OH236016   6.337   1.993   1.653  0.3483  0.5017 -0.4552
 4842TIP3    H136017   6.324   1.901   1.629  0.7903 -0.3050  2.1318
 4842TIP3    H236018   6.254   2.035   1.632 -0.8844 -1.1190  0.8588
 4843TIP3   OH236019   3.258   5.534  17.346 -0.0971 -0.4601 -0.1894
 4843TIP3    H136020   3.330   5.589  17.316 -0.2604 -0.5308 -0.7269
 4843TIP3    H236021   3.298   5.449  17.364 -0.0123 -0.4400 -0.2858
 4844TIP3   OH236022   6.223   5.232  16.821 -0.3655  0.1334  0.0749
 4844TIP3    H136023   6.289   5.250  16.753 -0.7360 -0.9116 -0.5946
 4844TIP3    H236024   6.191   5.318  16.847  1.7729  0.7221  0.9549
 4845TIP3   OH236025   1.776   6.282   2.258  0.9202 -0.1215 -0.2921
 4845TIP3    H136026   1.692   6.277   2.213  0.8171 -0.2559 -0.0863
 4845TIP3    H236027   1.774   6.209   2.320  0.5086  0.8569  0.8722
 4846TIP3   OH236028   1.611   6.229  13.899  0.4581  0.0983  0.0597
 4846TIP3    H136029   1.697   6.267  13.916  0.8272 -0.4226 -0.6311
 4846TIP3    H236030   1.622   6.179  13.819  0.1814 -2.1075  1.3195
 4847TIP3   OH236031   3.894   3.156  16.189 -0.2196  0.0101 -0.1109
 4847TIP3    H136032   3.835   3.220  16.230  1.9096  1.6871  0.5206
 4847TIP3    H236033   3.899   3.183  16.098 -0.5313 -0.2361 -0.2036
 4848TIP3   OH236034   4.774   1.465  14.182 -0.0499  0.2583 -0.1052
 4848TIP3    H136035   4.721   1.542  14.202  0.4821  0.8543 -0.9141
 4848TIP3    H236036   4.728   1.392  14.224 -2.6002  0.4107 -2.3650
 4849TIP3   OH236037   4.640   3.904  16.716 -0.2101 -0.0719 -0.5665
 4849TIP3    H136038   4.627   3.890  16.810 -0.9451  1.1375 -0.4707
 4849TIP3    H236039   4.676   3.821  16.685  2.5601  0.3156  1.2112
 4850TIP3   OH236040   1.815   4.022   2.652  0.0961  0.0545  0.4135
 4850TIP3    H136041   1.792   4.024   2.559  0.2489  1.1425  0.3874
 4850TIP3    H236042   1.866   3.942   2.662  0.0702 -0.0813 -0.4398
 4851TIP3   OH236043   5.057   1.732  13.308  0.2803  0.1230  0.0283
 4851TIP3    H136044   5.066   1.776  13.224  1.5662 -1.7018 -0.8446
 4851TIP3    H236045   4.990   1.665  13.293  0.1026  0.1630  0.6227
 4852TIP3   OH236046   5.749   2.874   1.624  0.1411  0.0596 -0.0619
 4852TIP3    H136047   5.797   2.940   1.573  0.0605 -0.5640 -0.9754
 4852TIP3    H236048   5.800   2.794   1.612 -1.6895 -0.9054 -2.0158
 4853TIP3   OH236049   6.150   4.396  11.996  0.2318 -0.6956 -0.3950
 4853TIP3    H136050   6.242   4.399  12.024  0.3200  1.2388 -0.7788
 4853TIP3    H236051   6.149   4.440  11.911 -1.0587 -0.7014 -0.4056
 4854TIP3   OH236052   1.486   1.938  16.199  0.2448  0.3123  0.0236
 4854TIP3    H136053   1.447   1.988  16.270 -0.4017  0.9113 -0.7267
 4854TIP3    H236054   1.462   1.986  16.120  2.4999  0.6944 -0.4871
 4855TIP3   OH236055   2.124   6.088   4.348  0.2713  0.2016 -0.1438
 4855TIP3    H136056   2.120   6.004   4.395  0.6956 -0.8277 -1.8373
 4855TIP3    H236057   2.081   6.070   4.265  0.5005  1.6399 -0.5952
 4856TIP3   OH236058   5.487   6.598   1.951 -0.2189 -0.1620 -0.1519
 4856TIP3    H136059   5.432   6.655   1.897 -1.4440 -0.7379  0.4449
 4856TIP3    H236060   5.439   6.515   1.953  0.5278 -0.5832  0.6583
 4857TIP3   OH236061   4.526   6.107   5.251 -0.3336  0.3072  0.2785
 4857TIP3    H136062   4.451   6.050   5.234 -0.5894  0.6346  0.2931
 4857TIP3    H236063   4.585   6.054   5.304  0.0238 -0.3905 -0.7823
 4858TIP3   OH236064   6.739   2.699  16.962 -0.1426  0.4823  0.0309
 4858TIP3    H136065   6.809   2.640  16.933  2.3565  3.2911 -0.0440
 4858TIP3    H236066   6.706   2.738  16.881  1.7446  2.8041  0.2543
 4859TIP3   OH236067   6.519   2.891  17.473 -0.7616  0.2058  0.4357
 4859TIP3    H136068   6.438   2.849  17.442 -0.3735  0.3345 -0.8276
 4859TIP3    H236069   6.545   2.948  17.401  1.6114 -1.4310 -0.1312
 4860TIP3   OH236070   0.685   0.101  15.399 -0.1515 -0.3491  0.0633
 4860TIP3    H136071   0.779   0.081  15.394 -0.1719 -0.7555  1.1219
 4860TIP3    H236072   0.670   0.126  15.490 -1.2469 -1.2636  0.1592
 4861TIP3   OH236073   2.270   2.878   0.070  0.3501 -0.1993 -0.2274
 4861TIP3    H136074   2.255   2.861  -0.023  2.5492 -0.5786 -0.5707
 4861TIP3    H236075   2.255   2.972   0.080  0.4981 -0.0818 -1.0418
 4862TIP3   OH236076   1.314   3.237  12.889 -0.4078 -0.0124 -0.3385
 4862TIP3    H136077   1.326   3.323  12.850 -0.1136  0.3159  0.4486
 4862TIP3    H236078   1.243   3.249  12.952  0.2064 -0.1153  0.4003
 4863TIP3   OH236079   4.103   0.472   6.032 -0.0390  0.6270  0.1517
 4863TIP3    H136080   4.162   0.512   5.969 -1.1362 -1.7454 -2.5890
 4863TIP3    H236081   4.018   0.514   6.016 -0.9398 -1.7214 -1.9854
 4864TIP3   OH236082   2.764   2.688  14.813 -0.1361  0.5215 -0.3924
 4864TIP3    H136083   2.757   2.638  14.893 -4.0442  0.5027 -0.5549
 4864TIP3    H236084   2.797   2.774  14.841 -0.1262  0.0939  0.9704
 4865TIP3   OH236085   4.492   4.301   4.955  0.1422 -0.6134 -0.1203
 4865TIP3    H136086   4.527   4.231   5.009 -2.4025 -2.1453 -0.2831
 4865TIP3    H236087   4.452   4.256   4.881 -0.4193  1.1297 -0.9359
 4866TIP3   OH236088   0.414   6.469  15.688  0.2286 -0.0308 -0.2206
 4866TIP3    H136089   0.474   6.543  15.681  0.5362 -0.2075  0.4756
 4866TIP3    H236090   0.327   6.508  15.682  0.3825  0.4176  0.3622
 4867TIP3   OH236091   5.554   4.630  12.431 -0.1145 -0.1788 -0.1302
 4867TIP3    H136092   5.488   4.639  12.362 -0.6345 -0.2559  0.3554
 4867TIP3    H236093   5.637   4.645  12.386 -0.5963  2.3698 -0.3175
 4868TIP3   OH236094   4.703   1.298  15.227  0.3779 -0.4804 -0.3292
 4868TIP3    H136095   4.785   1.343  15.211  0.1520  0.6909  1.4954
 4868TIP3    H236096   4.635   1.362  15.208  0.0476  0.0184  2.1190
 4869TIP3   OH236097   5.622   5.863   4.724 -0.0120 -0.2230  0.2815
 4869TIP3    H136098   5.547   5.912   4.691 -1.1888 -1.1947  1.4010
 4869TIP3    H236099   5.631   5.790   4.663  0.1157 -0.0395  0.0774
 4870TIP3   OH236100   5.303   0.075  11.874 -1.0924 -0.9893  0.2210
 4870TIP3    H136101   5.283  -0.001  11.819  0.0141 -1.8769  0.9825
 4870TIP3    H236102   5.222   0.126  11.876 -0.7227  0.0167 -3.5905
 4871TIP3   OH236103   4.909   1.431   3.918 -0.2271  0.1474  0.3851
 4871TIP3    H136104   4.931   1.524   3.924  0.1455 -0.0298  2.1824
 4871TIP3    H236105   4.987   1.386   3.950 -1.3890 -0.6691  2.1870
 4872TIP3   OH236106   6.183   3.847   2.367 -0.1900 -0.0128 -0.3435
 4872TIP3    H136107   6.227   3.797   2.299  2.5272 -0.9898  1.9662
 4872TIP3    H236108   6.209   3.938   2.352  0.6983 -0.2745 -0.4197
 4873TIP3   OH236109   5.428   6.655   6.004 -0.4328 -0.1800  0.5526
 4873TIP3    H136110   5.396   6.704   6.080  0.7747  1.0638  0.2896
 4873TIP3    H236111   5.469   6.577   6.041 -1.1806 -0.3379  1.0695
 4874TIP3   OH236112   1.449   0.554  16.039 -0.2097  0.1246 -0.1232
 4874TIP3    H136113   1.372   0.504  16.011  0.3470  0.2964 -2.0934
 4874TIP3    H236114   1.483   0.594  15.959  1.6729  0.4354  0.7612
 4875TIP3   OH236115   0.273   1.590   3.106  0.4712  0.4349  0.6867
 4875TIP3    H136116   0.352   1.593   3.052  0.0222 -1.1829 -0.1171
 4875TIP3    H236117   0.293   1.525   3.173 -0.0784  0.2456  0.6631
 4876TIP3   OH236118   6.591   5.841  14.639  0.4127 -0.3313  0.2553
 4876TIP3    H136119   6.566   5.924  14.598  1.2709 -0.3157 -0.2780
 4876TIP3    H236120   6.646   5.798  14.573 -0.2622 -1.4612  0.4078
 4877TIP3   OH236121   6.260   6.602   1.564  0.0666  0.4430 -0.1480
 4877TIP3    H136122   6.232   6.588   1.654  0.9192 -0.1025  0.0475
 4877TIP3    H236123   6.185   6.577   1.510 -0.5204  0.9666  0.4047
 4878TIP3   OH236124   3.396   2.368  17.419  0.4318  0.2256 -0.2071
 4878TIP3    H136125   3.487   2.389  17.440 -0.1989  1.0594  1.8550
 4878TIP3    H236126   3.365   2.317  17.493 -0.9155  0.2872 -0.6987
 4879TIP3   OH236127   1.559   1.000  11.949  0.5755  0.2735  0.2142
 4879TIP3    H136128   1.586   0.972  11.861 -1.8507  2.6794 -1.4575
 4879TIP3    H236129   1.628   1.060  11.977  0.1599  1.5264 -1.2722
 4880TIP3   OH236130   3.164   0.384  15.023 -0.0349  0.4338 -0.6226
 4880TIP3    H136131   3.220   0.408  15.096 -1.1777  1.1168  0.0559
 4880TIP3    H236132   3.176   0.454  14.959  1.4899 -0.5094 -1.4330
 4881TIP3   OH236133   5.907   2.243   5.192  0.1262  0.0277 -0.0079
 4881TIP3    H136134   5.884   2.237   5.099  0.3111  0.8429 -0.1141
 4881TIP3    H236135   5.998   2.213   5.195  0.0978 -0.0676 -0.0726
 4882TIP3   OH236136   5.436   5.446  15.918 -0.2252  0.1154 -0.1726
 4882TIP3    H136137   5.379   5.497  15.860  0.3076  1.1973  0.2410
 4882TIP3    H236138   5.375   5.396  15.973 -0.7596  0.5332 -0.3753
 4883TIP3   OH236139   2.409   1.581   5.302 -0.1669 -0.1826  0.0410
 4883TIP3    H136140   2.499   1.579   5.335 -0.7664 -1.3566  1.7751
 4883TIP3    H236141   2.363   1.637   5.364 -1.4200 -2.7495  1.5952
 4884TIP3   OH236142   1.867   2.012  13.614 -0.4321  0.2381  0.1089
 4884TIP3    H136143   1.827   1.949  13.674  2.1739 -0.0178  1.7320
 4884TIP3    H236144   1.914   2.073  13.671 -0.0386  1.6109 -1.5915
 4885TIP3   OH236145   0.526   2.621   3.270 -0.1475 -0.3057 -0.1961
 4885TIP3    H136146   0.603   2.629   3.213 -0.6516 -0.1134 -0.8663
 4885TIP3    H236147   0.461   2.679   3.231 -0.8552 -0.9585 -0.0193
 4886TIP3   OH236148   6.348   2.169  17.295 -0.0283 -0.4392  0.0551
 4886TIP3    H136149   6.367   2.195  17.204 -0.1046 -0.0511  0.1465
 4886TIP3    H236150   6.302   2.244  17.332 -0.3657 -0.7618  0.2970
 4887TIP3   OH236151   6.356   4.880   5.401  0.5885 -0.5864 -0.1505
 4887TIP3    H136152   6.410   4.957   5.385  1.5566 -1.2517 -0.1462
 4887TIP3    H236153   6.312   4.864   5.317 -0.7576  0.8135  0.2523
 4888TIP3   OH236154   5.645   3.726  12.596 -0.3502  0.1843 -0.7741
 4888TIP3    H136155   5.627   3.797  12.535  0.2568  0.8581 -0.1786
 4888TIP3    H236156   5.559   3.691  12.618 -0.6843  0.9988 -0.7604
 4889TIP3   OH236157   1.738   1.085   0.236 -0.0474  0.3388 -0.6766
 4889TIP3    H136158   1.693   1.157   0.282 -0.2537 -0.0506 -0.2616
 4889TIP3    H236159   1.743   1.115   0.145  2.2822  2.0708 -0.0622
 4890TIP3   OH236160   4.764   1.668   0.157  1.0523 -0.5460 -0.1563
 4890TIP3    H136161   4.736   1.727   0.087 -0.7002  0.2336  1.1223
 4890TIP3    H236162   4.716   1.586   0.139  2.7641 -1.3434 -1.3951
 4891TIP3   OH236163   1.135   5.005  13.789  0.5782  0.0708  0.5163
 4891TIP3    H136164   1.207   5.066  13.772  2.3239 -1.6892  1.1794
 4891TIP3    H236165   1.172   4.940  13.848 -1.1577 -1.7061 -0.2259
 4892TIP3   OH236166   2.749   1.745  13.865  0.2250  0.0306 -0.1368
 4892TIP3    H136167   2.804   1.734  13.788 -1.9699 -2.3219 -1.5472
 4892TIP3    H236168   2.665   1.775  13.830 -0.3771  0.3538  1.5164
 4893TIP3   OH236169   2.835   2.183   5.509  0.0895  0.3525 -0.5239
 4893TIP3    H136170   2.785   2.149   5.435 -0.3164 -1.1105  0.3705
 4893TIP3    H236171   2.774   2.239   5.557 -0.9838 -1.8804  0.8833
 4894TIP3   OH236172   3.202   4.944  13.817 -0.0781  0.4486  0.0369
 4894TIP3    H136173   3.152   4.916  13.894  1.2047 -1.6745  0.1627
 4894TIP3    H236174   3.150   5.016  13.781 -4.2020 -2.5890 -0.8087
 4895TIP3   OH236175   5.412   3.747  16.197 -0.2681 -0.0914  0.1235
 4895TIP3    H136176   5.485   3.688  16.214  0.7533  1.0012 -0.3454
 4895TIP3    H236177   5.342   3.715  16.254  1.1035 -0.1441  1.8567
 4896TIP3   OH236178   6.340   2.546  16.369  0.0236  0.1907 -0.1359
 4896TIP3    H136179   6.297   2.542  16.283  0.2416  1.1887 -0.3132
 4896TIP3    H236180   6.270   2.527  16.432  0.2619 -2.4973 -0.5831
 4897TIP3   OH236181   4.585   0.600  12.655 -0.0853  0.1760  1.0022
 4897TIP3    H136182   4.518   0.539  12.624 -1.2172  0.8397  2.0333
 4897TIP3    H236183   4.625   0.635  12.576 -0.2051 -1.0393  0.3835
 4898TIP3   OH236184   1.208   1.554  13.017 -0.2005  0.0318  0.0109
 4898TIP3    H136185   1.125   1.600  13.001  0.8736  2.1869  0.2846
 4898TIP3    H236186   1.275   1.610  12.978  1.1483 -1.7939 -0.4437
 4899TIP3   OH236187   1.022   2.050  12.440 -0.7979 -0.3264 -0.5326
 4899TIP3    H136188   1.072   2.055  12.521 -3.8573  1.5793  1.4311
 4899TIP3    H236189   1.024   2.140  12.406 -2.6210 -0.2378 -0.4908
 4900TIP3   OH236190   1.621   2.322  13.745 -0.3366 -0.0677  0.0267
 4900TIP3    H136191   1.685   2.344  13.813  0.0496 -0.9762 -0.0214
 4900TIP3    H236192   1.629   2.227  13.735 -1.0753 -0.0742 -0.6085
 4901TIP3   OH236193   0.423   4.576  16.822  0.7547 -0.1091 -0.1823
 4901TIP3    H136194   0.378   4.620  16.750 -1.0262 -0.8174  0.4582
 4901TIP3    H236195   0.420   4.483  16.799 -1.5122 -0.5657  1.6100
 4902TIP3   OH236196   1.787   3.912  11.636 -0.1827 -0.3765 -0.0838
 4902TIP3    H136197   1.793   3.865  11.719 -0.9691  1.9782  1.4160
 4902TIP3    H236198   1.739   3.992  11.657  0.1253  0.5999 -2.6945
 4903TIP3   OH236199   3.801   0.165   1.515 -0.1142  0.1416  0.3643
 4903TIP3    H136200   3.855   0.149   1.592 -0.4401  0.1608  0.5993
 4903TIP3    H236201   3.842   0.113   1.446 -0.8259 -1.2963  0.9777
 4904TIP3   OH236202   0.093   0.201  12.801  0.1647 -0.1454 -0.1674
 4904TIP3    H136203   0.109   0.267  12.733 -0.7589  0.4150  0.1370
 4904TIP3    H236204   0.031   0.243  12.861  2.3645  0.1127  2.1053
 4905TIP3   OH236205   0.896   4.327   3.963 -0.1698 -0.4534  0.3533
 4905TIP3    H136206   0.824   4.364   3.912 -1.8539  1.4056  3.7128
 4905TIP3    H236207   0.974   4.344   3.911 -1.8702 -0.0930 -2.2199
 4906TIP3   OH236208   3.957   5.482   4.640  0.1565 -0.4215 -0.6728
 4906TIP3    H136209   3.910   5.513   4.563 -0.3564 -0.8412 -0.5399
 4906TIP3    H236210   3.888   5.472   4.707  0.2869 -1.8816 -0.7282
 4907TIP3   OH236211   5.442   6.276   6.472  0.4210  0.5047 -0.7349
 4907TIP3    H136212   5.534   6.248   6.472 -0.0422 -1.1455 -1.2858
 4907TIP3    H236213   5.401   6.222   6.539 -0.2186  1.0230 -0.7042
 4908TIP3   OH236214   5.659   2.372  11.148 -0.9006 -0.0868  0.3628
 4908TIP3    H136215   5.596   2.439  11.175 -0.2419  0.5521  0.3491
 4908TIP3    H236216   5.639   2.356  11.056 -0.5887  0.6379  0.1624
 4909TIP3   OH236217   2.558   5.998   4.106 -0.1975  0.5006 -0.0868
 4909TIP3    H136218   2.500   6.057   4.058 -0.0544  0.7346  0.0236
 4909TIP3    H236219   2.499   5.942   4.157 -0.3313  0.6303 -0.0980
 4910TIP3   OH236220   3.313   6.780  17.419 -0.7351 -0.0889  0.1417
 4910TIP3    H136221   3.326   6.728  17.339 -1.0337  1.2140 -0.7890
 4910TIP3    H236222   3.349   6.725  17.489 -0.1123 -1.1094 -0.9313
 4911TIP3   OH236223   2.626   6.753   4.652  0.0382  0.2987  0.0750
 4911TIP3    H136224   2.692   6.810   4.612 -0.5847  0.0172 -1.4036
 4911TIP3    H236225   2.547   6.766   4.600  0.1225 -2.6023 -0.9775
 4912TIP3   OH236226   3.092   2.111   6.433  0.6771  0.1449 -0.0744
 4912TIP3    H136227   3.177   2.148   6.409  0.3431  2.0539  1.4466
 4912TIP3    H236228   3.031   2.185   6.429 -0.6030 -0.8399  0.4373
 4913TIP3   OH236229   5.239   3.866   1.867 -0.6633  0.2953  0.4772
 4913TIP3    H136230   5.299   3.882   1.940 -1.1302  1.0061  0.7064
 4913TIP3    H236231   5.154   3.849   1.908 -0.5855 -0.9769  0.1643
 4914TIP3   OH236232   5.600   5.147   4.971  0.1273  0.2986  0.1431
 4914TIP3    H136233   5.561   5.161   4.885  0.8370  1.1924 -0.0588
 4914TIP3    H236234   5.567   5.219   5.024  0.1389  0.0719  0.4595
 4915TIP3   OH236235   0.413   2.731   2.080 -0.1070 -0.0447  0.6717
 4915TIP3    H136236   0.496   2.684   2.091 -0.1264 -0.7312 -1.5965
 4915TIP3    H236237   0.353   2.665   2.044 -1.4237  0.6647  1.4655
 4916TIP3   OH236238   1.196   2.076  14.218 -0.4164  0.0221  0.2352
 4916TIP3    H136239   1.213   2.065  14.124 -0.7171 -0.6764  0.2563
 4916TIP3    H236240   1.279   2.053  14.260 -0.8592 -1.7754  0.2428
 4917TIP3   OH236241   1.129   6.010   5.616 -0.0031  0.3678 -0.3314
 4917TIP3    H136242   1.219   6.007   5.583  0.3199  2.7148  0.1422
 4917TIP3    H236243   1.123   6.094   5.662 -1.7805 -0.7321  1.6305
 4918TIP3   OH236244   0.431   0.007  16.172  0.0563 -0.3678  0.2487
 4918TIP3    H136245   0.445   0.100  16.159 -5.1971  0.8823  1.1239
 4918TIP3    H236246   0.464  -0.011  16.260  0.1995  0.9517  0.4763
 4919TIP3   OH236247   6.270   6.511  12.399 -0.3045  0.0550 -0.0225
 4919TIP3    H136248   6.268   6.604  12.420  0.5119 -0.2915  1.7617
 4919TIP3    H236249   6.307   6.469  12.477  1.0399 -1.5665 -1.4304
 4920TIP3   OH236250   2.518   5.559  11.657  0.2716 -0.0824 -0.1517
 4920TIP3    H136251   2.586   5.597  11.712  0.3355 -0.2260 -0.1296
 4920TIP3    H236252   2.545   5.468  11.645 -2.3108 -1.7335  3.9808
 4921TIP3   OH236253   5.898   5.456   5.486 -0.1511 -0.5427 -0.1375
 4921TIP3    H136254   5.948   5.406   5.421  1.6357 -1.6901  2.0072
 4921TIP3    H236255   5.808   5.455   5.452  0.6966 -1.1171 -2.5474
 4922TIP3   OH236256   1.140   2.482   0.153 -0.0700  0.4258  0.0196
 4922TIP3    H136257   1.215   2.504   0.208  0.8534 -0.1092 -0.9772
 4922TIP3    H236258   1.136   2.386   0.156  0.1985  0.3670 -1.0683
 4923TIP3   OH236259   0.591   1.245  16.819  0.5237 -0.8884  0.2165
 4923TIP3    H136260   0.593   1.335  16.787 -0.3309 -0.6219  0.8818
 4923TIP3    H236261   0.602   1.192  16.740 -2.1832 -0.2689 -0.7008
 4924TIP3   OH236262   4.779   3.443   1.542 -0.0376  0.1234  0.2360
 4924TIP3    H136263   4.788   3.352   1.512  0.7782 -0.0635  0.9982
 4924TIP3    H236264   4.865   3.465   1.578 -0.3502  1.0619  0.4449
 4925TIP3   OH236265   2.708   0.958  11.559  0.2252  0.2064  0.2272
 4925TIP3    H136266   2.793   0.946  11.517  0.1540  0.0203  0.1345
 4925TIP3    H236267   2.651   0.991  11.489  0.2420  0.4186  0.3108
 4926TIP3   OH236268   4.017   0.597  16.145 -0.5822  0.4231  0.0963
 4926TIP3    H136269   4.015   0.656  16.070  0.4199 -0.6729 -0.8435
 4926TIP3    H236270   3.960   0.524  16.119 -0.3037  0.0808  0.4390
 4927TIP3   OH236271   2.930   0.936  15.458  0.0419  0.4090 -0.0602
 4927TIP3    H136272   2.943   0.917  15.365 -1.1772  1.0526 -0.3811
 4927TIP3    H236273   2.862   1.004  15.459 -1.1797 -0.7746  1.3719
 4928TIP3   OH236274   6.644   1.537  11.526 -0.3754  0.4065 -0.3191
 4928TIP3    H136275   6.676   1.498  11.445  0.4975  0.0651  0.1682
 4928TIP3    H236276   6.550   1.548  11.513 -0.3756 -0.4040 -1.0645
 4929TIP3   OH236277   1.922   2.162   0.887  0.2984 -0.1405  0.4447
 4929TIP3    H136278   1.998   2.194   0.838  1.7537 -1.5367  1.6624
 4929TIP3    H236279   1.923   2.067   0.874 -0.6360 -0.2897  1.3033
 4930TIP3   OH236280   0.963   5.166  13.430 -0.2824 -0.0122  0.6794
 4930TIP3    H136281   1.054   5.194  13.432 -0.6975  1.6330 -0.8157
 4930TIP3    H236282   0.954   5.105  13.504  2.2774 -1.1003  0.1821
 4931TIP3   OH236283   1.143   5.183   4.962  0.1797 -0.0613  0.2141
 4931TIP3    H136284   1.203   5.201   4.890  1.0501 -0.1435  0.9103
 4931TIP3    H236285   1.158   5.253   5.025 -1.3628  0.6458 -0.1455
 4932TIP3   OH236286   0.158   4.947   1.959 -0.6225  0.0657  0.5939
 4932TIP3    H136287   0.162   4.898   1.878 -0.6110 -0.0854  0.6855
 4932TIP3    H236288   0.248   4.952   1.990 -0.0791  2.9383 -1.0593
 4933TIP3   OH236289   4.742   1.190   3.353 -0.2145 -0.3566  0.3311
 4933TIP3    H136290   4.837   1.202   3.362 -0.3247  0.8888  0.0343
 4933TIP3    H236291   4.707   1.204   3.441 -0.2641  0.8459  0.1354
 4934TIP3   OH236292   4.575   0.664  13.027  0.5617 -0.4576  1.0678
 4934TIP3    H136293   4.507   0.619  13.077  0.7771 -1.1399  0.7630
 4934TIP3    H236294   4.657   0.620  13.054  0.7513 -0.3762  0.6271
 4935TIP3   OH236295   5.443   0.322   0.920 -0.3427 -0.6201  0.5527
 4935TIP3    H136296   5.404   0.407   0.905  0.0587 -0.1315  2.0555
 4935TIP3    H236297   5.518   0.319   0.861 -0.9545 -0.3867 -0.2622
 4936TIP3   OH236298   5.625   0.966  17.053  0.2050 -0.4245 -0.4907
 4936TIP3    H136299   5.530   0.963  17.067  0.0187 -0.4744 -1.6816
 4936TIP3    H236300   5.646   1.060  17.049  0.3533 -0.3960  0.6083
 4937TIP3   OH236301   4.090   1.518   4.633  0.0708  0.7106  0.1075
 4937TIP3    H136302   4.032   1.585   4.597  1.1695  0.3290 -2.6487
 4937TIP3    H236303   4.164   1.566   4.668  0.6737  1.0372 -1.5091
 4938TIP3   OH236304   4.152   4.718  17.198  0.2654 -0.0341  0.3244
 4938TIP3    H136305   4.178   4.772  17.272  3.6396 -0.5840 -0.3136
 4938TIP3    H236306   4.175   4.769  17.121 -1.7484 -0.1323 -0.4208
 4939TIP3   OH236307   2.951   1.717  12.848 -0.3002 -0.1086  0.6784
 4939TIP3    H136308   2.965   1.676  12.763 -1.6198  1.2337 -0.2413
 4939TIP3    H236309   2.976   1.809  12.834  1.7315 -0.3324  2.4196
 4940TIP3   OH236310   5.923   1.450   4.587  1.2011  0.0287 -0.9050
 4940TIP3    H136311   5.831   1.421   4.584  1.4873 -0.9891 -0.2598
 4940TIP3    H236312   5.941   1.462   4.680  1.0721  2.4807 -1.1127
 4941TIP3   OH236313   6.700   5.400  15.320 -0.0675  0.5302 -0.1304
 4941TIP3    H136314   6.670   5.309  15.309 -1.9256  1.1044 -0.0733
 4941TIP3    H236315   6.766   5.411  15.252 -0.9920 -0.3740 -1.2107
 4942TIP3   OH236316   1.828   4.510  14.786  0.2769  1.3922 -0.1206
 4942TIP3    H136317   1.846   4.491  14.694  0.2810  2.8694 -0.4583
 4942TIP3    H236318   1.738   4.542  14.786  0.0939  0.8837  0.4799
 4943TIP3   OH236319   4.952   2.461  16.635 -0.9619 -0.3673 -0.4430
 4943TIP3    H136320   4.860   2.480  16.614 -0.7154 -0.5958 -1.8041
 4943TIP3    H236321   4.951   2.371  16.667 -1.2011 -0.3858 -0.4990
 4944TIP3   OH236322   4.177   0.853  12.924 -0.9964  0.4158  0.0773
 4944TIP3    H136323   4.267   0.884  12.918 -0.5075 -1.0992 -0.8607
 4944TIP3    H236324   4.126   0.921  12.879 -0.0113  0.1208 -1.5695
 4945TIP3   OH236325   1.698   5.350   3.344  0.0362 -0.3183  0.7648
 4945TIP3    H136326   1.621   5.355   3.402  0.5776  0.7844  1.4175
 4945TIP3    H236327   1.771   5.335   3.404  0.6130  0.8891  0.3791
 4946TIP3   OH236328   5.388   2.194   4.599  0.1085  0.1940 -0.0568
 4946TIP3    H136329   5.305   2.239   4.588 -0.9028 -1.4262  0.5259
 4946TIP3    H236330   5.443   2.227   4.527 -1.1320  1.0698 -0.6415
 4947TIP3   OH236331   0.409   2.689  13.851 -0.4610 -0.5141  0.4044
 4947TIP3    H136332   0.393   2.635  13.774 -2.6403  2.0920 -1.1668
 4947TIP3    H236333   0.330   2.680  13.904 -1.1126  1.3598 -0.1468
 4948TIP3   OH236334   4.259   0.628   3.253  0.4499  0.5580  0.2304
 4948TIP3    H136335   4.222   0.540   3.261  0.9380  0.2276 -0.9652
 4948TIP3    H236336   4.289   0.650   3.341  0.4344 -0.5189  0.5134
 4949TIP3   OH236337   4.628   3.302  14.623  0.7375 -0.3722 -0.5922
 4949TIP3    H136338   4.645   3.222  14.573  0.1419 -0.0632 -1.3028
 4949TIP3    H236339   4.709   3.318  14.671  0.0795 -2.7646  1.5236
 4950TIP3   OH236340   1.458   2.782   5.338 -0.0712  0.3668  0.6146
 4950TIP3    H136341   1.372   2.791   5.379 -0.3194 -0.2283  0.2343
 4950TIP3    H236342   1.516   2.758   5.410 -0.2351  0.6993  0.8614
 4951TIP3   OH236343   4.728   0.228  16.405 -0.0819 -0.3386 -0.9311
 4951TIP3    H136344   4.659   0.227  16.471 -0.3112  0.9587 -1.1214
 4951TIP3    H236345   4.779   0.148  16.422  0.9159  0.7489  1.9409
 4952TIP3   OH236346   2.591   3.360  12.452 -0.5610  0.1202 -0.5217
 4952TIP3    H136347   2.546   3.277  12.466 -0.6051  0.4755  1.7830
 4952TIP3    H236348   2.668   3.356  12.509 -0.8340  1.8421  0.0497
 4953TIP3   OH236349   6.105   4.277   6.388 -0.0592  0.1869 -0.6360
 4953TIP3    H136350   6.151   4.357   6.413  1.3016  0.4512 -3.5774
 4953TIP3    H236351   6.174   4.214   6.369 -1.0929 -1.4108  0.6021
 4954TIP3   OH236352   4.002   0.921   6.810 -0.3696 -0.0451  0.1759
 4954TIP3    H136353   4.068   0.867   6.855  0.2842  1.5306  1.2069
 4954TIP3    H236354   3.953   0.859   6.756  3.4473 -1.0208 -2.5538
 4955TIP3   OH236355   6.301   4.557  13.449  0.3319  0.7270  0.5122
 4955TIP3    H136356   6.299   4.462  13.436 -0.3173  0.7141  0.6979
 4955TIP3    H236357   6.345   4.591  13.371 -1.2918  0.4353 -0.5702
 4956TIP3   OH236358   5.149   2.024   6.613  0.1089 -0.0008  0.0422
 4956TIP3    H136359   5.242   2.019   6.634  0.3003  2.5893  0.0623
 4956TIP3    H236360   5.109   1.954   6.665  2.0414 -1.3413 -0.1829
 4957TIP3   OH236361   0.647   1.277  12.783 -0.2550  0.0811 -0.2783
 4957TIP3    H136362   0.621   1.324  12.862  0.8502  0.3171 -0.0358
 4957TIP3    H236363   0.604   1.192  12.791  1.0340 -0.4945  1.3799
 4958TIP3   OH236364   6.778   1.635   5.600  0.1797  0.6659  0.7558
 4958TIP3    H136365   6.851   1.678   5.555  3.5398 -3.0727  2.0348
 4958TIP3    H236366   6.797   1.647   5.693 -1.9770  1.1445  1.1922
 4959TIP3   OH236367   2.425   6.533   5.362 -0.7240  0.3789  0.2447
 4959TIP3    H136368   2.440   6.469   5.292  0.2672 -0.5830  1.2788
 4959TIP3    H236369   2.461   6.615   5.328  0.7007 -0.3101 -0.0081
 4960TIP3   OH236370   5.619   0.743   2.036  0.6156  0.4083  0.0170
 4960TIP3    H136371   5.678   0.799   2.086  0.2940  1.2039 -0.4836
 4960TIP3    H236372   5.560   0.707   2.102  1.6277 -0.3871  0.5217
 4961TIP3   OH236373   3.030   2.325  12.481  0.0190  0.8127  0.1975
 4961TIP3    H136374   3.117   2.324  12.522  1.1831  0.6714 -2.1470
 4961TIP3    H236375   3.046   2.349  12.390 -2.2203 -0.8641 -0.7316
 4962TIP3   OH236376   5.842   3.469  12.802 -0.6905  0.4179  0.8595
 4962TIP3    H136377   5.920   3.416  12.789 -0.4841  0.9661 -0.2488
 4962TIP3    H236378   5.849   3.501  12.892  0.2787  0.3276  0.8240
 4963TIP3   OH236379   1.611   2.583  11.531 -0.2617  0.2067 -0.0686
 4963TIP3    H136380   1.614   2.593  11.626  1.2652 -1.8561  0.1843
 4963TIP3    H236381   1.589   2.491  11.518  1.7150 -0.0967 -1.6402
 4964TIP3   OH236382   6.359   5.485  17.019 -0.0972  0.0568 -0.4577
 4964TIP3    H136383   6.375   5.459  17.110 -2.3857 -0.5124 -0.1726
 4964TIP3    H236384   6.444   5.472  16.976  1.0788  0.4788  1.5988
 4965TIP3   OH236385   3.849   5.790   1.025  0.7869  0.1114 -0.3900
 4965TIP3    H136386   3.829   5.784   0.931  0.1647  0.9346 -0.3259
 4965TIP3    H236387   3.812   5.711   1.063  1.8315 -0.6806 -0.9532
 4966TIP3   OH236388   5.668   2.520  12.145 -0.2608  0.2860 -0.0953
 4966TIP3    H136389   5.663   2.512  12.049  0.8866 -0.0698 -0.1437
 4966TIP3    H236390   5.581   2.497  12.175 -0.4024 -0.4866 -1.0191
 4967TIP3   OH236391   5.983   5.735   4.642  0.4438 -0.5921 -0.2035
 4967TIP3    H136392   6.043   5.726   4.716  0.3369 -0.3453 -0.0894
 4967TIP3    H236393   5.996   5.824   4.610  0.1430 -0.5423 -0.1869
 4968TIP3   OH236394   5.955   1.886  17.076 -0.0382  0.4540  0.2203
 4968TIP3    H136395   5.984   1.826  17.008  1.0358  1.4965 -0.2852
 4968TIP3    H236396   5.928   1.830  17.149  0.3092 -0.6369 -0.4713
 4969TIP3   OH236397   2.093   0.128   2.169  0.4316  0.4141  0.0931
 4969TIP3    H136398   2.159   0.116   2.101 -0.4354 -1.6093 -0.4694
 4969TIP3    H236399   2.009   0.120   2.122 -0.1880 -1.7633  1.4388
 4970TIP3   OH236400   4.922   3.814   4.145  0.6298 -0.1642 -0.2266
 4970TIP3    H136401   4.847   3.795   4.089 -0.6341 -0.2295  1.4168
 4970TIP3    H236402   4.958   3.895   4.109  0.2367 -0.5144 -1.4755
 4971TIP3   OH236403   4.537   0.665  10.915 -0.1767 -0.1597 -0.5754
 4971TIP3    H136404   4.494   0.703  10.838  0.5077 -0.6565 -1.2185
 4971TIP3    H236405   4.630   0.683  10.901  0.1072 -1.6133 -0.6393
 4972TIP3   OH236406   5.046   5.155  15.762 -0.3306  0.0294  0.2446
 4972TIP3    H136407   5.092   5.229  15.722 -1.9666  0.6714 -0.5469
 4972TIP3    H236408   4.998   5.114  15.690 -2.0968  0.2468  1.2396
 4973TIP3   OH236409   5.264   2.831  12.385 -0.4100  0.0264  0.3069
 4973TIP3    H136410   5.314   2.906  12.417 -0.3911  0.0770  0.1602
 4973TIP3    H236411   5.316   2.797  12.313  0.3753 -1.0851  1.3549
 4974TIP3   OH236412   3.350   6.208  14.102 -0.1504 -0.3496 -0.0421
 4974TIP3    H136413   3.393   6.147  14.043  2.4461 -0.1741  1.5016
 4974TIP3    H236414   3.338   6.159  14.183  0.6729  0.6920  0.7581
 4975TIP3   OH236415   3.995   6.781  11.705 -0.2739  0.4018 -0.1400
 4975TIP3    H136416   4.045   6.858  11.731 -1.2854  0.4572  1.9013
 4975TIP3    H236417   4.025   6.760  11.617  3.1550  0.5403  0.8653
 4976TIP3   OH236418   1.398   4.558  14.306 -0.3208 -0.1369 -0.2453
 4976TIP3    H136419   1.382   4.646  14.272 -0.1928 -0.1907 -0.4475
 4976TIP3    H236420   1.490   4.540  14.283 -0.0412  0.0731  0.6804
 4977TIP3   OH236421   5.252   3.762   5.479 -0.0103 -0.1349 -0.4441
 4977TIP3    H136422   5.173   3.736   5.528  1.4110 -3.3536  0.4041
 4977TIP3    H236423   5.317   3.697   5.503  3.0598  2.5006 -0.9652
 4978TIP3   OH236424   2.937   2.690  13.027 -0.1785  0.9446 -0.4499
 4978TIP3    H136425   3.023   2.704  13.065 -0.6979  0.6743  0.8741
 4978TIP3    H236426   2.945   2.721  12.937  1.6146 -0.1276 -0.7000
 4979TIP3   OH236427   0.160   6.059  14.232  0.3983 -0.2440 -0.7243
 4979TIP3    H136428   0.079   6.029  14.191  0.4761 -2.2505  0.4728
 4979TIP3    H236429   0.179   6.143  14.188 -1.2571 -0.6604 -2.3882
 4980TIP3   OH236430   2.953   3.380   2.350  0.1458  0.3514  0.1349
 4980TIP3    H136431   3.045   3.358   2.360  0.2492  1.1881  1.2160
 4980TIP3    H236432   2.952   3.476   2.344 -0.5010  0.2660 -1.8280
 4981TIP3   OH236433   1.836   5.276  16.113 -0.3701  0.0233 -0.5811
 4981TIP3    H136434   1.854   5.209  16.180  0.4352  1.4721  0.7266
 4981TIP3    H236435   1.908   5.267  16.051  0.8016  0.8602  0.5975
 4982TIP3   OH236436   5.317   6.331  11.947 -0.8274 -0.3722  0.3957
 4982TIP3    H136437   5.377   6.384  11.895 -2.7752  2.4583  0.8004
 4982TIP3    H236438   5.249   6.305  11.885 -0.1092 -2.1730  0.3012
 4983TIP3   OH236439   2.343   1.278   3.835  0.2874  0.3748 -0.2129
 4983TIP3    H136440   2.312   1.366   3.815  1.4910  0.5632 -1.3515
 4983TIP3    H236441   2.292   1.221   3.778  0.0670  0.4134 -0.0536
 4984TIP3   OH236442   3.515   3.742   1.887 -0.1510  0.3136  0.6011
 4984TIP3    H136443   3.451   3.787   1.831  1.8383  1.7877 -0.5879
 4984TIP3    H236444   3.473   3.658   1.907 -1.4499  0.2006 -2.1198
 4985TIP3   OH236445   6.301   2.909   5.937 -0.0774 -0.1579 -0.1609
 4985TIP3    H136446   6.369   2.914   5.870  0.7965  1.7386  0.7964
 4985TIP3    H236447   6.310   2.990   5.986 -2.9776  0.1158  0.0823
 4986TIP3   OH236448   0.706   4.088   5.867 -0.3704 -0.5853  0.7067
 4986TIP3    H136449   0.735   4.179   5.866  0.5851 -0.8705  1.1349
 4986TIP3    H236450   0.787   4.037   5.871 -0.8846 -1.4613  0.3004
 4987TIP3   OH236451   2.411   1.174  11.217 -0.0185  0.2108  0.2256
 4987TIP3    H136452   2.371   1.108  11.161  0.3796  0.3728 -0.2527
 4987TIP3    H236453   2.437   1.244  11.158 -1.8058  1.5118  0.8784
 4988TIP3   OH236454   0.245   3.191   5.108  0.1418 -0.2975 -0.6071
 4988TIP3    H136455   0.169   3.194   5.166 -0.0559 -0.4792 -0.8545
 4988TIP3    H236456   0.263   3.283   5.086 -0.5444 -0.3034 -1.2396
 4989TIP3   OH236457   3.269   0.479  16.363 -0.1172 -0.6827 -0.1644
 4989TIP3    H136458   3.322   0.469  16.442  1.8665 -0.1957 -1.3483
 4989TIP3    H236459   3.299   0.409  16.305  0.5620  0.6736 -1.5306
 4990TIP3   OH236460   4.474   0.775  13.769 -0.1207 -0.3212  0.6526
 4990TIP3    H136461   4.411   0.842  13.740 -0.5111 -0.1989  1.7472
 4990TIP3    H236462   4.560   0.814  13.753 -0.3395  0.2143  0.7697
 4991TIP3   OH236463   2.423   4.514   5.642  0.2311 -0.5871 -0.5537
 4991TIP3    H136464   2.327   4.506   5.635 -0.3341  2.3832  1.8388
 4991TIP3    H236465   2.443   4.601   5.609  2.1026 -0.9940 -0.6078
 4992TIP3   OH236466   4.169   4.719   3.496 -0.4155  0.3649  0.0066
 4992TIP3    H136467   4.094   4.737   3.553 -1.5141  0.9415 -1.5501
 4992TIP3    H236468   4.234   4.784   3.522 -1.0262  0.8521  0.3673
 4993TIP3   OH236469   0.366   5.208   6.070 -0.3797 -0.0186  0.2138
 4993TIP3    H136470   0.273   5.184   6.075 -0.0546 -1.1442  1.3694
 4993TIP3    H236471   0.373   5.287   6.123 -0.9073  0.9557 -1.0941
 4994TIP3   OH236472   5.812   3.220   1.143 -0.0872  0.1517  0.0020
 4994TIP3    H136473   5.756   3.283   1.098 -2.5779 -2.4835 -0.8620
 4994TIP3    H236474   5.809   3.246   1.235 -1.5952  0.8984 -0.2377
 4995TIP3   OH236475   5.365   3.373   3.186 -0.0018 -0.3530  0.2893
 4995TIP3    H136476   5.392   3.441   3.124  2.1885 -1.2099  0.2209
 4995TIP3    H236477   5.279   3.345   3.155 -1.2477  2.6824  0.6235
 4996TIP3   OH236478   2.966   4.946   3.288 -0.1498  0.4135  0.3173
 4996TIP3    H136479   2.934   4.981   3.371 -0.2208 -1.8593  1.3032
 4996TIP3    H236480   2.905   4.876   3.266  0.8887 -0.1908 -0.7535
 4997TIP3   OH236481   6.749   6.323   5.533 -0.5587  0.1467 -0.6962
 4997TIP3    H136482   6.729   6.387   5.465 -0.7448  0.3882 -0.4161
 4997TIP3    H236483   6.730   6.368   5.615  1.2056  0.4283 -0.4056
 4998TIP3   OH236484   3.189   4.006  17.066  0.2180 -0.4104 -0.0609
 4998TIP3    H136485   3.104   4.039  17.039  0.4482  1.1168  0.9168
 4998TIP3    H236486   3.250   4.044  17.003  0.1608 -1.8832 -1.0436
 4999TIP3   OH236487   3.430   5.172  13.761 -0.0323 -0.3359 -0.6810
 4999TIP3    H136488   3.405   5.137  13.675  2.9649 -0.3076 -1.6915
 4999TIP3    H236489   3.357   5.227  13.787 -1.2651 -0.7734 -2.9869
 5000TIP3   OH236490   5.583   3.614  17.402  0.1485 -0.8409  0.5321
 5000TIP3    H136491   5.611   3.662  17.480 -3.4726 -0.4008  1.7318
 5000TIP3    H236492   5.541   3.535  17.436  0.1456 -1.5734 -1.0999
 5001TIP3   OH236493   6.558   6.591  16.807 -0.1087  0.9380 -0.5303
 5001TIP3    H136494   6.610   6.526  16.854 -1.6820 -0.6457 -0.8901
 5001TIP3    H236495   6.545   6.661  16.871 -0.2531 -0.1125  0.6370
 5002TIP3   OH236496   5.577   3.042   2.768 -0.8445  0.5567 -0.1744
 5002TIP3    H136497   5.520   3.055   2.843 -0.3626 -1.4209  0.5764
 5002TIP3    H236498   5.655   3.095   2.787 -0.6741 -0.0222  0.7988
 5003TIP3   OH236499   1.372   4.638  16.305 -0.6789  0.0448 -0.1659
 5003TIP3    H136500   1.398   4.594  16.386  1.2985  0.2270 -0.6446
 5003TIP3    H236501   1.317   4.574  16.260  0.4363 -1.1594  0.1099
 5004TIP3   OH236502   5.506   3.304  11.865 -0.2260 -0.2391 -0.4551
 5004TIP3    H136503   5.515   3.379  11.807  0.8708  1.1275  1.3699
 5004TIP3    H236504   5.418   3.311  11.901  0.0786  0.5606  0.1641
 5005TIP3   OH236505   6.105   0.984  14.947  0.1591  0.1863 -0.0877
 5005TIP3    H136506   6.119   0.969  15.040  0.7280  1.2740  0.0158
 5005TIP3    H236507   6.062   1.069  14.942 -2.0897 -0.8790 -0.7082
 5006TIP3   OH236508   2.449   5.502   6.739 -0.0327  0.3875 -0.2382
 5006TIP3    H136509   2.364   5.461   6.726 -0.4440  1.2602 -0.3756
 5006TIP3    H236510   2.466   5.549   6.657  1.3722 -1.1285 -0.8863
 5007TIP3   OH236511   2.431   4.818  15.025  0.2302 -0.2643  0.0277
 5007TIP3    H136512   2.372   4.750  14.993 -0.7389  0.2373  0.6963
 5007TIP3    H236513   2.377   4.872  15.083  1.4804 -0.1043  1.1058
 5008TIP3   OH236514   4.781   0.630   5.509 -0.0821  0.1299 -0.4747
 5008TIP3    H136515   4.810   0.701   5.567 -2.5267  0.3193  0.6298
 5008TIP3    H236516   4.745   0.675   5.433 -0.8786  0.0564 -0.1468
 5009TIP3   OH236517   2.501   3.242   4.380  0.2086 -0.1674 -0.0333
 5009TIP3    H136518   2.525   3.329   4.413  1.2034 -0.3053 -0.3791
 5009TIP3    H236519   2.584   3.201   4.356 -0.4001 -0.2859 -2.1913
 5010TIP3   OH236520   4.837   3.084   5.779 -0.4960 -0.6351 -0.5365
 5010TIP3    H136521   4.846   3.056   5.870 -1.1664  0.1751 -0.2079
 5010TIP3    H236522   4.748   3.117   5.773  0.6035  2.7116 -0.5089
 5011TIP3   OH236523   1.527   1.505  16.296 -0.5941 -0.6119  0.1803
 5011TIP3    H136524   1.452   1.449  16.275 -0.8483  0.0532 -0.7582
 5011TIP3    H236525   1.559   1.535  16.211 -0.9946  1.3454  0.6809
 5012TIP3   OH236526   4.083   5.545   2.489  0.0716  0.0952 -1.1146
 5012TIP3    H136527   4.026   5.468   2.482  1.0909 -0.6848 -1.1417
 5012TIP3    H236528   4.117   5.541   2.579  0.8722 -0.0358 -1.4186
 5013TIP3   OH236529   6.139   4.477  16.198 -0.5928  0.0170 -0.0658
 5013TIP3    H136530   6.206   4.497  16.263 -0.8011 -1.2209  0.5566
 5013TIP3    H236531   6.058   4.469  16.249 -0.6314 -1.7146 -0.3173
 5014TIP3   OH236532   1.172   4.381   6.268  0.1915 -0.3191 -0.2352
 5014TIP3    H136533   1.251   4.370   6.321 -0.6346  0.4675  1.2044
 5014TIP3    H236534   1.116   4.307   6.291  0.1849 -0.4605 -0.6867
 5015TIP3   OH236535   6.117   1.828  14.479 -0.1142 -0.4853 -0.1037
 5015TIP3    H136536   6.039   1.833  14.424 -0.4114  2.2171  0.4575
 5015TIP3    H236537   6.116   1.908  14.531  2.3198 -1.0177  0.9174
 5016TIP3   OH236538   2.384   4.471  15.349  0.5287  0.4407  0.0379
 5016TIP3    H136539   2.426   4.483  15.434  1.2477  0.9227 -0.3744
 5016TIP3    H236540   2.457   4.465  15.287  0.0075  0.3050 -0.5687
 5017TIP3   OH236541   3.399   4.502  15.679 -0.3954 -0.0610  0.8589
 5017TIP3    H136542   3.417   4.489  15.772 -1.0504  0.6732  1.1020
 5017TIP3    H236543   3.366   4.592  15.673 -0.7640 -0.2383 -0.0184
 5018TIP3   OH236544   3.980   5.350   3.108  0.1328  0.2644  0.2416
 5018TIP3    H136545   3.921   5.400   3.165  0.9969 -1.1014  2.4787
 5018TIP3    H236546   3.936   5.266   3.096  1.2724 -0.5349  1.4037
 5019TIP3   OH236547   4.761   1.588   2.472  0.7405 -0.8050  0.2077
 5019TIP3    H136548   4.715   1.506   2.454  1.2144 -1.5704  2.1684
 5019TIP3    H236549   4.701   1.637   2.528 -0.1217  0.8642 -2.0254
 5020TIP3   OH236550   0.368   5.106  12.994 -0.4112 -0.4842 -0.0503
 5020TIP3    H136551   0.404   5.172  12.934  1.7810 -1.3362  0.2736
 5020TIP3    H236552   0.429   5.102  13.067 -2.3146 -0.4629  1.6490
 5021TIP3   OH236553   4.633   2.886   6.159 -0.2933  0.0093 -0.6047
 5021TIP3    H136554   4.560   2.879   6.098 -0.7866  0.8454 -0.1265
 5021TIP3    H236555   4.707   2.915   6.105 -0.9984  1.8360 -0.6432
 5022TIP3   OH236556   6.570   2.013   6.042  0.3637  0.1224  0.0491
 5022TIP3    H136557   6.556   2.079   6.110 -1.2604  0.8128 -0.8885
 5022TIP3    H236558   6.649   1.966   6.069  0.1453  0.8162  2.0413
 5023TIP3   OH236559   6.107   0.731  15.409 -0.3200 -0.7959  0.8609
 5023TIP3    H136560   6.163   0.697  15.340 -0.3646 -2.0436  1.4070
 5023TIP3    H236561   6.126   0.825  15.412  1.4039 -1.1050  0.7157
 5024TIP3   OH236562   6.094   2.255  11.088 -0.4169 -0.1730  0.2856
 5024TIP3    H136563   6.098   2.314  11.164 -0.6881  2.4115 -1.5696
 5024TIP3    H236564   6.183   2.221  11.081 -0.4953 -0.8521  2.0002
 5025TIP3   OH236565   3.886   3.666   6.144  0.4657  0.0078 -0.2026
 5025TIP3    H136566   3.835   3.619   6.210  1.3354 -0.8387 -0.1161
 5025TIP3    H236567   3.835   3.745   6.126  0.4249  0.4730  1.7801
 5026TIP3   OH236568   4.591   3.446  12.914  0.0238 -0.5150  0.0456
 5026TIP3    H136569   4.552   3.425  12.999  3.4372 -2.5086  1.3276
 5026TIP3    H236570   4.560   3.535  12.895 -0.2062  0.4017  3.8600
 5027TIP3   OH236571   0.191   5.603  13.850 -0.0158  0.4110 -0.0206
 5027TIP3    H136572   0.242   5.531  13.811 -0.8066 -1.2131  1.8094
 5027TIP3    H236573   0.249   5.642  13.915 -0.3368 -0.0076  0.5216
 5028TIP3   OH236574   1.480   3.879  16.045  0.3855  0.1606 -0.3493
 5028TIP3    H136575   1.388   3.854  16.041  0.7627 -1.7229  1.2128
 5028TIP3    H236576   1.479   3.973  16.063 -1.2102  0.2449 -0.7696
 5029TIP3   OH236577   3.530   6.500  11.447 -0.0829 -0.4455 -0.1058
 5029TIP3    H136578   3.600   6.547  11.492  0.9959 -1.6045 -0.5002
 5029TIP3    H236579   3.539   6.410  11.478 -2.5537 -0.3114  1.1890
 5030TIP3   OH236580   5.607   0.453   0.098  0.5155  0.2629  0.1739
 5030TIP3    H136581   5.622   0.359   0.085  0.1085  0.1725  0.3460
 5030TIP3    H236582   5.690   0.494   0.072  0.5600 -0.1101 -0.2889
 5031TIP3   OH236583   4.450   5.259   5.813 -0.4450  0.1907 -0.0716
 5031TIP3    H136584   4.387   5.188   5.810 -1.8044  1.1753  2.2677
 5031TIP3    H236585   4.410   5.330   5.762 -1.3539  0.8312  1.4493
 5032TIP3   OH236586   2.972   0.828  15.213 -0.5851  0.4669  0.7100
 5032TIP3    H136587   2.997   0.809  15.123 -0.9039  2.4400  0.1628
 5032TIP3    H236588   3.019   0.764  15.265 -1.4736 -1.6416 -0.9306
 5033TIP3   OH236589   2.246   3.700  14.028  0.1229  0.0751  0.0923
 5033TIP3    H136590   2.268   3.735  13.942  0.9973  0.9039  0.6254
 5033TIP3    H236591   2.244   3.777  14.085  0.9831 -0.5985  1.0843
 5034TIP3   OH236592   3.475   4.086  13.156 -0.1518 -0.5500  0.1982
 5034TIP3    H136593   3.388   4.092  13.116 -0.0540  0.6883  0.1358
 5034TIP3    H236594   3.469   4.142  13.233  1.1916  1.2895 -0.9600
 5035TIP3   OH236595   5.627   6.289  12.859  0.5459  0.1018 -0.2372
 5035TIP3    H136596   5.556   6.293  12.924  1.0901 -0.4163  0.4095
 5035TIP3    H236597   5.619   6.202  12.820  1.4243 -0.3716  0.5696
 5036TIP3   OH236598   5.335   2.193  11.583  0.3291  0.7725  0.2943
 5036TIP3    H136599   5.356   2.190  11.676  0.1969  0.2769  0.3108
 5036TIP3    H236600   5.249   2.151  11.576  0.1101  1.2599  0.0117
 5037TIP3   OH236601   0.979   5.838  15.716 -0.2066  0.3275 -0.6459
 5037TIP3    H136602   0.979   5.873  15.805  0.4669 -1.6046  0.1696
 5037TIP3    H236603   1.055   5.780  15.713 -0.2744  0.2643 -2.4702
 5038TIP3   OH236604   1.658   4.861   5.811  0.3068  0.5145 -0.2354
 5038TIP3    H136605   1.678   4.784   5.863 -0.0306  1.4393  1.3334
 5038TIP3    H236606   1.565   4.853   5.790  0.6285 -0.2571 -1.4043
 5039TIP3   OH236607   6.012   3.125   0.657  0.4434  0.2989 -0.1688
 5039TIP3    H136608   6.025   3.186   0.585 -1.7667 -0.9427 -1.7511
 5039TIP3    H236609   6.098   3.117   0.698  1.3853  2.3422 -1.5820
 5040TIP3   OH236610   4.169   3.113  17.112 -0.1557  0.3186 -0.7219
 5040TIP3    H136611   4.158   3.181  17.178 -1.6621  0.5114 -1.1184
 5040TIP3    H236612   4.141   3.155  17.030  0.7335 -0.2089 -1.3140
 5041TIP3   OH236613   3.449   3.196   4.246 -0.4684 -0.0003  0.4944
 5041TIP3    H136614   3.419   3.241   4.325  0.9062 -0.4646  1.3027
 5041TIP3    H236615   3.429   3.257   4.175 -3.1167 -0.1892  0.9626
 5042TIP3   OH236616   5.027   0.067   1.739  0.8875  0.1426 -0.4178
 5042TIP3    H136617   5.077  -0.014   1.748 -0.1198 -0.4630 -0.1128
 5042TIP3    H236618   4.973   0.071   1.817  0.5368  0.8413 -0.6895
 5043TIP3   OH236619   4.624   4.387  12.521 -0.2383  0.1338 -0.4603
 5043TIP3    H136620   4.650   4.299  12.546 -0.4032  0.7139  1.9526
 5043TIP3    H236621   4.672   4.445  12.580 -3.6181  1.4100  1.3738
 5044TIP3   OH236622   3.846   5.834  16.497  0.0283  0.0055  0.2555
 5044TIP3    H136623   3.927   5.884  16.508  0.4395 -0.4450 -0.6284
 5044TIP3    H236624   3.853   5.763  16.560  0.6362 -0.4172 -0.2774
 5045TIP3   OH236625   6.639   0.876   2.094  0.0147 -0.2697  0.1195
 5045TIP3    H136626   6.689   0.820   2.035  0.6937 -1.9049  2.1313
 5045TIP3    H236627   6.552   0.881   2.055  0.0914 -2.2856 -0.4348
 5046TIP3   OH236628   1.845   2.448   4.317  0.1656 -0.0647  0.1520
 5046TIP3    H136629   1.913   2.446   4.384  0.3531 -0.6805 -0.0438
 5046TIP3    H236630   1.764   2.427   4.364 -0.1243  1.9094  0.6179
 5047TIP3   OH236631   5.452   1.474   4.199  0.2210 -0.4373  0.0937
 5047TIP3    H136632   5.366   1.443   4.226  0.2102  0.4024  1.1052
 5047TIP3    H236633   5.498   1.396   4.169 -1.2141 -0.7464 -1.4191
 5048TIP3   OH236634   3.993   2.727  12.224  0.5418 -0.1649 -0.0164
 5048TIP3    H136635   4.033   2.648  12.259  1.0397  0.5461  1.0530
 5048TIP3    H236636   4.005   2.720  12.129 -1.7593 -2.6340 -0.2636
 5049TIP3   OH236637   6.687   4.745   5.537 -0.3274 -0.2639 -0.0471
 5049TIP3    H136638   6.655   4.758   5.448 -0.5113  2.0217  0.2994
 5049TIP3    H236639   6.623   4.790   5.592  1.0072  0.3878  1.0270
 5050TIP3   OH236640   6.113   5.906   6.024 -0.1823  0.3011  0.1403
 5050TIP3    H136641   6.148   5.833   6.075 -0.3345  0.7346  0.8875
 5050TIP3    H236642   6.018   5.903   6.039 -0.0252  1.7912  1.7796
 5051TIP3   OH236643   1.743   6.179  13.169 -0.2105  0.3164  0.2585
 5051TIP3    H136644   1.692   6.243  13.219  0.5054  1.1601 -0.0671
 5051TIP3    H236645   1.730   6.204  13.078 -2.1465 -1.6956 -0.0732
 5052TIP3   OH236646   2.745   1.387   4.311  0.3332  0.1556  0.4885
 5052TIP3    H136647   2.701   1.333   4.378 -0.3775  1.8337  1.4234
 5052TIP3    H236648   2.818   1.427   4.358 -0.0867  1.2308  0.2483
 5053TIP3   OH236649   2.929   5.996  11.514 -0.2101 -0.3756 -0.2418
 5053TIP3    H136650   2.985   5.947  11.574 -0.5488 -1.2394 -0.6248
 5053TIP3    H236651   2.844   5.999  11.557 -0.2215 -0.2159 -0.2724
 5054TIP3   OH236652   0.455   5.760  11.791  0.6615  0.2529  0.0338
 5054TIP3    H136653   0.362   5.737  11.787  0.3902  1.1299  1.0410
 5054TIP3    H236654   0.500   5.676  11.782 -0.2730 -0.4989  1.8724
 5055TIP3   OH236655   0.371   2.325   4.203 -0.0558  0.5578  0.3299
 5055TIP3    H136656   0.463   2.296   4.208  0.1790  1.3046  4.3209
 5055TIP3    H236657   0.376   2.421   4.205 -0.8912  0.5981  1.1520
 5056TIP3   OH236658   1.447   0.040  12.900 -0.4053 -0.0947  0.5936
 5056TIP3    H136659   1.360   0.061  12.935 -0.5307  0.2647  0.0884
 5056TIP3    H236660   1.432   0.022  12.808 -0.1373 -1.4432  0.8003
 5057TIP3   OH236661   2.227   0.905  15.084 -0.5801 -0.0754 -0.2054
 5057TIP3    H136662   2.196   0.991  15.113 -0.0392  0.2737 -0.6198
 5057TIP3    H236663   2.242   0.856  15.164 -1.3918  0.0359  0.0231
 5058TIP3   OH236664   6.243   3.340  16.771 -0.1337  0.3677 -0.6189
 5058TIP3    H136665   6.214   3.395  16.698 -2.6163 -1.8749 -1.5003
 5058TIP3    H236666   6.237   3.250  16.737 -1.9120 -0.8203  2.4130
 5059TIP3   OH236667   3.067   4.007   6.869  0.0007  0.8401 -0.0846
 5059TIP3    H136668   3.140   4.026   6.811 -0.6315 -1.0453 -1.6112
 5059TIP3    H236669   3.105   3.953   6.938  0.7956  3.2525  1.4869
 5060TIP3   OH236670   0.185   1.875  15.614  0.4429  0.0569 -0.4199
 5060TIP3    H136671   0.109   1.875  15.673  0.6118  0.8312 -0.1912
 5060TIP3    H236672   0.147   1.869  15.526  0.1773 -0.8210 -0.2582
 5061TIP3   OH236673   0.716   1.172  17.072  0.2726 -0.1284 -0.0481
 5061TIP3    H136674   0.662   1.213  17.005 -0.0922  0.7029  0.7359
 5061TIP3    H236675   0.659   1.106  17.112 -0.0295  0.4418  0.4781
 5062TIP3   OH236676   1.812   6.177   1.549  0.0808  0.1187  0.2867
 5062TIP3    H136677   1.863   6.154   1.627 -1.8375  0.5080  1.7265
 5062TIP3    H236678   1.815   6.272   1.545  2.1255  0.0524 -1.5599
 5063TIP3   OH236679   3.761   6.338  11.351  0.1969 -0.5563  0.4147
 5063TIP3    H136680   3.771   6.304  11.262 -0.0348  4.0966 -1.6383
 5063TIP3    H236681   3.703   6.275  11.394  1.3163 -3.6520 -2.2014
 5064TIP3   OH236682   6.692   6.448  17.255  0.0369 -0.2088  0.1960
 5064TIP3    H136683   6.675   6.501  17.177  0.1186  0.2272  0.4686
 5064TIP3    H236684   6.675   6.358  17.227  0.3569 -0.0918 -0.4132
 5065TIP3   OH236685   0.726   1.809   4.299 -0.4392  0.4674 -0.4963
 5065TIP3    H136686   0.632   1.813   4.318 -0.2332 -0.0263  0.6922
 5065TIP3    H236687   0.753   1.722   4.329  0.8961  1.5240  1.6173
 5066TIP3   OH236688   2.581   4.441   1.050 -0.4393 -0.5670  0.2445
 5066TIP3    H136689   2.587   4.466   1.142 -0.9610  0.8474 -0.0944
 5066TIP3    H236690   2.500   4.480   1.018 -0.9287 -2.1058 -0.5176
 5067TIP3   OH236691   4.911   5.723  12.506  0.1046  0.2615  0.3634
 5067TIP3    H136692   4.941   5.795  12.561 -1.5248 -0.4589  2.2995
 5067TIP3    H236693   4.829   5.695  12.546 -0.3034 -1.3971 -1.5034
 5068TIP3   OH236694   2.375   3.928   3.910  0.4759 -0.1348  0.1216
 5068TIP3    H136695   2.414   3.978   3.981  0.3089 -1.2717  1.0352
 5068TIP3    H236696   2.300   3.981   3.883  3.6370  3.2883 -3.2065
 5069TIP3   OH236697   1.316   2.434   1.929  0.0862  0.1243  0.0988
 5069TIP3    H136698   1.285   2.510   1.880 -1.1104  0.0643  0.7295
 5069TIP3    H236699   1.238   2.379   1.939  0.9748 -1.2955 -0.5210
 5070TIP3   OH236700   6.014   4.568   5.860  0.4407  0.2882 -0.2924
 5070TIP3    H136701   6.054   4.521   5.787  1.8366  1.9574 -0.6595
 5070TIP3    H236702   5.985   4.651   5.822 -0.3741  0.4863  0.7078
 5071TIP3   OH236703   3.324   5.213   3.564  0.1032 -0.8289  0.7358
 5071TIP3    H136704   3.365   5.204   3.650 -0.9516  0.4414  1.4178
 5071TIP3    H236705   3.230   5.207   3.582 -0.1036 -1.8204 -0.5211
 5072TIP3   OH236706   2.470   4.893  14.756 -0.0078  0.1221  0.3749
 5072TIP3    H136707   2.408   4.883  14.683  0.5827 -0.8998 -0.0142
 5072TIP3    H236708   2.433   4.840  14.826  0.2081 -0.1549  0.2824
 5073TIP3   OH236709   1.895   3.681  17.150 -0.8725  0.8794  0.3709
 5073TIP3    H136710   1.822   3.732  17.117 -0.0441  1.6182 -0.3466
 5073TIP3    H236711   1.934   3.736  17.218 -0.5540  0.7893  0.2625
 5074TIP3   OH236712   6.776   4.334   6.923 -0.5278  0.4566  0.1064
 5074TIP3    H136713   6.711   4.395   6.958 -1.7640  0.8088 -2.5761
 5074TIP3    H236714   6.747   4.248   6.955 -0.1290  0.9427  1.9379
 5075TIP3   OH236715   2.823   0.273  10.939 -0.1765  0.3739 -0.9621
 5075TIP3    H136716   2.816   0.368  10.933 -0.7457  0.6641  2.4945
 5075TIP3    H236717   2.915   0.256  10.956 -0.2315  0.4153 -0.6079
 5076TIP3   OH236718   5.594   4.292  13.326  0.3064 -0.2979  0.0761
 5076TIP3    H136719   5.546   4.320  13.248  1.0367 -1.1245 -0.6943
 5076TIP3    H236720   5.659   4.360  13.341 -0.9540  0.7416  1.0225
 5077TIP3   OH236721   4.135   2.023   2.641 -0.0902 -0.2535 -0.1139
 5077TIP3    H136722   4.075   2.063   2.704 -1.0479 -0.0841 -1.0927
 5077TIP3    H236723   4.194   2.094   2.615  0.4961 -0.3979  0.7854
 5078TIP3   OH236724   0.663   6.394   3.439 -0.1431  0.0044  0.7611
 5078TIP3    H136725   0.587   6.335   3.439 -0.8615  0.8641  2.2803
 5078TIP3    H236726   0.699   6.388   3.350 -2.2872 -0.0512 -0.1565
 5079TIP3   OH236727   0.981   3.355  14.342 -0.9472  0.1762  0.2433
 5079TIP3    H136728   1.050   3.313  14.291 -0.1283  1.3951  0.2897
 5079TIP3    H236729   0.918   3.385  14.276 -0.5125  0.6478  0.0330
 5080TIP3   OH236730   3.393   1.118  11.086  0.1598 -0.3188  0.2137
 5080TIP3    H136731   3.322   1.175  11.114  2.3676  2.9406 -0.2624
 5080TIP3    H236732   3.380   1.109  10.991  0.5438  0.6335  0.0546
 5081TIP3   OH236733   2.155   4.703  17.062  0.3968  0.3266  0.7198
 5081TIP3    H136734   2.247   4.707  17.090  0.3825 -0.5500  0.9224
 5081TIP3    H236735   2.116   4.637  17.119 -0.1847  0.1708  0.1477
 5082TIP3   OH236736   5.330   2.438  15.684  0.4026 -0.2351  0.0968
 5082TIP3    H136737   5.306   2.410  15.773  1.9880  0.4304  0.7820
 5082TIP3    H236738   5.307   2.530  15.681 -0.4700 -0.4635 -0.5150
 5083TIP3   OH236739   0.941   3.314  15.253 -0.2323 -0.3048  0.0847
 5083TIP3    H136740   1.026   3.307  15.296  0.2121  1.7104 -0.3666
 5083TIP3    H236741   0.878   3.285  15.319  0.7317 -1.1205  0.6756
 5084TIP3   OH236742   0.632   0.289  14.184 -0.0713 -0.0420  0.2093
 5084TIP3    H136743   0.693   0.253  14.120 -0.7736 -1.9861  0.5572
 5084TIP3    H236744   0.561   0.325  14.131 -0.2989 -0.9836 -0.1491
 5085TIP3   OH236745   1.550   1.798   4.994 -0.2925  0.4135 -0.3099
 5085TIP3    H136746   1.472   1.748   4.969 -1.9058  2.1772  0.9009
 5085TIP3    H236747   1.622   1.751   4.952 -1.8327 -2.0237 -0.4723
 5086TIP3   OH236748   5.280   3.754   3.138  0.5305  0.4299 -0.0953
 5086TIP3    H136749   5.231   3.712   3.208 -0.9169  2.0581 -0.0644
 5086TIP3    H236750   5.304   3.682   3.079  0.1703 -0.7111  1.0946
 5087TIP3   OH236751   4.268   5.593   5.245 -0.2421 -0.2624 -0.2370
 5087TIP3    H136752   4.224   5.649   5.309  1.3742 -0.1773  0.8312
 5087TIP3    H236753   4.206   5.588   5.172 -2.6952 -1.3489  1.7732
 5088TIP3   OH236754   3.808   5.197  11.904  0.3638  0.5081 -0.2792
 5088TIP3    H136755   3.732   5.244  11.870  0.3409  0.1997 -0.6642
 5088TIP3    H236756   3.879   5.219  11.843  0.7683  1.3382  0.4531
 5089TIP3   OH236757   6.238   5.537   4.657  0.1653  0.1221 -0.2117
 5089TIP3    H136758   6.236   5.516   4.750  0.4848  1.6507  0.1683
 5089TIP3    H236759   6.288   5.619   4.651 -0.3706  0.3880 -1.6567
 5090TIP3   OH236760   5.928   2.093   2.964 -0.0528 -0.3005 -0.1093
 5090TIP3    H136761   5.935   1.998   2.957 -2.3708 -0.6917  1.7239
 5090TIP3    H236762   5.896   2.121   2.879  0.1191 -1.2257 -0.4931
 5091TIP3   OH236763   0.254   6.272  12.561  0.7335  0.6184  0.0572
 5091TIP3    H136764   0.253   6.193  12.506 -0.4012  0.5637  0.1315
 5091TIP3    H236765   0.333   6.263  12.614  0.4267 -0.6802  0.3411
 5092TIP3   OH236766   2.295   6.487   3.812 -0.1364 -0.1182 -0.2708
 5092TIP3    H136767   2.221   6.444   3.769  0.4256 -0.8519 -0.5247
 5092TIP3    H236768   2.258   6.568   3.848 -1.0474 -0.4494 -0.4315
 5093TIP3   OH236769   0.206   3.204  13.056 -0.6608 -0.1026  0.1065
 5093TIP3    H136770   0.121   3.163  13.074 -0.8168 -0.4206 -1.2184
 5093TIP3    H236771   0.185   3.296  13.040 -0.8708 -0.3186 -0.9278
 5094TIP3   OH236772   5.058   4.335  15.450  0.5690 -0.2541 -0.5548
 5094TIP3    H136773   5.147   4.314  15.421 -0.0377 -1.4267 -1.6635
 5094TIP3    H236774   5.017   4.376  15.374  0.3558  0.9407  0.1801
 5095TIP3   OH236775   1.770   2.415   5.623  0.4639 -0.4580  0.1902
 5095TIP3    H136776   1.744   2.505   5.642 -0.3029  0.1698 -3.1354
 5095TIP3    H236777   1.715   2.361   5.681  0.7368  1.1315  2.0306
 5096TIP3   OH236778   6.245   5.723  14.122 -0.5944  0.1203  0.0713
 5096TIP3    H136779   6.152   5.744  14.117 -0.2179  1.7771 -0.3707
 5096TIP3    H236780   6.281   5.750  14.038  0.2056 -1.0177  0.0267
 5097TIP3   OH236781   4.952   5.109  16.277 -0.6648  0.4282  0.4138
 5097TIP3    H136782   4.896   5.083  16.204  0.2300 -0.3517 -0.0232
 5097TIP3    H236783   4.931   5.048  16.347  0.0585 -0.2848  0.0357
 5098TIP3   OH236784   0.921   6.307  11.381  0.1094 -0.3585 -0.4941
 5098TIP3    H136785   0.894   6.242  11.316 -2.1303 -0.5539  0.5233
 5098TIP3    H236786   0.912   6.263  11.465  1.3895  0.3978  0.0762
 5099TIP3   OH236787   5.888   2.598   1.603 -0.0787  0.2352  0.3056
 5099TIP3    H136788   5.858   2.611   1.513 -0.7685  1.8239  0.7221
 5099TIP3    H236789   5.981   2.619   1.601 -0.2947  1.2328  0.1276
 5100TIP3   OH236790   1.854   4.948  11.987 -0.6139  0.6647  0.0904
 5100TIP3    H136791   1.765   4.934  11.955 -0.8712 -1.6771  1.5432
 5100TIP3    H236792   1.910   4.911  11.919 -0.7586  1.5495 -0.5263
 5101TIP3   OH236793   6.579   4.086   5.142 -0.5588 -0.0081 -0.4050
 5101TIP3    H136794   6.579   4.177   5.112 -0.3491 -0.0840 -0.6425
 5101TIP3    H236795   6.489   4.057   5.133 -0.6401  0.1996 -0.2621
 5102TIP3   OH236796   5.089   1.957  17.467  0.0714  0.1784  0.1683
 5102TIP3    H136797   5.075   2.017  17.395 -0.5445 -0.4341 -0.2312
 5102TIP3    H236798   5.133   1.882  17.427  0.5693  0.2287  0.6081
 5103TIP3   OH236799   3.343   3.212  12.528 -1.0867 -0.8285  0.0629
 5103TIP3    H136800   3.291   3.227  12.449 -2.5968 -1.3133  0.9262
 5103TIP3    H236801   3.279   3.185  12.594  0.0345  0.2136  1.6531
 5104TIP3   OH236802   5.869   4.005   0.662  0.3024  0.2855  0.3123
 5104TIP3    H136803   5.884   4.096   0.688  2.5160 -0.6198  2.6359
 5104TIP3    H236804   5.922   3.995   0.583  0.0247  1.0013  0.0235
 5105TIP3   OH236805   4.719   1.307   5.688  0.7620  0.0756 -0.3984
 5105TIP3    H136806   4.778   1.244   5.729  1.1384  0.0070 -1.0296
 5105TIP3    H236807   4.765   1.390   5.693  0.6777  0.1231 -0.4079
 5106TIP3   OH236808   5.958   3.717   3.407  0.0187 -0.0396 -0.1126
 5106TIP3    H136809   5.996   3.799   3.376 -0.1757 -0.0307 -0.3298
 5106TIP3    H236810   5.866   3.737   3.422  0.0734 -0.0899  0.3085
 5107TIP3   OH236811   4.942   5.752   4.861  0.1455  0.2858  0.2796
 5107TIP3    H136812   5.015   5.722   4.807  1.1618  1.6330  0.8499
 5107TIP3    H236813   4.961   5.845   4.877 -1.7163  0.6890  0.4069
 5108TIP3   OH236814   4.334   6.286  10.488  0.1512  0.4180  0.1564
 5108TIP3    H136815   4.318   6.332  10.405 -0.2997 -0.7998 -0.4655
 5108TIP3    H236816   4.336   6.355  10.554  3.3784  1.7963 -1.1679
 5109TIP3   OH236817   2.283   3.644   0.735 -0.6384  0.4690 -0.5232
 5109TIP3    H136818   2.307   3.628   0.827  3.5364  1.7369 -1.1406
 5109TIP3    H236819   2.279   3.557   0.696 -0.1527 -0.0131  0.4449
 5110TIP3   OH236820   5.515   0.018  16.724  0.1578 -0.7271 -0.2673
 5110TIP3    H136821   5.569  -0.008  16.650 -0.2003  0.2973 -0.9143
 5110TIP3    H236822   5.438   0.059  16.685 -0.5293 -1.0881  0.6619
 5111TIP3   OH236823   0.852   1.758  13.147 -0.6182  0.2470 -0.1865
 5111TIP3    H136824   0.920   1.726  13.206 -0.1213  0.0203 -0.8668
 5111TIP3    H236825   0.885   1.740  13.059 -2.8379 -2.6855 -0.5791
 5112TIP3   OH236826   6.114   0.678  14.080 -0.2190  0.0766 -0.0506
 5112TIP3    H136827   6.146   0.607  14.024 -1.3543 -0.4880 -0.0062
 5112TIP3    H236828   6.020   0.679  14.066 -0.6080 -0.3694  2.1763
 5113TIP3   OH236829   4.846   1.716   3.667 -0.1038 -0.5920  0.6458
 5113TIP3    H136830   4.909   1.680   3.730 -0.4109 -2.0927  0.1454
 5113TIP3    H236831   4.886   1.700   3.582 -1.3940 -2.1562  0.2805
 5114TIP3   OH236832   6.653   1.436  14.074  0.3805 -0.4190  0.1946
 5114TIP3    H136833   6.702   1.367  14.119  3.2070  0.5280 -1.1559
 5114TIP3    H236834   6.653   1.408  13.982  0.8280  0.9480 -0.2410
 5115TIP3   OH236835   4.555   0.316  13.344  0.1236  0.6032  0.2504
 5115TIP3    H136836   4.630   0.322  13.285 -0.6781 -1.2477 -1.0643
 5115TIP3    H236837   4.568   0.234  13.391 -1.4945 -0.2107 -0.6547
 5116TIP3   OH236838   2.157   3.981  12.836  0.3812 -0.1377 -0.0965
 5116TIP3    H136839   2.238   4.013  12.875  1.1518 -1.2430 -0.7471
 5116TIP3    H236840   2.169   3.994  12.742 -1.3052  2.1647 -0.0702
 5117TIP3   OH236841   5.954   5.284   4.802  0.8373 -0.0752  0.5082
 5117TIP3    H136842   5.930   5.290   4.894  0.8883 -0.1783  0.5285
 5117TIP3    H236843   5.976   5.191   4.789 -0.1896 -0.2822  0.1421
 5118TIP3   OH236844   6.545   3.629  13.527  0.0506  0.1328 -0.1431
 5118TIP3    H136845   6.576   3.599  13.613  1.6271  2.9827  0.3871
 5118TIP3    H236846   6.469   3.684  13.546 -0.0923  0.1168 -0.6549
 5119TIP3   OH236847   3.928   1.693  14.046 -0.4871 -0.1320 -0.0574
 5119TIP3    H136848   3.989   1.648  13.987  0.4460  0.6490  0.2840
 5119TIP3    H236849   3.857   1.630  14.060  0.3443 -1.1492 -0.3095
 5120TIP3   OH236850   1.662   4.758   5.400 -0.1082  0.1480 -0.0555
 5120TIP3    H136851   1.718   4.821   5.446 -1.6482  2.2379 -0.9046
 5120TIP3    H236852   1.719   4.722   5.332  0.5380  1.4094 -0.2128
 5121TIP3   OH236853   1.078   2.800   1.043 -0.0307  0.0921 -0.5544
 5121TIP3    H136854   1.112   2.715   1.016  1.6481  0.7811 -0.7662
 5121TIP3    H236855   1.081   2.798   1.139  0.7363  0.1521 -0.5647
 5122TIP3   OH236856   1.529   0.327  11.369 -0.4743 -0.0998  0.2989
 5122TIP3    H136857   1.452   0.378  11.393 -1.5804 -0.5853 -1.9449
 5122TIP3    H236858   1.501   0.274  11.294  2.4207  0.8185 -1.6121
 5123TIP3   OH236859   3.577   1.558  15.961 -0.2452  0.5892  0.1083
 5123TIP3    H136860   3.629   1.508  15.898  1.0361 -0.3809  1.8739
 5123TIP3    H236861   3.488   1.523  15.952 -0.3550  1.2492 -1.8997
 5124TIP3   OH236862   2.999   0.200   5.121  0.0946  0.2949 -0.0700
 5124TIP3    H136863   2.975   0.153   5.202 -1.8304  2.7421  0.9181
 5124TIP3    H236864   2.979   0.138   5.051  1.1698 -1.6622  1.2626
 5125TIP3   OH236865   3.435   5.087  16.313  0.2117  0.0082  0.1255
 5125TIP3    H136866   3.469   5.017  16.368 -1.2745 -0.4888  0.4512
 5125TIP3    H236867   3.463   5.167  16.356 -1.7491 -0.3309  2.2478
 5126TIP3   OH236868   6.669   6.067   5.472  0.3589  0.5557  0.4491
 5126TIP3    H136869   6.678   6.159   5.497  1.8824  0.1358  1.5572
 5126TIP3    H236870   6.685   6.018   5.552  0.9992 -0.7207 -0.4143
 5127TIP3   OH236871   5.301   6.099  13.733 -0.1961  0.3089 -0.0441
 5127TIP3    H136872   5.379   6.146  13.704 -0.7530  1.0141 -0.4401
 5127TIP3    H236873   5.296   6.022  13.676  1.3048 -0.8381  1.2934
 5128TIP3   OH236874   2.718   6.669  11.985 -0.0292 -0.2616 -0.0137
 5128TIP3    H136875   2.813   6.668  11.998  0.2706 -0.0841 -1.8869
 5128TIP3    H236876   2.695   6.578  11.964 -0.0434 -0.0447 -0.9532
 5129TIP3   OH236877   2.755   5.036  13.433 -0.1166  0.1691  0.4249
 5129TIP3    H136878   2.788   5.050  13.344  0.1913 -0.1813  0.4856
 5129TIP3    H236879   2.754   4.941  13.444 -2.7997  0.0290 -0.2075
 5130TIP3   OH236880   1.880   0.233  16.613 -0.3355 -0.0275  0.0898
 5130TIP3    H136881   1.858   0.178  16.688 -0.1567  0.4293  0.4803
 5130TIP3    H236882   1.882   0.322  16.647 -4.7932  0.8715 -1.3256
 5131TIP3   OH236883   0.447   5.052  12.579  0.2359 -0.6703  0.3155
 5131TIP3    H136884   0.430   4.971  12.531  0.7484 -1.9751  2.2172
 5131TIP3    H236885   0.532   5.037  12.621 -0.0412  0.5155  1.3577
 5132TIP3   OH236886   3.039   3.526   3.051 -0.1199  0.0567  0.3928
 5132TIP3    H136887   3.059   3.433   3.054  3.4606  0.6863  0.5166
 5132TIP3    H236888   2.981   3.541   3.126  0.2557 -1.8469  1.1038
 5133TIP3   OH236889   1.035   0.884  15.234  0.3576 -0.2547 -0.0803
 5133TIP3    H136890   0.996   0.836  15.161  0.7507 -1.0156  0.1964
 5133TIP3    H236891   1.099   0.942  15.193  3.4432 -3.3945 -0.1870
 5134TIP3   OH236892   4.735   2.390  12.204  0.1807  0.2634  0.1619
 5134TIP3    H136893   4.715   2.296  12.210  1.3110 -0.0222 -0.2579
 5134TIP3    H236894   4.654   2.434  12.231 -1.0360 -0.8074 -1.5466
 5135TIP3   OH236895   4.542   0.672   4.512  0.3887 -0.0625  0.1772
 5135TIP3    H136896   4.571   0.737   4.448 -0.8910 -0.0745 -0.4332
 5135TIP3    H236897   4.623   0.630   4.542  1.0712  0.5297 -0.7963
 5136TIP3   OH236898   1.004   1.850  14.143  0.3087  0.0035 -0.1701
 5136TIP3    H136899   1.087   1.888  14.116 -0.4307  1.5619 -0.3955
 5136TIP3    H236900   1.014   1.836  14.237  1.8017 -2.5679 -0.6120
 5137TIP3   OH236901   1.647   5.632  14.430 -0.0578  0.4913  0.0067
 5137TIP3    H136902   1.567   5.674  14.397  0.0509 -0.8953 -2.2978
 5137TIP3    H236903   1.615   5.560  14.485 -0.4115  0.2648 -0.4812
 5138TIP3   OH236904   3.924   1.489   5.800  0.3394  0.3542  0.1630
 5138TIP3    H136905   3.849   1.521   5.851 -0.2353 -0.0765 -0.4016
 5138TIP3    H236906   3.921   1.541   5.719  0.9473  0.6836  0.3498
 5139TIP3   OH236907   0.677   5.387   2.872 -0.0423 -0.6360 -0.7676
 5139TIP3    H136908   0.645   5.465   2.918  0.2189 -0.6195 -0.6135
 5139TIP3    H236909   0.745   5.351   2.930  0.3932 -0.5295 -1.2094
 5140TIP3   OH236910   0.284   0.727   4.481  0.2146 -0.4178 -0.0231
 5140TIP3    H136911   0.217   0.668   4.447 -0.3302 -0.3725  0.9512
 5140TIP3    H236912   0.336   0.751   4.404 -0.4952 -0.9505 -0.6806
 5141TIP3   OH236913   1.643   0.487   2.017  0.4203  0.1036 -0.3113
 5141TIP3    H136914   1.688   0.527   2.091 -0.2057  0.9182 -0.3472
 5141TIP3    H236915   1.654   0.551   1.946 -1.8357  0.9577  0.0256
 5142TIP3   OH236916   2.371   5.702  17.257  0.2738  0.2916  0.3019
 5142TIP3    H136917   2.352   5.655  17.338  1.2153  0.0658  0.4019
 5142TIP3    H236918   2.298   5.682  17.200  0.2288 -0.5851  0.6563
 5143TIP3   OH236919   2.255   2.479  12.060  0.2488  0.3607 -0.3057
 5143TIP3    H136920   2.312   2.550  12.089  0.0290  0.5372 -0.3071
 5143TIP3    H236921   2.237   2.429  12.139  0.7413  0.0604 -0.3743
 5144TIP3   OH236922   3.570   6.412  17.137 -0.1031 -0.6208 -0.4011
 5144TIP3    H136923   3.591   6.422  17.229 -2.0928  1.4041 -0.0797
 5144TIP3    H236924   3.573   6.501  17.101 -0.9460 -1.1536 -1.8876
 5145TIP3   OH236925   4.794   0.541  15.434  0.1405 -0.1696 -0.0267
 5145TIP3    H136926   4.811   0.564  15.343 -0.7636 -2.1264 -0.7601
 5145TIP3    H236927   4.769   0.448  15.431 -0.2105 -0.2120  2.1842
 5146TIP3   OH236928   2.292   5.771   0.450 -0.3574  0.2980  0.0617
 5146TIP3    H136929   2.236   5.830   0.500  0.6031  0.0249  1.5278
 5146TIP3    H236930   2.288   5.688   0.499 -1.1095 -0.6704 -1.5489
 5147TIP3   OH236931   6.642   5.493   4.521 -0.2305  0.8232 -0.0014
 5147TIP3    H136932   6.619   5.509   4.612  0.2221 -0.3184  0.3352
 5147TIP3    H236933   6.712   5.554   4.502 -0.4167  1.1587  0.3709
 5148TIP3   OH236934   1.755   4.153   4.012  0.5178  0.1226 -0.6663
 5148TIP3    H136935   1.692   4.102   3.961  0.8838  0.4766 -1.4815
 5148TIP3    H236936   1.838   4.143   3.965  1.1938 -0.7513  0.6716
 5149TIP3   OH236937   5.614   4.275  11.276 -0.1416 -0.4825  0.2090
 5149TIP3    H136938   5.665   4.198  11.250  0.9271 -0.1697  1.3060
 5149TIP3    H236939   5.556   4.292  11.201  0.7722 -1.3475 -0.7207
 5150TIP3   OH236940   3.883   1.929  16.159  0.7776 -0.0768 -0.1119
 5150TIP3    H136941   3.798   1.889  16.177  0.8383  0.4653  1.5437
 5150TIP3    H236942   3.882   2.011  16.208  2.7456 -0.6881  1.0708
 5151TIP3   OH236943   5.379   6.426   6.246 -0.2045 -0.3737 -0.0378
 5151TIP3    H136944   5.348   6.510   6.279  0.1275 -0.8182  1.4486
 5151TIP3    H236945   5.403   6.376   6.324 -0.1799 -1.7746 -0.9056
 5152TIP3   OH236946   4.696   3.785  14.890  0.5808 -0.2314  0.0704
 5152TIP3    H136947   4.628   3.723  14.864  1.1964 -0.7046 -0.4363
 5152TIP3    H236948   4.688   3.857  14.827 -1.8185  1.5099  2.1496
 5153TIP3   OH236949   1.192   0.275  16.856 -0.1079  0.2001 -0.1056
 5153TIP3    H136950   1.278   0.288  16.815 -1.2962  0.0912 -2.8559
 5153TIP3    H236951   1.168   0.361  16.890  1.0863  0.2194  0.7422
 5154TIP3   OH236952   3.375   3.599   0.240  0.1453 -0.1641 -0.3939
 5154TIP3    H136953   3.325   3.654   0.300  0.5819  0.4294 -0.5638
 5154TIP3    H236954   3.314   3.529   0.215 -0.9768  1.1177 -1.4082
 5155TIP3   OH236955   4.227   5.060   3.992  0.4380  0.4400  0.2217
 5155TIP3    H136956   4.226   5.153   4.017  1.2243  0.1063  1.5824
 5155TIP3    H236957   4.306   5.025   4.031  0.1406 -0.8335 -0.2556
 5156TIP3   OH236958   3.301   4.585  13.862  0.2235  0.2327  0.4620
 5156TIP3    H136959   3.271   4.674  13.880 -1.2407 -0.3329  0.8965
 5156TIP3    H236960   3.334   4.554  13.947 -0.0980  0.0460  0.5179
 5157TIP3   OH236961   3.619   4.879   5.423 -0.1626  1.1181 -0.7054
 5157TIP3    H136962   3.656   4.829   5.495 -2.1659  1.8582  0.9441
 5157TIP3    H236963   3.680   4.865   5.350  0.6579 -1.6441  0.3787
 5158TIP3   OH236964   5.302   5.136  17.498 -0.0554  0.0096  0.1435
 5158TIP3    H136965   5.283   5.224  17.465 -0.5538 -0.0188  0.3523
 5158TIP3    H236966   5.358   5.152  17.575  0.3161  0.1164 -0.1454
 5159TIP3   OH236967   5.907   6.741   0.903  0.2668 -0.0242  0.1664
 5159TIP3    H136968   5.924   6.733   0.997  1.5562  4.0127  0.4660
 5159TIP3    H236969   5.816   6.771   0.899  0.7049  1.4347  0.3445
 5160TIP3   OH236970   4.367   6.184   4.715  0.3220 -0.3324  0.0794
 5160TIP3    H136971   4.276   6.179   4.746  0.1535 -1.6752 -0.5613
 5160TIP3    H236972   4.384   6.098   4.677  1.3436  0.4311 -1.2747
 5161TIP3   OH236973   2.788   1.101  14.604 -0.0789 -0.0629  0.3129
 5161TIP3    H136974   2.862   1.117  14.663 -1.2876  2.3549  1.3057
 5161TIP3    H236975   2.711   1.121  14.657 -1.2860  0.6695 -1.6256
 5162TIP3   OH236976   5.148   6.281   0.044 -0.1308  0.1084  1.0011
 5162TIP3    H136977   5.116   6.359  -0.002  0.0362 -0.3527  0.0744
 5162TIP3    H236978   5.188   6.315   0.124  4.4809  1.6339 -1.5797
 5163TIP3   OH236979   1.765   1.965   5.357 -0.0540 -0.1432 -0.0007
 5163TIP3    H136980   1.853   1.926   5.351 -0.0073 -0.6322  2.6561
 5163TIP3    H236981   1.781   2.057   5.380 -0.2194 -0.2556  0.5778
 5164TIP3   OH236982   2.647   0.771   2.365 -0.0688  0.1212 -0.2043
 5164TIP3    H136983   2.654   0.704   2.297 -1.1870 -0.3603  0.1277
 5164TIP3    H236984   2.728   0.764   2.415  0.8142  0.5334 -1.5126
 5165TIP3   OH236985   2.786   1.358   2.821  0.9883 -0.1040 -0.6287
 5165TIP3    H136986   2.784   1.453   2.827  0.6214 -0.0502 -1.4491
 5165TIP3    H236987   2.843   1.340   2.746  0.5628 -0.5004 -0.8632
 5166TIP3   OH236988   2.851   2.611  12.439  0.2154  0.3523  0.6381
 5166TIP3    H136989   2.786   2.549  12.474 -2.2930  1.0261 -2.3588
 5166TIP3    H236990   2.802   2.692  12.426  2.3797  1.7222  0.6647
 5167TIP3   OH236991   2.248   2.556   5.788  0.1466  0.8140  0.0793
 5167TIP3    H136992   2.299   2.564   5.869 -0.4754  1.0257  0.4530
 5167TIP3    H236993   2.188   2.631   5.791 -1.5141 -0.4847  0.5869
 5168TIP3   OH236994   1.507   3.141   5.804  0.1878 -0.5537 -0.2479
 5168TIP3    H136995   1.518   3.218   5.748 -0.6930 -0.4079 -0.2302
 5168TIP3    H236996   1.522   3.173   5.893 -2.9223  0.2817  0.0832
 5169TIP3   OH236997   3.687   2.858  15.570  0.6511  0.1859 -0.6645
 5169TIP3    H136998   3.751   2.826  15.633 -0.4348  1.2260  1.0490
 5169TIP3    H236999   3.719   2.946  15.547  0.8442 -0.0450 -1.3039
 5170TIP3   OH237000   3.509   1.215   3.367 -0.4038  0.0094 -0.1666
 5170TIP3    H137001   3.414   1.211   3.383 -0.4043 -0.4219 -0.2789
 5170TIP3    H237002   3.541   1.277   3.432 -0.8020  0.3640 -0.3018
 5171TIP3   OH237003   2.801   2.638   1.027  0.6843 -0.1156  0.1622
 5171TIP3    H137004   2.730   2.635   1.091  0.9892 -0.9510  0.4745
 5171TIP3    H237005   2.881   2.629   1.078  0.9600 -0.2533 -0.2825
 5172TIP3   OH237006   2.003   2.950  13.630 -0.2249  0.2918 -0.6861
 5172TIP3    H137007   1.930   2.981  13.682  0.9626  0.5992  0.8693
 5172TIP3    H237008   2.008   2.856  13.649  0.0832  0.3657 -0.3889
 5173TIP3   OH237009   6.444   1.511   1.739  0.2030 -0.1014  0.0461
 5173TIP3    H137010   6.457   1.418   1.722  0.7892 -0.1037  0.4684
 5173TIP3    H237011   6.484   1.555   1.664 -0.0749 -0.1829 -0.1537
 5174TIP3   OH237012   0.291   3.049   3.018  0.0677 -0.0654  0.3241
 5174TIP3    H137013   0.311   2.976   2.960  1.2874  1.0029 -0.6549
 5174TIP3    H237014   0.231   3.104   2.967  1.8437  1.3428 -0.3592
 5175TIP3   OH237015   5.566   2.774   6.486 -0.0118 -0.1690 -0.3504
 5175TIP3    H137016   5.487   2.722   6.502 -0.5506  1.1065  1.5959
 5175TIP3    H237017   5.534   2.853   6.442  0.2164  0.1763  0.0937
 5176TIP3   OH237018   2.018   5.619  15.187  0.1730 -0.3105 -0.0125
 5176TIP3    H137019   2.037   5.592  15.277  1.6818 -0.5375 -0.3689
 5176TIP3    H237020   2.064   5.703  15.177  0.3423 -0.4821 -0.6903
 5177TIP3   OH237021   5.902   5.749   4.218  0.5894 -0.5740  0.7686
 5177TIP3    H137022   5.940   5.836   4.207 -0.3896 -0.0856  1.1525
 5177TIP3    H237023   5.862   5.730   4.134  0.5626 -0.5393  0.7738
 5178TIP3   OH237024   4.921   4.353  16.918 -1.0847 -0.8000 -0.2167
 5178TIP3    H137025   4.881   4.391  16.840  0.0179  2.7189  0.7120
 5178TIP3    H237026   4.856   4.366  16.987 -0.1842  0.8782  0.3899
 5179TIP3   OH237027   2.171   3.493  15.770 -0.1084  0.5179 -0.3491
 5179TIP3    H137028   2.182   3.404  15.802  1.4676  0.7183 -0.2402
 5179TIP3    H237029   2.142   3.483  15.680  2.1682 -0.1909 -1.0686
 5180TIP3   OH237030   5.764   6.716   4.169 -0.1591 -0.2257 -0.6088
 5180TIP3    H137031   5.691   6.767   4.136  0.1183  1.6260  1.4496
 5180TIP3    H237032   5.841   6.771   4.152  0.4617 -1.0260 -0.4654
 5181TIP3   OH237033   1.828   2.736   2.467  0.5312 -0.0074 -0.2385
 5181TIP3    H137034   1.834   2.831   2.466 -0.7598  0.0827 -1.3829
 5181TIP3    H237035   1.782   2.716   2.548 -0.7730  0.4681 -0.8449
 5182TIP3   OH237036   2.852   5.425   4.327 -0.4635 -0.4801 -0.6603
 5182TIP3    H137037   2.780   5.428   4.389  0.3210 -3.4863  0.5683
 5182TIP3    H237038   2.930   5.450   4.377 -0.4067  1.8593 -1.7530
 5183TIP3   OH237039   6.202   5.381  10.894  0.4054 -0.0204  0.0045
 5183TIP3    H137040   6.157   5.381  10.810  0.5996 -1.1325 -0.1093
 5183TIP3    H237041   6.181   5.297  10.934  0.0897  0.5935  1.2081
 5184TIP3   OH237042   5.382   3.229  15.263  0.2285 -0.4887  0.0223
 5184TIP3    H137043   5.308   3.220  15.202  0.9402 -1.1077 -0.7760
 5184TIP3    H237044   5.374   3.318  15.298  0.1954  0.1356 -1.5051
 5185TIP3   OH237045   3.153   4.850   5.896  0.2202 -0.1904  0.8509
 5185TIP3    H137046   3.108   4.932   5.916 -0.3886 -0.4989  0.7724
 5185TIP3    H237047   3.225   4.846   5.959 -0.2451  0.0032  1.4022
 5186TIP3   OH237048   1.771   0.889   5.917 -0.3149  0.4846 -0.1854
 5186TIP3    H137049   1.814   0.926   5.994 -0.6560  0.3798  0.0587
 5186TIP3    H237050   1.704   0.953   5.893 -1.4941 -0.3542  0.7666
 5187TIP3   OH237051   2.557   2.616   2.146  0.0452  0.5961 -0.2895
 5187TIP3    H137052   2.534   2.593   2.236  1.2665 -0.0363 -0.1236
 5187TIP3    H237053   2.577   2.532   2.104  2.8356  1.1134 -0.1718
 5188TIP3   OH237054   2.467   3.941  12.649 -0.4693 -0.4750 -0.4143
 5188TIP3    H137055   2.477   3.872  12.714 -3.6138 -1.6434 -0.9913
 5188TIP3    H237056   2.508   3.905  12.570  0.5831 -0.3557  0.0597
 5189TIP3   OH237057   4.864   3.336  15.273  0.4345 -0.1127 -0.2103
 5189TIP3    H137058   4.879   3.400  15.343  1.8530 -1.6548  0.9618
 5189TIP3    H237059   4.803   3.380  15.214  0.2553  1.7723  1.2727
 5190TIP3   OH237060   5.317   1.088  15.469 -0.2887 -0.4076  0.6771
 5190TIP3    H137061   5.353   1.001  15.488 -1.2817 -1.1170 -0.5378
 5190TIP3    H237062   5.223   1.080  15.490 -0.8983 -0.4346 -1.7784
 5191TIP3   OH237063   1.616   1.619  15.115 -0.2926  0.0792  0.4815
 5191TIP3    H137064   1.666   1.657  15.042  0.5951  0.0145  1.0362
 5191TIP3    H237065   1.542   1.678  15.127  0.0605  0.6023  0.1182
 5192TIP3   OH237066   5.492   1.244  13.433 -0.7163 -0.1430  0.4127
 5192TIP3    H137067   5.411   1.196  13.455  0.4356 -1.7162  1.4777
 5192TIP3    H237068   5.553   1.176  13.406  0.1556  1.0688 -0.7679
 5193TIP3   OH237069   6.300   2.176   2.634 -0.1780 -0.3884  0.3407
 5193TIP3    H137070   6.385   2.136   2.656  0.2172 -0.1788 -0.7034
 5193TIP3    H237071   6.279   2.231   2.709  2.4663  2.5111 -0.8288
 5194TIP3   OH237072   4.738   0.703   2.328 -0.4361 -0.8786  0.6040
 5194TIP3    H137073   4.763   0.774   2.387  1.4853  1.6861 -2.8983
 5194TIP3    H237074   4.819   0.654   2.314 -0.4148 -0.4188 -1.0486
 5195TIP3   OH237075   6.630   4.774   5.283  0.2885  0.5371 -0.2323
 5195TIP3    H137076   6.718   4.781   5.245  0.9956  0.8926  1.4145
 5195TIP3    H237077   6.601   4.865   5.292 -0.2295  0.4223 -0.6928
 5196TIP3   OH237078   2.763   2.674  16.621  0.1881  0.5268 -0.0139
 5196TIP3    H137079   2.733   2.696  16.709  0.5589  0.3304  0.1636
 5196TIP3    H237080   2.820   2.747  16.596 -0.8181  1.1505 -0.5514
 5197TIP3   OH237081   2.159   5.837  17.013  0.2988 -0.1296 -0.4283
 5197TIP3    H137082   2.208   5.919  17.001 -0.7172  0.5479 -0.1106
 5197TIP3    H237083   2.221   5.768  16.990  0.9975  0.7573 -1.3056
 5198TIP3   OH237084   2.919   3.357  15.013 -0.1368 -0.4340  0.2492
 5198TIP3    H137085   2.895   3.430  15.070 -1.6810  0.9049 -1.9329
 5198TIP3    H237086   2.836   3.321  14.983  0.4941  0.3119 -2.7372
 5199TIP3   OH237087   6.485   4.115   4.087 -0.1105 -0.2794  0.0451
 5199TIP3    H137088   6.420   4.086   4.151  0.7857  0.9405  1.5770
 5199TIP3    H237089   6.453   4.200   4.057  0.0701 -0.3080 -0.2299
 5200TIP3   OH237090   0.763   3.588  17.247  0.1148  0.1357  0.9570
 5200TIP3    H137091   0.764   3.492  17.253 -0.2851  0.0421 -0.3190
 5200TIP3    H237092   0.699   3.615  17.314 -0.3798 -0.5411  0.7731
 5201TIP3   OH237093   0.639   1.763  13.980 -0.1106 -0.4783 -0.0287
 5201TIP3    H137094   0.589   1.749  14.061 -0.7256  0.2650 -0.2663
 5201TIP3    H237095   0.730   1.747  14.005 -0.0584  1.5263  1.2881
 5202TIP3   OH237096   5.260   5.728  15.930  0.0461 -0.1414 -0.1707
 5202TIP3    H137097   5.175   5.691  15.953 -0.1826  1.0633  0.9892
 5202TIP3    H237098   5.316   5.706  16.005  0.5977 -0.3963 -0.6530
 5203TIP3   OH237099   1.245   4.043   1.495 -0.5885  0.0205  0.1657
 5203TIP3    H137100   1.296   3.983   1.441  1.6591  0.6371  1.4822
 5203TIP3    H237101   1.224   3.994   1.574 -2.4620 -0.3512 -0.5123
 5204TIP3   OH237102   0.615   1.370  12.509  0.4561  0.5551 -0.2195
 5204TIP3    H137103   0.645   1.342  12.596 -0.8469  2.9655  1.0991
 5204TIP3    H237104   0.648   1.302  12.450  2.0476 -0.7827  2.0311
 5205TIP3   OH237105   1.972   3.380  14.305 -0.2289  0.4885 -0.6173
 5205TIP3    H137106   1.987   3.300  14.354  1.6808  0.5229 -1.0671
 5205TIP3    H237107   1.960   3.448  14.371 -0.0017  0.1467 -0.2296
 5206TIP3   OH237108   2.414   2.252   5.361 -0.1082  0.4436 -0.3217
 5206TIP3    H137109   2.378   2.226   5.446  1.5919  0.8237  0.5706
 5206TIP3    H237110   2.433   2.345   5.371 -0.3044  0.5899 -1.2800
 5207TIP3   OH237111   1.890   1.475   1.329 -0.7187  0.0172  0.6045
 5207TIP3    H137112   1.881   1.551   1.271 -1.0884 -1.4903 -1.4229
 5207TIP3    H237113   1.804   1.464   1.368 -0.6944  0.5748  0.8178
 5208TIP3   OH237114   1.337   0.759  10.457 -0.4318 -0.6998  0.4989
 5208TIP3    H137115   1.322   0.797  10.544 -0.3482 -0.9253  0.6116
 5208TIP3    H237116   1.250   0.729  10.429 -0.2861 -1.5346  0.9298
 5209TIP3   OH237117   1.842   6.439   1.487  0.0253 -0.1071 -0.4281
 5209TIP3    H137118   1.795   6.479   1.413  1.1114  2.1384  0.0035
 5209TIP3    H237119   1.810   6.487   1.563  0.7106 -0.7236  0.2572
 5210TIP3   OH237120   2.373   5.854  12.897 -0.0209  0.0216  0.1431
 5210TIP3    H137121   2.407   5.883  12.981  1.5865 -0.4924 -0.2761
 5210TIP3    H237122   2.443   5.876  12.834 -0.4040 -1.1969 -0.7603
 5211TIP3   OH237123   6.350   1.541  11.430 -0.3469 -0.2707 -0.8000
 5211TIP3    H137124   6.327   1.610  11.493  0.6822  0.9342 -1.6853
 5211TIP3    H237125   6.282   1.475  11.441  0.1673 -0.4727  2.0969
 5212TIP3   OH237126   6.741   0.233  14.821  0.2693 -0.1930 -0.4490
 5212TIP3    H137127   6.836   0.242  14.822  0.4873 -1.7059  1.9317
 5212TIP3    H237128   6.715   0.252  14.912 -1.5937 -0.5738 -0.8715
 5213TIP3   OH237129   3.851   4.059  16.174  0.2469  0.2955  0.3454
 5213TIP3    H137130   3.839   4.150  16.199  0.0787  0.9994 -2.0538
 5213TIP3    H237131   3.850   4.060  16.078  1.8134 -2.0150  0.2233
 5214TIP3   OH237132   1.957   6.505   5.228  0.6148 -0.0759 -0.0756
 5214TIP3    H137133   2.012   6.529   5.303 -0.3587  0.5085  0.4714
 5214TIP3    H237134   1.941   6.587   5.182  0.7700 -0.3538 -0.6418
 5215TIP3   OH237135   3.944   6.443   1.439  0.0620 -0.1704  0.1776
 5215TIP3    H137136   3.934   6.349   1.428 -0.7078  0.0500 -1.2519
 5215TIP3    H237137   3.856   6.479   1.421  0.7850  0.9658 -1.3480
 5216TIP3   OH237138   2.594   6.651  16.722 -0.0009  0.2935  0.2036
 5216TIP3    H137139   2.622   6.692  16.804  0.2328 -0.0544  0.2956
 5216TIP3    H237140   2.501   6.632  16.735  0.0490  0.1891  0.4064
 5217TIP3   OH237141   0.798   5.928   3.330  0.0357 -0.7204  0.2056
 5217TIP3    H137142   0.763   5.840   3.318 -1.5948  0.1546 -2.1648
 5217TIP3    H237143   0.722   5.986   3.324  1.1635  0.9096  0.8511
 5218TIP3   OH237144   0.056   5.576   2.209 -0.4494 -0.2975 -0.2433
 5218TIP3    H137145  -0.017   5.525   2.244 -0.9978  1.9814  2.2308
 5218TIP3    H237146   0.025   5.667   2.211  1.3320  0.4344 -2.1898
 5219TIP3   OH237147   2.297   4.380   0.470  0.4767  0.0882  0.0923
 5219TIP3    H137148   2.309   4.290   0.503  0.4091 -0.0196 -0.1781
 5219TIP3    H237149   2.378   4.400   0.424  1.0751  0.6905  1.3537
 5220TIP3   OH237150   1.660   4.928  14.167  0.2894 -0.0714 -0.4340
 5220TIP3    H137151   1.711   4.857  14.205  0.7470 -0.4373 -1.7024
 5220TIP3    H237152   1.725   4.991  14.136  0.0179 -0.5851 -2.1435
 5221TIP3   OH237153   3.217   3.346   3.823 -0.1525 -0.3339 -0.1971
 5221TIP3    H137154   3.268   3.347   3.742 -1.6572  2.8384 -1.2791
 5221TIP3    H237155   3.132   3.311   3.797  0.1493 -1.8277  0.6950
 5222TIP3   OH237156   1.960   3.113  12.816 -0.2188  0.5400  0.4574
 5222TIP3    H137157   1.900   3.154  12.877 -0.0701  1.3058  0.0988
 5222TIP3    H237158   1.983   3.182  12.754  0.9296  0.2231  0.5121
 5223TIP3   OH237159   6.603   2.900   3.017 -0.2701  0.1532  0.4183
 5223TIP3    H137160   6.527   2.946   2.981 -0.1347  0.3102  0.3302
 5223TIP3    H237161   6.645   2.965   3.074 -0.1431  0.1017  0.3830
 5224TIP3   OH237162   3.742   4.804  14.706 -0.2178 -0.3858  0.3767
 5224TIP3    H137163   3.763   4.790  14.798 -0.6654 -2.4763  0.2173
 5224TIP3    H237164   3.809   4.864  14.674  0.4237 -0.2718  1.8696
 5225TIP3   OH237165   4.133   5.869   1.391 -0.0076  0.1996  0.3198
 5225TIP3    H137166   4.040   5.848   1.384  0.2992 -0.6810 -3.1252
 5225TIP3    H237167   4.158   5.840   1.479 -2.7161 -0.6220  0.9095
 5226TIP3   OH237168   3.708   2.517   5.106  0.4662  0.1898 -0.1098
 5226TIP3    H137169   3.757   2.597   5.086  1.6324 -0.9766 -2.4041
 5226TIP3    H237170   3.762   2.446   5.070 -1.6712 -1.4112 -0.3847
 5227TIP3   OH237171   6.273   2.263  13.968  0.0707 -0.5036 -0.8048
 5227TIP3    H137172   6.183   2.277  13.999  0.2005  0.0653 -0.6643
 5227TIP3    H237173   6.270   2.179  13.924 -0.4328 -0.7021 -0.4129
 5228TIP3   OH237174   2.597   3.335  15.249 -0.0289  0.1703 -0.2237
 5228TIP3    H137175   2.521   3.290  15.287  0.1572  0.0400  0.0049
 5228TIP3    H237176   2.569   3.426  15.238 -0.7188 -0.1774 -1.5398
 5229TIP3   OH237177   6.020   4.601   5.103  0.3486  0.1491  0.1640
 5229TIP3    H137178   5.996   4.576   5.014 -2.9423  1.1508  0.6579
 5229TIP3    H237179   6.023   4.519   5.152 -0.2054 -0.1892 -0.3621
 5230TIP3   OH237180   1.691   6.071   4.707 -0.1537 -0.7907 -0.2243
 5230TIP3    H137181   1.780   6.048   4.683  0.5979 -0.3416  1.8899
 5230TIP3    H237182   1.651   5.989   4.736  0.0572 -0.7377  0.2160
 5231TIP3   OH237183   0.702   6.556  13.824  0.2941  0.2107 -0.0167
 5231TIP3    H137184   0.679   6.636  13.778  1.1678  0.6346  0.2676
 5231TIP3    H237185   0.627   6.498  13.810 -0.5584  1.2340  0.1618
 5232TIP3   OH237186   0.066   4.806   5.119 -0.2843  0.4270 -0.4612
 5232TIP3    H137187   0.136   4.872   5.115 -0.3021  0.4435 -0.5090
 5232TIP3    H237188   0.112   4.722   5.120 -0.2848  0.3984 -1.6772
 5233TIP3   OH237189   3.864   3.650   2.914 -0.1698  0.0720 -0.1031
 5233TIP3    H137190   3.928   3.624   2.981  0.1841  0.1445 -0.4084
 5233TIP3    H237191   3.803   3.707   2.961  1.4212  2.0807 -0.3134
 5234TIP3   OH237192   5.602   0.539   1.815 -0.4407  0.0226 -0.0246
 5234TIP3    H137193   5.616   0.455   1.858 -0.9014 -0.6078 -1.0695
 5234TIP3    H237194   5.677   0.592   1.840 -0.2147 -0.6586  0.7542
 5235TIP3   OH237195   0.278   2.558  15.937 -0.0244  0.4320 -0.2712
 5235TIP3    H137196   0.277   2.653  15.934 -2.0498  0.4438 -1.4725
 5235TIP3    H237197   0.317   2.531  15.854  0.1989  0.2220 -0.0989
 5236TIP3   OH237198   3.686   0.961   5.775 -0.5290  0.3765  0.1302
 5236TIP3    H137199   3.739   1.007   5.710 -0.7130 -0.2025 -0.4397
 5236TIP3    H237200   3.696   1.013   5.855 -2.0389  2.3770 -0.8706
 5237TIP3   OH237201   3.576   4.038   5.345  0.2500  0.1924  0.0792
 5237TIP3    H137202   3.503   4.079   5.298 -0.6340  0.1304  1.3462
 5237TIP3    H237203   3.609   4.106   5.404 -0.6875 -0.6043  1.5928
 5238TIP3   OH237204   4.185   3.418  13.021  0.5284  0.1793  0.3423
 5238TIP3    H137205   4.163   3.485  12.957  0.3290 -0.9185 -0.7807
 5238TIP3    H237206   4.182   3.463  13.105 -1.2987  1.1819 -0.2014
 5239TIP3   OH237207   3.953   6.773  15.497 -0.5675 -0.0917 -0.5317
 5239TIP3    H137208   3.920   6.857  15.466 -0.7976  0.0335  0.0447
 5239TIP3    H237209   3.878   6.732  15.540 -0.0553  0.0908  0.5691
 5240TIP3   OH237210   0.775   4.529   0.570  0.2890  0.0313  0.3752
 5240TIP3    H137211   0.814   4.539   0.657 -0.2636  0.2712  0.5973
 5240TIP3    H237212   0.777   4.617   0.532 -0.9577  0.2584  0.7883
 5241TIP3   OH237213   0.744   6.124  14.086 -0.3243  0.2559 -0.1473
 5241TIP3    H137214   0.690   6.195  14.120 -0.6657 -0.3125  0.5303
 5241TIP3    H237215   0.756   6.065  14.161  1.0766  0.2662 -0.3423
 5242TIP3   OH237216   6.594   1.142   2.200 -0.3500  0.2251  0.5267
 5242TIP3    H137217   6.625   1.057   2.170  1.6305  0.9344  0.4275
 5242TIP3    H237218   6.588   1.196   2.121  0.8579  0.8831  0.8562
 5243TIP3   OH237219   5.229   0.221   2.137  0.6091 -0.2265  0.5204
 5243TIP3    H137220   5.146   0.267   2.151  0.0991 -1.5029  1.9534
 5243TIP3    H237221   5.262   0.256   2.054 -0.5062  1.5506  0.7629
 5244TIP3   OH237222   3.430   2.442   1.848  0.0891 -0.0083  0.4130
 5244TIP3    H137223   3.340   2.475   1.854 -0.1488 -0.9215  2.5618
 5244TIP3    H237224   3.465   2.483   1.769 -2.2430  0.2719 -0.5465
 5245TIP3   OH237225   4.334   1.239   3.714  0.2862 -0.3641 -0.5427
 5245TIP3    H137226   4.354   1.280   3.799  1.7482  2.1261 -1.9721
 5245TIP3    H237227   4.419   1.210   3.682  0.1659  1.0046 -2.2184
 5246TIP3   OH237228   5.191   3.976   4.841  0.6310 -0.0980 -0.2383
 5246TIP3    H137229   5.180   3.943   4.751  2.3714 -2.4110  0.2846
 5246TIP3    H237230   5.105   3.963   4.882 -0.6811  2.4768 -1.8903
 5247TIP3   OH237231   1.470   1.009   6.240  0.5185 -0.5492  0.1255
 5247TIP3    H137232   1.397   0.988   6.299  0.1974  0.0654 -0.0484
 5247TIP3    H237233   1.538   0.945   6.263  0.0608 -0.8996  0.5338
 5248TIP3   OH237234   3.059   0.219   1.320  0.1192  0.6471  0.0818
 5248TIP3    H137235   3.004   0.197   1.245 -0.1502  0.5258  0.3137
 5248TIP3    H237236   3.142   0.175   1.303 -0.4600 -0.7084  0.6218
 5249TIP3   OH237237   1.552   6.311   2.120  0.3894 -0.0911 -0.0015
 5249TIP3    H137238   1.475   6.261   2.092  0.7822 -0.4563 -0.4314
 5249TIP3    H237239   1.515   6.390   2.161 -0.2149  0.2658 -1.1822
 5250TIP3   OH237240   0.499   0.908  15.475 -0.2057  0.1752  0.3781
 5250TIP3    H137241   0.470   0.989  15.433  0.6153  0.3673  0.1548
 5250TIP3    H237242   0.591   0.925  15.497 -0.3153 -0.3192  1.2684
 5251TIP3   OH237243   3.896   2.645  15.112 -0.5236  0.1631  0.0214
 5251TIP3    H137244   3.921   2.553  15.112  1.0192  0.5420 -0.3619
 5251TIP3    H237245   3.876   2.665  15.021  2.5325  0.9710 -0.6086
 5252TIP3   OH237246   2.766   4.581  13.766  0.1868  0.0296 -0.1536
 5252TIP3    H137247   2.800   4.503  13.808 -0.9619  0.0528  0.8850
 5252TIP3    H237248   2.677   4.590  13.801  1.0923  3.1820  1.7370
 5253TIP3   OH237249   0.955   2.590   4.924 -0.4593  0.3464  0.5704
 5253TIP3    H137250   0.859   2.594   4.928 -0.5061 -0.4708  0.3908
 5253TIP3    H237251   0.973   2.558   4.836 -0.0371  0.0333  0.7708
 5254TIP3   OH237252   2.292   4.038   3.278  0.0606 -0.3582  0.2797
 5254TIP3    H137253   2.203   4.058   3.251  0.0945 -2.1432 -1.3756
 5254TIP3    H237254   2.293   4.053   3.373 -1.8290  0.2195  0.2306
 5255TIP3   OH237255   2.497   5.240  15.790 -0.3047  0.1794  0.5364
 5255TIP3    H137256   2.515   5.174  15.857  2.5311 -0.7655 -0.9789
 5255TIP3    H237257   2.567   5.304  15.801  0.6335 -0.3451 -1.8462
 5256TIP3   OH237258   6.474   2.303  11.815 -0.4379  0.4321  0.2149
 5256TIP3    H137259   6.552   2.358  11.805  0.1952 -0.5998 -0.6478
 5256TIP3    H237260   6.503   2.231  11.871 -1.2351  0.8937  1.2472
 5257TIP3   OH237261   3.404   4.116  12.575 -0.3054  0.4255 -0.2434
 5257TIP3    H137262   3.444   4.090  12.492 -0.0116  0.1583 -0.0192
 5257TIP3    H237263   3.447   4.062  12.641 -0.9472  0.2301  0.0212
 5258TIP3   OH237264   3.670   1.416  11.725 -0.0118  0.4501 -0.6682
 5258TIP3    H137265   3.600   1.365  11.767  1.0960 -1.7189 -1.3301
 5258TIP3    H237266   3.626   1.465  11.656 -1.1204  0.4602  0.0145
 5259TIP3   OH237267   3.978   6.502  14.450 -0.0799  0.4776 -0.3507
 5259TIP3    H137268   3.979   6.594  14.477  0.8363 -0.2080  2.2624
 5259TIP3    H237269   3.938   6.456  14.524  1.1819 -1.4067 -0.7723
 5260TIP3   OH237270   1.878   4.637   1.243  0.2575 -0.3047  0.8234
 5260TIP3    H137271   1.953   4.696   1.258 -1.6056  2.1820  1.0495
 5260TIP3    H237272   1.805   4.696   1.224 -1.2789 -2.6867 -1.2833
 5261TIP3   OH237273   2.361   2.625   6.031  0.7376 -0.1958  0.1532
 5261TIP3    H137274   2.306   2.683   6.084 -0.1451 -1.0494  0.1986
 5261TIP3    H237275   2.335   2.537   6.057  1.8634 -0.6244 -0.1213
 5262TIP3   OH237276   4.456   4.836   4.587 -0.0192 -0.5287  0.2363
 5262TIP3    H137277   4.450   4.866   4.678 -2.3209 -0.9997  0.2829
 5262TIP3    H237278   4.514   4.760   4.590 -1.0773 -1.3133  1.5388
 5263TIP3   OH237279   0.680   0.404   4.424 -0.2627  0.2759 -0.4357
 5263TIP3    H137280   0.735   0.362   4.490  0.1806 -1.5401 -1.8616
 5263TIP3    H237281   0.645   0.482   4.467  0.3699 -0.5836  1.7610
 5264TIP3   OH237282   3.362   3.948  13.721  0.5656  0.0921  0.3120
 5264TIP3    H137283   3.395   4.022  13.671 -0.3809  0.0776 -0.3542
 5264TIP3    H237284   3.388   3.871  13.671 -0.9291  0.1019 -0.5209
 5265TIP3   OH237285   5.414   0.456   6.183  0.2885 -0.3275 -0.0607
 5265TIP3    H137286   5.481   0.466   6.250 -0.5630 -1.0304  0.9247
 5265TIP3    H237287   5.340   0.414   6.228 -0.6912  0.1142 -1.1912
 5266TIP3   OH237288   3.982   2.747  11.951  0.4748  0.3945  0.4786
 5266TIP3    H137289   3.896   2.711  11.974 -0.0327  1.9450  1.1657
 5266TIP3    H237290   3.995   2.723  11.859 -0.4174 -0.3779  0.5443
 5267TIP3   OH237291   2.613   5.612   6.930  0.5217 -0.2387  0.6714
 5267TIP3    H137292   2.554   5.682   6.958 -1.3578 -1.3738 -0.2613
 5267TIP3    H237293   2.571   5.575   6.853  2.7641 -0.7632 -0.3900
 5268TIP3   OH237294   5.348   0.587  13.448 -0.2598 -0.0474  0.2042
 5268TIP3    H137295   5.274   0.641  13.420  0.1019  0.7552  0.7730
 5268TIP3    H237296   5.381   0.548  13.366 -1.1733 -0.2653 -0.0785
 5269TIP3   OH237297   0.138   1.785  16.259  0.1770  0.8120 -0.4245
 5269TIP3    H137298   0.078   1.728  16.209 -0.3430  0.0101  1.0461
 5269TIP3    H237299   0.081   1.830  16.322  1.2303 -1.1752  2.1264
 5270TIP3   OH237300   4.812   0.262   2.401 -0.0221  0.4013  0.1406
 5270TIP3    H137301   4.751   0.239   2.472  0.5823 -2.2132 -0.0910
 5270TIP3    H237302   4.888   0.299   2.446  0.9614 -2.5227  1.1241
 5271TIP3   OH237303   1.123   6.019  16.561 -0.0909 -0.2171 -0.1614
 5271TIP3    H137304   1.046   6.056  16.605  0.9823  0.8342  0.8829
 5271TIP3    H237305   1.143   5.940  16.611  0.5275  0.4380  0.6409
 5272TIP3   OH237306   5.800   6.148   6.140  0.0690 -0.1652  0.3679
 5272TIP3    H137307   5.721   6.202   6.131  0.0968  0.0013  1.0368
 5272TIP3    H237308   5.804   6.127   6.233  0.3814 -0.8421  0.2082
 5273TIP3   OH237309   3.821   6.632  15.020 -0.2820  0.3693  0.3411
 5273TIP3    H137310   3.913   6.622  15.046  0.9319  2.0784 -2.7240
 5273TIP3    H237311   3.790   6.543  15.006  0.8086 -0.2484  1.5811
 5274TIP3   OH237312   3.480   4.757  14.867 -0.0232 -0.3615 -0.1650
 5274TIP3    H137313   3.541   4.789  14.801 -0.0558 -2.0899 -1.0721
 5274TIP3    H237314   3.536   4.736  14.942  0.0825  1.0756  0.1809
 5275TIP3   OH237315   1.630   2.356   2.201  0.6343 -0.1110  0.3418
 5275TIP3    H137316   1.558   2.380   2.258 -0.0940  0.7577 -0.8895
 5275TIP3    H237317   1.693   2.428   2.209  1.3226 -0.7911  1.2928
 5276TIP3   OH237318   6.414   4.117  12.202  0.7333 -0.2081  0.6790
 5276TIP3    H137319   6.401   4.212  12.200  1.4111 -0.1066  0.9285
 5276TIP3    H237320   6.349   4.082  12.141 -0.0007  0.3638  1.1244
 5277TIP3   OH237321   0.183   3.439   5.766 -0.4024  0.0419  0.0314
 5277TIP3    H137322   0.135   3.410   5.844 -1.0917 -1.0560 -0.7934
 5277TIP3    H237323   0.115   3.469   5.706  0.0486 -0.1546 -0.5792
 5278TIP3   OH237324   1.229   4.624  12.855  0.6213  0.1847 -0.2729
 5278TIP3    H137325   1.265   4.698  12.906 -1.4381  0.7139  0.5052
 5278TIP3    H237326   1.136   4.623  12.877  0.0120 -0.7699 -2.6399
 5279TIP3   OH237327   4.142   0.111   4.550  0.2910 -0.3925 -0.3671
 5279TIP3    H137328   4.085   0.178   4.512  0.6159 -0.5643 -1.1909
 5279TIP3    H237329   4.229   0.151   4.550  0.0788  0.1511  1.5837
 5280TIP3   OH237330   4.368   3.860  14.223  0.5745  0.2246  0.4361
 5280TIP3    H137331   4.330   3.774  14.206  0.7520  0.4410 -1.2200
 5280TIP3    H237332   4.442   3.842  14.281  0.7087 -0.7614 -0.0238
 5281TIP3   OH237333   2.853   4.685  11.784 -0.5447  0.1568  0.1380
 5281TIP3    H137334   2.770   4.671  11.828 -0.9409  0.2140 -0.5730
 5281TIP3    H237335   2.912   4.622  11.824 -0.9069  0.1775  0.7101
 5282TIP3   OH237336   2.793   3.045  17.483 -0.6815 -1.1332  0.3642
 5282TIP3    H137337   2.737   3.118  17.507 -2.5889 -1.4803 -2.4963
 5282TIP3    H237338   2.855   3.082  17.420  0.5528 -1.3581  1.3914
 5283TIP3   OH237339   6.472   0.594  16.993 -0.1224  0.0287  0.0427
 5283TIP3    H137340   6.432   0.562  16.912  3.3853  0.0814 -1.9283
 5283TIP3    H237341   6.503   0.515  17.037  0.6110  0.1645 -0.2204
 5284TIP3   OH237342   2.370   0.959   6.341  0.0945  0.1929 -0.3513
 5284TIP3    H137343   2.398   0.881   6.390  0.1567 -0.8999 -2.0324
 5284TIP3    H237344   2.275   0.956   6.344  0.0904  0.8517  0.7447
 5285TIP3   OH237345   3.702   0.562   4.475  0.1153  0.2527 -0.4330
 5285TIP3    H137346   3.629   0.544   4.416 -0.7516  0.4232  0.5512
 5285TIP3    H237347   3.743   0.477   4.489  0.9066  0.3518 -1.9865
 5286TIP3   OH237348   3.891   4.373  17.506 -0.0358 -0.0553 -0.2416
 5286TIP3    H137349   3.922   4.435  17.572  0.0250  1.2808 -1.4777
 5286TIP3    H237350   3.810   4.411  17.473 -0.2023 -0.8405 -0.7694
 5287TIP3   OH237351   2.351   0.714   5.467 -0.5227 -0.5043  0.1672
 5287TIP3    H137352   2.349   0.788   5.407  0.0103 -0.5812  0.0582
 5287TIP3    H237353   2.345   0.636   5.411 -1.0743 -0.5501  0.2802
 5288TIP3   OH237354   6.396   6.059  15.287 -0.6249  0.1254 -0.0729
 5288TIP3    H137355   6.386   6.152  15.308 -1.1402  0.0093  0.2120
 5288TIP3    H237356   6.339   6.015  15.350 -1.4759 -0.2993 -1.1254
 5289TIP3   OH237357   4.532   6.621  12.353 -0.0618  0.0395  0.4159
 5289TIP3    H137358   4.437   6.611  12.344 -0.0873 -0.1893  0.9143
 5289TIP3    H237359   4.546   6.715  12.360 -0.0730  0.2384 -1.5646
 5290TIP3   OH237360   1.881   6.234   3.748  0.2980  0.2195 -0.1309
 5290TIP3    H137361   1.974   6.223   3.766  0.3017  0.8490  0.2791
 5290TIP3    H237362   1.851   6.147   3.720  0.6993 -0.3717  1.1833
 5291TIP3   OH237363   2.938   5.229   4.171  0.4389 -0.3825 -0.1538
 5291TIP3    H137364   2.938   5.242   4.076 -1.0590 -2.2271 -0.4605
 5291TIP3    H237365   2.889   5.304   4.206 -0.4258 -0.5298 -1.0055
 5292TIP3   OH237366   2.323   1.739   4.915  0.2014  0.3015 -0.2717
 5292TIP3    H137367   2.332   1.654   4.956 -1.0817 -0.2956 -1.1303
 5292TIP3    H237368   2.376   1.798   4.968  2.0269 -1.2177 -0.3066
 5293TIP3   OH237369   4.710   5.720  14.002 -0.5647  0.0990  0.2184
 5293TIP3    H137370   4.722   5.800  14.052  0.4399  0.2536 -0.2481
 5293TIP3    H237371   4.680   5.655  14.066 -1.4730  0.8546  0.5801
 5294TIP3   OH237372   3.974   2.190   0.198 -0.5692  0.3077  0.0405
 5294TIP3    H137373   3.956   2.284   0.209 -1.4958  0.0305  1.1012
 5294TIP3    H237374   3.938   2.150   0.277 -1.4176 -1.1083 -1.0281
 5295TIP3   OH237375   6.021   1.123  15.875  0.1577  0.1624 -0.0481
 5295TIP3    H137376   5.982   1.040  15.903  0.2823  0.0910 -0.0793
 5295TIP3    H237377   5.991   1.187  15.939  2.1682 -0.3850  1.5863
 5296TIP3   OH237378   0.874   6.171  15.596  0.2605  0.3077  0.1764
 5296TIP3    H137379   0.871   6.160  15.691  0.3771 -0.9491  0.0504
 5296TIP3    H237380   0.784   6.156  15.567  0.5702 -1.2638 -0.0789
 5297TIP3   OH237381   5.906   4.403  12.181  0.0210  0.2029 -1.1389
 5297TIP3    H137382   5.978   4.463  12.202 -0.6173  0.7434 -0.4540
 5297TIP3    H237383   5.922   4.378  12.090  0.8743  0.6012 -1.1087
 5298TIP3   OH237384   6.377   2.509  11.262  0.1179  0.1810  0.1118
 5298TIP3    H137385   6.430   2.563  11.203  0.9416  0.7487  1.3193
 5298TIP3    H237386   6.299   2.562  11.279  0.1750  0.2915  0.0286
 5299TIP3   OH237387   2.234   0.199  13.619  0.1033  0.1076  0.0353
 5299TIP3    H137388   2.215   0.106  13.623 -2.2561  0.5465  1.1425
 5299TIP3    H237389   2.274   0.220  13.703 -2.2355  0.5485  1.1251
 5300TIP3   OH237390   2.742   5.919  16.164  0.6527  0.6607  0.2843
 5300TIP3    H137391   2.735   5.953  16.253 -0.3898 -1.2836  1.0116
 5300TIP3    H237392   2.816   5.858  16.167  0.7790  0.7818 -0.2579
 5301TIP3   OH237393   3.364   2.227  14.301 -0.0754 -0.2402  0.3061
 5301TIP3    H137394   3.374   2.255  14.210 -0.1302 -0.0251  0.3655
 5301TIP3    H237395   3.422   2.285  14.351 -1.4175  0.8788  0.6264
 5302TIP3   OH237396   4.173   5.868   1.672  0.4548 -0.1453  0.0689
 5302TIP3    H137397   4.202   5.948   1.627 -0.1682 -0.0126 -0.1193
 5302TIP3    H237398   4.191   5.884   1.764  0.6743  0.0638 -0.0104
 5303TIP3   OH237399   3.442   0.473  12.605 -0.0098 -0.1714 -0.0544
 5303TIP3    H137400   3.513   0.536  12.599  0.4083 -0.6637 -0.4141
 5303TIP3    H237401   3.480   0.391  12.574 -0.7078 -0.4676 -0.1568
 5304TIP3   OH237402   2.692   5.649  13.254  0.5244  0.6150 -0.2923
 5304TIP3    H137403   2.748   5.708  13.304  0.0126  0.5591  0.3506
 5304TIP3    H237404   2.604   5.686  13.263  0.1000 -0.5536  0.6034
 5305TIP3   OH237405   4.141   0.978   3.379 -0.8836 -0.9343 -0.0615
 5305TIP3    H137406   4.224   1.005   3.340  0.7320 -3.7435  1.0873
 5305TIP3    H237407   4.138   1.025   3.462  0.5911 -2.1865  0.7612
 5306TIP3   OH237408   0.579   3.962  17.499  0.1225  0.6857 -0.1987
 5306TIP3    H137409   0.526   4.041  17.499  1.0344  1.3924  2.0256
 5306TIP3    H237410   0.643   3.975  17.429  1.0026  2.5031  0.8836
 5307TIP3   OH237411   1.890   6.077   5.637  0.7751 -0.1083 -0.0577
 5307TIP3    H137412   1.918   6.105   5.550 -0.1180  1.0834  0.0184
 5307TIP3    H237413   1.959   6.016   5.665  1.5655  0.2127 -1.2039
 5308TIP3   OH237414   2.568   3.467   0.486  0.1855 -0.1090 -0.4133
 5308TIP3    H137415   2.605   3.531   0.546 -1.0074  0.7918 -0.5862
 5308TIP3    H237416   2.491   3.432   0.531  0.4124 -0.9030 -0.6158
 5309TIP3   OH237417   0.093   2.729  11.865 -0.1036  0.2919  0.5711
 5309TIP3    H137418   0.031   2.689  11.804  0.5332  0.4537 -0.1988
 5309TIP3    H237419   0.086   2.676  11.945 -0.0830 -0.6651 -0.0476
 5310TIP3   OH237420   3.708   4.273   2.493  0.3388  0.7088 -0.5097
 5310TIP3    H137421   3.704   4.366   2.469 -0.9308  0.8602  0.1852
 5310TIP3    H237422   3.628   4.258   2.543  0.3273 -0.8708 -0.9637
 5311TIP3   OH237423   1.707   4.525   4.981  0.0501  0.0584 -0.1052
 5311TIP3    H137424   1.676   4.517   5.071  0.0373 -0.7450 -0.1697
 5311TIP3    H237425   1.761   4.447   4.967 -0.9680 -0.5041 -1.1777
 5312TIP3   OH237426   3.067   4.333   1.709  0.4842  0.0648 -0.4051
 5312TIP3    H137427   3.136   4.281   1.750  1.1751  0.6372 -0.8238
 5312TIP3    H237428   3.034   4.389   1.780  0.6575 -0.0015 -0.2735
 5313TIP3   OH237429   2.414   3.908  15.560 -1.2382 -0.2447  0.3449
 5313TIP3    H137430   2.380   3.846  15.495 -0.6050  2.0929 -2.4439
 5313TIP3    H237431   2.457   3.853  15.626 -2.1608 -2.7928 -1.0364
 5314TIP3   OH237432   4.004   1.950  13.892  0.3591 -0.0242  0.1261
 5314TIP3    H137433   4.079   1.950  13.832 -0.3154  1.3709 -0.7771
 5314TIP3    H237434   3.927   1.942  13.834 -0.2728  0.5108  0.8723
 5315TIP3   OH237435   4.318   5.041  16.156  0.3008 -0.4878  0.5806
 5315TIP3    H137436   4.353   5.003  16.076 -1.0411  0.0378 -0.2993
 5315TIP3    H237437   4.394   5.056  16.211  1.0189 -3.1826  0.4600
 5316TIP3   OH237438   5.836   4.992  13.144  0.4870  0.5736 -0.3116
 5316TIP3    H137439   5.888   4.935  13.088  1.0509  0.3844  0.4009
 5316TIP3    H237440   5.748   4.953  13.144  0.9794 -0.5859  0.5502
 5317TIP3   OH237441   6.588   1.755  13.953 -0.3522  0.2022 -0.0831
 5317TIP3    H137442   6.645   1.729  14.026 -1.0140 -0.6696  0.1358
 5317TIP3    H237443   6.542   1.832  13.985  0.2319  0.5339 -0.0237
 5318TIP3   OH237444   3.009   4.432  16.865  0.3868  0.4024  0.5080
 5318TIP3    H137445   2.977   4.389  16.944  0.8697  1.4092  1.2573
 5318TIP3    H237446   3.097   4.397  16.853  0.9591  1.5050  1.3824
 5319TIP3   OH237447   4.625   1.231  14.235 -0.0176  0.1575  0.5578
 5319TIP3    H137448   4.537   1.229  14.196  1.0837 -3.0455 -2.2372
 5319TIP3    H237449   4.610   1.212  14.327 -2.2105 -2.6193 -0.2314
 5320TIP3   OH237450   2.448   4.182  14.051 -0.5862 -0.3309 -0.0027
 5320TIP3    H137451   2.439   4.198  14.145 -0.0452  0.9668 -0.1527
 5320TIP3    H237452   2.359   4.163  14.021 -0.7707 -0.7064  0.7515
 5321TIP3   OH237453   6.391   2.708  15.003 -0.5747 -0.2448 -0.1806
 5321TIP3    H137454   6.423   2.714  14.913  0.5456 -0.8377  0.1645
 5321TIP3    H237455   6.307   2.755  15.002 -0.6383 -0.3552 -1.5546
 5322TIP3   OH237456   5.763   2.265   5.440  0.4154 -0.0934  0.4007
 5322TIP3    H137457   5.763   2.203   5.513  2.2695 -1.1755 -0.4783
 5322TIP3    H237458   5.826   2.230   5.378 -0.7805  1.0512 -1.5497
 5323TIP3   OH237459   5.000   5.756  13.859  0.6488 -0.2543  0.1808
 5323TIP3    H137460   4.948   5.738  13.938 -0.8020 -0.3105 -0.7563
 5323TIP3    H237461   5.013   5.851  13.860 -2.2407  0.2652 -1.1590
 5324TIP3   OH237462   2.483   4.024   0.827  0.4166 -0.0294 -0.0392
 5324TIP3    H137463   2.414   4.073   0.871  1.0979  1.1562 -0.2273
 5324TIP3    H237464   2.505   3.953   0.887 -0.9177 -0.3915  0.0392
 5325TIP3   OH237465   0.749   1.930  12.456  0.2070  0.0231 -0.1996
 5325TIP3    H137466   0.826   1.983  12.438  0.3037 -0.1255 -0.2239
 5325TIP3    H237467   0.784   1.844  12.481  0.0340 -0.2860 -0.9928
 5326TIP3   OH237468   2.910   4.940   4.828 -0.1780  0.1558 -0.2154
 5326TIP3    H137469   2.995   4.985   4.837  0.6893 -1.3924 -0.2581
 5326TIP3    H237470   2.891   4.944   4.734 -0.1897  0.5566 -0.1989
 5327TIP3   OH237471   6.278   0.812   4.693  0.4615 -0.1264  0.6089
 5327TIP3    H137472   6.217   0.863   4.639  0.9226 -0.6254 -0.4028
 5327TIP3    H237473   6.336   0.878   4.732 -0.0009  0.2579  0.6518
 5328TIP3   OH237474   2.870   4.037   1.914 -0.4184  0.4248 -0.2533
 5328TIP3    H137475   2.806   4.041   1.985 -1.1202 -0.0295 -0.8383
 5328TIP3    H237476   2.843   4.106   1.853 -0.9182 -0.3625 -0.9464
 5329TIP3   OH237477   5.837   5.465  12.474 -0.1234 -0.6673 -0.6623
 5329TIP3    H137478   5.834   5.430  12.385 -1.0231 -1.9007 -0.1675
 5329TIP3    H237479   5.930   5.465  12.497 -0.0638 -2.7462 -0.7111
 5330TIP3   OH237480   4.390   2.726  11.210  0.1640  0.1137 -0.9926
 5330TIP3    H137481   4.447   2.666  11.161 -0.7468 -1.4540 -0.2351
 5330TIP3    H237482   4.313   2.737  11.153  0.9968  1.9087 -1.8392
 5331TIP3   OH237483   0.162   2.823   2.183  0.4102  0.0535 -0.1295
 5331TIP3    H137484   0.194   2.764   2.114  1.2476  0.2586  0.0767
 5331TIP3    H237485   0.217   2.803   2.258 -1.3962 -1.1690  0.9490
 5332TIP3   OH237486   2.573   0.940   2.703  0.4775  0.5460  0.4065
 5332TIP3    H137487   2.529   0.912   2.623  1.7222 -1.9543  0.5091
 5332TIP3    H237488   2.502   0.952   2.766 -0.2994 -0.3216 -0.2743
 5333TIP3   OH237489   5.795   0.608  11.979 -0.2782  0.2073  0.1829
 5333TIP3    H137490   5.875   0.648  12.013 -0.1625  0.4600 -0.3759
 5333TIP3    H237491   5.745   0.583  12.057  2.5230 -4.5684  0.8322
 5334TIP3   OH237492   3.123   3.699   2.549  0.9174 -0.2230 -0.3322
 5334TIP3    H137493   3.212   3.727   2.527  0.0800  0.6289 -3.0521
 5334TIP3    H237494   3.072   3.718   2.470 -1.2426 -2.8067  0.2996
 5335TIP3   OH237495   1.160   6.240   3.672  0.0527 -0.1444  0.0076
 5335TIP3    H137496   1.087   6.290   3.635 -0.9906 -2.9183 -2.0161
 5335TIP3    H237497   1.232   6.303   3.675 -1.5205  1.8480 -0.9666
 5336TIP3   OH237498   2.212   1.008   4.900  0.5037  0.2049 -0.6985
 5336TIP3    H137499   2.277   1.066   4.938 -0.0238  1.5924 -1.8084
 5336TIP3    H237500   2.235   1.003   4.807  0.5490 -1.4142 -0.6292
 5337TIP3   OH237501   2.201   3.532   4.910 -0.7522  0.0282  0.0271
 5337TIP3    H137502   2.156   3.453   4.881 -0.3141 -0.1281 -0.2305
 5337TIP3    H237503   2.222   3.579   4.829  0.8446 -0.6146  0.0422
 5338TIP3   OH237504   3.396   0.502  15.948  0.4947  0.7184 -0.5576
 5338TIP3    H137505   3.488   0.496  15.923  0.0395  2.8974 -3.2065
 5338TIP3    H237506   3.354   0.551  15.877 -2.9227 -0.9304  0.0919
 5339TIP3   OH237507   0.171   0.983  15.174 -0.1855 -0.0510 -0.0115
 5339TIP3    H137508   0.200   1.040  15.245  0.3238 -0.7663  0.3736
 5339TIP3    H237509   0.076   0.988  15.176 -0.1372  1.9926 -1.0001
 5340TIP3   OH237510   5.491   4.776  12.698  0.2510  0.0326  0.3295
 5340TIP3    H137511   5.420   4.731  12.744  1.4169 -0.5276  1.6441
 5340TIP3    H237512   5.509   4.720  12.623  1.9265 -2.0025  2.1382
 5341TIP3   OH237513   4.790   1.217  13.758  1.1463 -0.2935 -0.2740
 5341TIP3    H137514   4.793   1.172  13.842  1.8138 -0.4223 -0.3609
 5341TIP3    H237515   4.882   1.230  13.734  0.9668 -0.4772 -1.1028
 5342TIP3   OH237516   4.910   5.229   3.852 -0.6475  0.1253  0.4743
 5342TIP3    H137517   4.963   5.169   3.905 -1.5930 -0.0284  1.2795
 5342TIP3    H237518   4.955   5.232   3.768 -0.1647 -1.1502  0.6538
 5343TIP3   OH237519   2.701   5.444  15.824  0.2814 -1.1470 -0.2275
 5343TIP3    H137520   2.719   5.499  15.901  0.1833 -0.4026 -0.7239
 5343TIP3    H237521   2.788   5.429  15.785  0.1050  0.9715 -1.6244
 5344TIP3   OH237522   3.365   2.011   0.425  0.2670 -0.0133  0.1564
 5344TIP3    H137523   3.413   2.087   0.457  3.0857 -1.9160  0.8204
 5344TIP3    H237524   3.430   1.961   0.376 -1.3269 -2.2529  0.1822
 5345TIP3   OH237525   0.404   6.010  11.650 -0.9757 -0.3506  0.2279
 5345TIP3    H137526   0.427   5.929  11.695  0.7363  0.2429  0.4708
 5345TIP3    H237527   0.308   6.011  11.651 -1.1616 -3.3095 -1.4534
 5346TIP3   OH237528   0.341   6.515   0.516  0.4413 -0.0950 -0.2926
 5346TIP3    H137529   0.380   6.597   0.485  0.6846  0.4324  1.2887
 5346TIP3    H237530   0.417   6.460   0.538  0.2786 -0.4458 -0.6070
 5347TIP3   OH237531   2.331   3.543  14.695 -0.3088 -0.0873  0.1272
 5347TIP3    H137532   2.375   3.598  14.630 -1.8906  2.2115  0.9062
 5347TIP3    H237533   2.318   3.600  14.771 -1.6422 -1.6713  1.1689
 5348TIP3   OH237534   2.055   5.922   1.544 -0.1996  0.2703 -0.2421
 5348TIP3    H137535   2.066   5.827   1.551 -0.8210  0.1952 -0.1890
 5348TIP3    H237536   2.116   5.958   1.608 -0.7834 -0.1438  0.5680
 5349TIP3   OH237537   4.292   1.986   1.516 -0.5413  0.5551  0.4199
 5349TIP3    H137538   4.255   1.909   1.474 -1.5760  1.7270 -0.9296
 5349TIP3    H237539   4.387   1.972   1.514 -0.7272 -0.8341  0.5454
 5350TIP3   OH237540   0.551   0.787  14.187 -0.0602 -0.1646  0.4576
 5350TIP3    H137541   0.609   0.817  14.116  0.6994 -0.7024  0.8346
 5350TIP3    H237542   0.527   0.867  14.234  1.9157 -0.0856  1.4331
 5351TIP3   OH237543   2.743   3.601   6.466 -0.1029 -0.0797  0.1790
 5351TIP3    H137544   2.753   3.682   6.414  0.4811 -0.8645 -0.9960
 5351TIP3    H237545   2.770   3.626   6.554  0.7010  0.8641 -0.3061
 5352TIP3   OH237546   3.359   5.437   6.678  0.3543 -0.0588 -0.3054
 5352TIP3    H137547   3.303   5.493   6.625  0.5148 -0.0218 -0.4396
 5352TIP3    H237548   3.440   5.488   6.690  0.4168 -0.1705 -0.2415
 5353TIP3   OH237549   3.684   0.749  12.090 -0.3816  0.2751 -0.7414
 5353TIP3    H137550   3.638   0.798  12.158 -1.1996 -2.6712  0.9850
 5353TIP3    H237551   3.623   0.748  12.016 -1.0869  0.3426 -0.1726
 5354TIP3   OH237552   5.668   5.700  13.662  0.0285 -0.0930  0.3796
 5354TIP3    H137553   5.691   5.610  13.682  0.3063 -0.1263 -0.0653
 5354TIP3    H237554   5.743   5.733  13.612 -0.4307  0.1241 -0.1760
 5355TIP3   OH237555   5.130   4.948  17.449 -0.3225  0.4813 -0.1868
 5355TIP3    H137556   5.206   5.005  17.461  1.0494 -1.6871  2.3771
 5355TIP3    H237557   5.167   4.862  17.430 -1.9207 -1.0885  3.0968
 5356TIP3   OH237558   2.457   2.917  14.558  0.1211 -0.4635 -0.2732
 5356TIP3    H137559   2.365   2.911  14.587  0.7635 -0.6884  1.8897
 5356TIP3    H237560   2.505   2.859  14.617  1.7103 -0.1737 -1.2222
 5357TIP3   OH237561   3.309   3.247   2.007  0.3618 -0.1732 -0.4716
 5357TIP3    H137562   3.334   3.326   1.960 -0.8022 -0.1259 -1.0735
 5357TIP3    H237563   3.251   3.201   1.945 -1.1810 -0.1368  0.8697
 5358TIP3   OH237564   5.510   3.443  16.342 -0.3162 -0.1647  0.1284
 5358TIP3    H137565   5.519   3.363  16.394  0.1168  0.0089  0.3197
 5358TIP3    H237566   5.415   3.459  16.341 -0.3422 -0.2136  0.8034
 5359TIP3   OH237567   4.046   0.612   0.785 -0.0245 -0.0885  0.8761
 5359TIP3    H137568   3.978   0.670   0.750 -1.4000 -1.5772  0.9686
 5359TIP3    H237569   4.064   0.646   0.872 -0.7307  0.2729  0.8909
 5360TIP3   OH237570   5.169   4.242   0.384 -0.2755 -0.0698 -0.0489
 5360TIP3    H137571   5.130   4.328   0.366 -0.6262 -0.2884 -0.3545
 5360TIP3    H237572   5.263   4.259   0.386 -0.3640  0.4003  0.3425
 5361TIP3   OH237573   1.230   1.953   4.288 -0.1812 -0.5494 -0.4225
 5361TIP3    H137574   1.178   2.019   4.334  0.1759  1.0670 -2.1660
 5361TIP3    H237575   1.182   1.871   4.300 -2.9641  0.7699 -1.5540
 5362TIP3   OH237576   2.392   4.646  12.406  0.0789 -0.1453  0.2468
 5362TIP3    H137577   2.354   4.619  12.323 -1.8136  0.7519  0.7754
 5362TIP3    H237578   2.325   4.627  12.471  0.0234  2.5426  1.0843
 5363TIP3   OH237579   5.965   1.395  16.601 -0.4015 -0.0102  0.4370
 5363TIP3    H137580   5.879   1.353  16.603 -0.3673 -0.1089 -0.1186
 5363TIP3    H237581   5.946   1.489  16.603 -0.5528 -0.0159 -0.3624
 5364TIP3   OH237582   1.117   1.411   2.911 -0.2334  0.1714  0.1186
 5364TIP3    H137583   1.174   1.434   2.838 -2.0765 -0.6364 -1.6671
 5364TIP3    H237584   1.144   1.322   2.935  1.8427  1.2046  1.9960
 5365TIP3   OH237585   4.061   0.903   1.570  0.0684 -0.3888  0.6110
 5365TIP3    H137586   4.004   0.924   1.643 -0.3289  0.1384  0.1590
 5365TIP3    H237587   4.127   0.973   1.570  0.2032 -0.5160  0.6084
 5366TIP3   OH237588   5.499   2.359   2.008  0.2023  1.0660 -0.3374
 5366TIP3    H137589   5.437   2.408   2.062 -2.0996 -0.5486 -1.3877
 5366TIP3    H237590   5.526   2.420   1.940 -1.1246  1.4683 -0.5154
 5367TIP3   OH237591   1.008   4.337   2.634 -0.1800 -0.0566 -0.3909
 5367TIP3    H137592   0.964   4.422   2.646  0.4001  0.1099  0.6913
 5367TIP3    H237593   1.056   4.347   2.551 -1.2791  0.1364 -1.0295
 5368TIP3   OH237594   4.612   2.614   0.979 -0.1502  0.4318 -0.3378
 5368TIP3    H137595   4.581   2.587   1.066 -1.0227 -0.6972 -0.9606
 5368TIP3    H237596   4.538   2.660   0.940 -0.2097 -0.1591 -0.9397
 5369TIP3   OH237597   1.566   4.094  17.208  0.2044  0.1513 -0.0325
 5369TIP3    H137598   1.545   4.086  17.115 -0.4642  1.0968  0.0147
 5369TIP3    H237599   1.567   4.004  17.241 -0.2990 -0.1417 -0.7951
 5370TIP3   OH237600   2.649   1.436  12.515 -0.0362 -0.1673 -0.2993
 5370TIP3    H137601   2.676   1.522  12.483 -1.2605  0.7374  0.9785
 5370TIP3    H237602   2.660   1.440  12.610 -2.1154 -0.6386  0.0122
 5371TIP3   OH237603   1.773   2.922  15.876  0.1022 -0.2777  0.1671
 5371TIP3    H137604   1.738   2.999  15.831  1.3907  0.3237  0.1445
 5371TIP3    H237605   1.833   2.881  15.813  0.5066 -0.4829  0.6647
 5372TIP3   OH237606   0.953   1.244   2.693  0.3313 -0.5174 -0.0650
 5372TIP3    H137607   1.030   1.194   2.666 -0.0501  0.2251 -2.8276
 5372TIP3    H237608   0.989   1.322   2.736  1.3237  0.6534 -2.7757
 5373TIP3   OH237609   1.869   1.713   0.979  0.0078  0.1186  0.7021
 5373TIP3    H137610   1.898   1.767   0.905 -1.7362  0.3210  0.1334
 5373TIP3    H237611   1.935   1.644   0.986  1.5623  1.5341  0.5966
 5374TIP3   OH237612   2.540   0.454  15.249  0.4541  0.3363  0.7006
 5374TIP3    H137613   2.537   0.377  15.192  2.1748  1.5208 -1.0950
 5374TIP3    H237614   2.573   0.420  15.333 -2.6481 -1.5350  1.3422
 5375TIP3   OH237615   0.507   0.145  11.053 -0.6051  0.2433  0.5214
 5375TIP3    H137616   0.540   0.199  10.981 -0.4529 -0.9973 -0.3671
 5375TIP3    H237617   0.425   0.109  11.021  0.0535 -1.2985  0.4580
 5376TIP3   OH237618   5.521   0.481   6.772 -0.3294  0.3779 -0.7317
 5376TIP3    H137619   5.449   0.544   6.758 -0.1267  0.8009  0.0371
 5376TIP3    H237620   5.501   0.409   6.713  0.2532  1.8236 -2.8293
 5377TIP3   OH237621   4.616   1.819  12.831  0.1600 -0.3300 -0.3236
 5377TIP3    H137622   4.661   1.843  12.912  0.1348  0.1938 -0.4590
 5377TIP3    H237623   4.530   1.788  12.859 -0.2677  0.8980 -0.2099
 5378TIP3   OH237624   5.863   3.346  14.654 -0.1896 -0.5795 -0.2172
 5378TIP3    H137625   5.897   3.344  14.743  0.2330 -1.1177 -0.3894
 5378TIP3    H237626   5.906   3.421  14.613  0.8399 -1.2751 -0.4472
 5379TIP3   OH237627   3.787   4.221  12.528 -0.7624 -0.0561 -0.3546
 5379TIP3    H137628   3.784   4.208  12.623  2.3378  0.0686 -0.1604
 5379TIP3    H237629   3.826   4.307  12.517 -3.6793  1.2365 -1.8272
 5380TIP3   OH237630   5.349   4.926   3.608  0.8119  0.2337 -0.1670
 5380TIP3    H137631   5.331   4.965   3.523 -0.9583 -2.6849 -1.2565
 5380TIP3    H237632   5.412   4.856   3.590  2.0636  0.9118  1.3190
 5381TIP3   OH237633   1.187   2.757   5.619  0.0192 -0.0007 -0.1903
 5381TIP3    H137634   1.190   2.720   5.530  0.6686 -0.6620  0.0962
 5381TIP3    H237635   1.262   2.817   5.622 -0.7185  0.9469 -0.4786
 5382TIP3   OH237636   6.076   3.565  13.134 -0.0010  0.8185  0.6193
 5382TIP3    H137637   5.988   3.548  13.098  0.2720  0.1306  0.2628
 5382TIP3    H237638   6.068   3.543  13.227 -0.0507  0.1527  0.4636
 5383TIP3   OH237639   4.468   5.720   1.705  0.1215  0.0315 -0.2247
 5383TIP3    H137640   4.480   5.649   1.642 -0.9510  0.0028 -0.4061
 5383TIP3    H237641   4.553   5.726   1.749  1.0757  0.3877 -1.9960
 5384TIP3   OH237642   0.654   3.384  13.827 -0.4954  0.3100  0.2512
 5384TIP3    H137643   0.567   3.418  13.803  0.3723  1.7591 -1.0663
 5384TIP3    H237644   0.685   3.342  13.747 -0.2368 -0.7953  0.9208
 5385TIP3   OH237645   1.555   1.914   0.434 -0.2277  0.7727  0.1397
 5385TIP3    H137646   1.512   1.883   0.514 -0.1460  0.0864 -0.0711
 5385TIP3    H237647   1.556   2.009   0.443  2.7164  0.6702  2.5314
 5386TIP3   OH237648   0.248   0.026   3.134 -0.3196 -0.0243  0.4715
 5386TIP3    H137649   0.297  -0.029   3.073  0.9569  0.7358  0.7575
 5386TIP3    H237650   0.313   0.053   3.199 -0.7680  2.1316  0.1090
 5387TIP3   OH237651   4.283   6.408   3.026 -0.3194 -0.3479 -0.3535
 5387TIP3    H137652   4.291   6.384   3.118  2.4100  0.1202 -0.3796
 5387TIP3    H237653   4.198   6.451   3.019 -0.4882 -0.2042  1.9837
 5388TIP3   OH237654   6.502   3.900   0.777  0.0036  0.6618 -0.0176
 5388TIP3    H137655   6.584   3.894   0.728  0.5111 -1.6892  1.0064
 5388TIP3    H237656   6.445   3.834   0.737 -1.1434  1.7335 -0.2099
 5389TIP3   OH237657   2.058   2.647  16.628  0.0125 -0.0491 -0.2884
 5389TIP3    H137658   2.079   2.608  16.713  0.6496  1.0374  0.0745
 5389TIP3    H237659   2.139   2.691  16.602  0.4088 -1.8088 -2.2958
 5390TIP3   OH237660   1.502   1.545  11.850 -0.6483 -0.5049  0.1981
 5390TIP3    H137661   1.455   1.614  11.803  0.8745  0.7930  0.5016
 5390TIP3    H237662   1.542   1.492  11.780  0.5284  0.6456 -0.0516
 5391TIP3   OH237663   0.095   5.368   4.846 -0.1025  0.3946 -0.0413
 5391TIP3    H137664   0.083   5.422   4.924  0.4980  2.4360 -1.2781
 5391TIP3    H237665   0.006   5.350   4.815 -0.3064  1.0322  0.1666
 5392TIP3   OH237666   4.890   6.360  10.342  0.3539  0.0484 -0.6732
 5392TIP3    H137667   4.948   6.329  10.412 -0.8733  2.4909  1.6121
 5392TIP3    H237668   4.940   6.431  10.301 -0.4388  1.3650  0.5278
 5393TIP3   OH237669   2.167   6.289   2.387  0.4245 -0.2317 -0.2874
 5393TIP3    H137670   2.137   6.323   2.471  0.9214 -0.0123 -0.1929
 5393TIP3    H237671   2.255   6.256   2.405  1.2391  1.4189 -1.1026
 5394TIP3   OH237672   3.715   4.715  16.439  0.0618  0.1976  0.3549
 5394TIP3    H137673   3.781   4.648  16.422  1.0408  1.4672 -1.1852
 5394TIP3    H237674   3.763   4.786  16.482 -0.3737  0.9512 -0.3755
 5395TIP3   OH237675   1.481   1.520  13.872 -0.3175  0.0194 -0.3076
 5395TIP3    H137676   1.568   1.481  13.862  0.3344  1.4408 -0.3618
 5395TIP3    H237677   1.494   1.592  13.934 -1.3605  0.5776 -0.7203
 5396TIP3   OH237678   5.869   2.385   0.806 -0.4196 -0.3198  0.3147
 5396TIP3    H137679   5.851   2.479   0.815 -2.1130 -0.5081 -0.6457
 5396TIP3    H237680   5.861   2.351   0.895 -0.3024  0.3694  0.5949
 5397TIP3   OH237681   6.668   2.357  12.216  0.2434  0.0041 -0.0221
 5397TIP3    H137682   6.675   2.375  12.310 -1.1615  1.4992 -0.1451
 5397TIP3    H237683   6.577   2.329  12.204  0.5492 -0.6573 -0.8647
 5398TIP3   OH237684   3.358   4.347   3.309  0.3769  0.2795  0.7378
 5398TIP3    H137685   3.449   4.324   3.291  0.3777  0.4710  0.4793
 5398TIP3    H237686   3.360   4.397   3.391  0.3651 -0.6926  1.3444
 5399TIP3   OH237687   5.911   4.209   4.050 -0.1963  0.4910 -0.1193
 5399TIP3    H137688   5.828   4.256   4.042 -0.2841  0.7777  2.0194
 5399TIP3    H237689   5.888   4.125   4.090  0.3828 -0.0330 -0.8604
 5400TIP3   OH237690   5.600   2.264  12.971 -0.0061 -0.2482  0.1367
 5400TIP3    H137691   5.650   2.346  12.962 -1.0364  0.4685  0.7132
 5400TIP3    H237692   5.659   2.205  13.017  0.5893  0.3243  0.1284
 5401TIP3   OH237693   5.422   1.022   4.382  0.2360  0.0872 -0.2303
 5401TIP3    H137694   5.343   1.077   4.387  0.7227  0.8440 -0.6340
 5401TIP3    H237695   5.473   1.060   4.310  1.2264 -0.0448  0.3862
 5402TIP3   OH237696   1.237   2.927   1.897 -0.3275  0.5139 -0.6183
 5402TIP3    H137697   1.182   2.997   1.933 -0.7742 -1.5316  3.1714
 5402TIP3    H237698   1.298   2.906   1.967  2.0768 -0.6745 -2.9020
 5403TIP3   OH237699   5.974   0.743   4.415 -0.2557 -0.1614 -0.7157
 5403TIP3    H137700   5.891   0.700   4.433  0.0778 -0.4710  0.1434
 5403TIP3    H237701   5.986   0.804   4.488  0.5288 -0.5118 -0.5411
 5404TIP3   OH237702   0.978   1.521   4.622 -0.0285 -0.8910 -0.1777
 5404TIP3    H137703   0.920   1.549   4.550 -0.6678 -1.5750  0.0609
 5404TIP3    H237704   0.938   1.441   4.655 -0.6283  0.2162  1.9569
 5405TIP3   OH237705   2.239   5.522  15.446 -0.0465 -0.0739 -0.9181
 5405TIP3    H137706   2.230   5.436  15.405 -0.3499 -0.1483 -0.6938
 5405TIP3    H237707   2.311   5.564  15.398  0.4298 -0.6359 -0.7116
 5406TIP3   OH237708   2.773   0.282  13.217  0.4064  0.0881 -0.3091
 5406TIP3    H137709   2.767   0.300  13.123  0.0771  1.5603 -0.0317
 5406TIP3    H237710   2.697   0.326  13.255 -0.7361 -2.3169  0.4441
 5407TIP3   OH237711   5.997   1.456  15.455 -0.3948 -0.8202  0.6736
 5407TIP3    H137712   6.011   1.395  15.382  0.8183  0.0889  0.1049
 5407TIP3    H237713   6.053   1.423  15.525  1.2984  0.3097 -0.0774
 5408TIP3   OH237714   5.131   4.147   6.489  0.0461  0.2591 -0.2304
 5408TIP3    H137715   5.141   4.052   6.494  3.0275  0.4425 -0.6904
 5408TIP3    H237716   5.037   4.161   6.482 -0.5241 -2.6124  0.3321
 5409TIP3   OH237717   5.384   0.891  12.639  0.3030 -0.1793  0.1327
 5409TIP3    H137718   5.291   0.869  12.635 -0.0690  1.0875  1.1144
 5409TIP3    H237719   5.393   0.971  12.587  0.9633 -0.5957 -0.4233
 5410TIP3   OH237720   5.378   2.083  12.444  0.1486  0.2657 -0.1162
 5410TIP3    H137721   5.449   2.112  12.502  0.6893  1.6547 -1.4062
 5410TIP3    H237722   5.364   2.157  12.385 -2.0961 -0.1456 -0.1805
 5411TIP3   OH237723   4.975   3.448   3.783  0.1568  0.0020  0.1496
 5411TIP3    H137724   5.012   3.392   3.715  0.0048 -1.2008  1.0213
 5411TIP3    H237725   4.886   3.466   3.753 -0.0526 -0.8743  0.2076
 5412TIP3   OH237726   5.873   2.182   3.237  0.2231 -0.0147  0.2739
 5412TIP3    H137727   5.863   2.277   3.233  2.3509  0.2209 -0.3980
 5412TIP3    H237728   5.901   2.157   3.149 -0.7472 -1.3549  0.3095
 5413TIP3   OH237729   4.781   4.623  12.574  0.3060 -0.5742 -0.1554
 5413TIP3    H137730   4.813   4.637  12.663 -2.3140 -0.1875  0.8224
 5413TIP3    H237731   4.797   4.707  12.529  0.1418 -0.2100  0.4595
 5414TIP3   OH237732   5.563   5.774   2.428  0.2249  0.0268 -0.0348
 5414TIP3    H137733   5.545   5.867   2.413  0.7414  0.1803  0.2699
 5414TIP3    H237734   5.607   5.746   2.348 -0.5012 -0.1243 -0.3983
 5415TIP3   OH237735   5.552   4.235   1.358 -0.1986  0.4935  0.3900
 5415TIP3    H137736   5.608   4.263   1.431  0.6754  0.1257 -0.1298
 5415TIP3    H237737   5.479   4.190   1.400  1.2675 -1.4544  0.9780
 5416TIP3   OH237738   1.297   5.126   4.276  0.1655  0.0446 -0.7285
 5416TIP3    H137739   1.342   5.209   4.260  0.6072  0.0354  0.4033
 5416TIP3    H237740   1.366   5.066   4.303 -0.4212 -0.1326  0.4369
 5417TIP3   OH237741   1.421   1.037   1.481  0.5559  0.1066 -0.5856
 5417TIP3    H137742   1.371   1.085   1.415 -2.2761 -0.7322  0.7853
 5417TIP3    H237743   1.441   1.102   1.548  0.8586  0.3208 -0.8755
 5418TIP3   OH237744   5.414   1.347  16.631 -0.2926  0.6426  0.2668
 5418TIP3    H137745   5.351   1.288  16.673 -0.9304 -0.6508 -2.2843
 5418TIP3    H237746   5.367   1.382  16.554  1.4323  1.2513 -0.5728
 5419TIP3   OH237747   2.916   0.679   4.890 -1.0636 -0.7312  0.2323
 5419TIP3    H137748   2.885   0.650   4.804 -0.0001  0.0792 -0.4427
 5419TIP3    H237749   2.950   0.599   4.931  0.7816 -0.7050 -1.1456
 5420TIP3   OH237750   1.688   3.601   3.974  0.2338 -0.2932 -0.3748
 5420TIP3    H137751   1.655   3.662   3.908  1.8498  0.8651 -0.1901
 5420TIP3    H237752   1.674   3.646   4.057  1.3993 -0.1791 -0.2288
 5421TIP3   OH237753   5.017   2.333  15.050 -0.7308  0.4174  0.0450
 5421TIP3    H137754   4.974   2.302  14.971 -0.2278  0.9204 -0.4384
 5421TIP3    H237755   4.962   2.303  15.122 -1.2782  0.0981 -0.5068
 5422TIP3   OH237756   5.810   3.476  13.075  0.7574  0.0331 -0.3218
 5422TIP3    H137757   5.739   3.513  13.128  0.3836 -0.2532 -0.6139
 5422TIP3    H237758   5.826   3.390  13.114  0.9869  0.1274 -0.2135
 5423TIP3   OH237759   6.036   4.273   0.950 -0.4880 -0.0570  0.4371
 5423TIP3    H137760   6.093   4.313   0.884 -0.1512  0.7177  1.1665
 5423TIP3    H237761   6.068   4.309   1.033 -1.8988  0.2355  0.8880
 5424TIP3   OH237762   5.268   5.198  13.884  0.5789  0.0952 -0.8485
 5424TIP3    H137763   5.362   5.187  13.871  0.5265 -0.2842 -0.9183
 5424TIP3    H237764   5.261   5.251  13.963  0.8492 -0.1587 -0.6518
 5425TIP3   OH237765   4.351   3.369   5.116  0.8910 -0.1187 -0.3657
 5425TIP3    H137766   4.318   3.295   5.065 -0.0147  0.0084  0.0154
 5425TIP3    H237767   4.351   3.442   5.055 -1.3019  0.3165  0.0578
 5426TIP3   OH237768   0.882   2.940   4.621 -0.0428  0.6085 -0.1170
 5426TIP3    H137769   0.828   2.999   4.569 -2.8431 -1.0797  0.6275
 5426TIP3    H237770   0.940   2.997   4.671 -1.0207  2.5561 -1.1001
 5427TIP3   OH237771   4.351   3.077  10.904  0.1214 -0.5550 -0.1526
 5427TIP3    H137772   4.321   3.166  10.886  0.8926 -0.0648  0.8706
 5427TIP3    H237773   4.317   3.025  10.832 -0.3523  0.5687 -0.7613
 5428TIP3   OH237774   0.428   4.542  11.016  0.0202  0.1088 -0.4589
 5428TIP3    H137775   0.373   4.561  10.941  1.0680  2.0415 -0.8122
 5428TIP3    H237776   0.517   4.543  10.981  0.4463 -0.3682  0.5587
 5429TIP3   OH237777   6.655   0.319  12.583 -0.0668  0.5434  0.2459
 5429TIP3    H137778   6.593   0.364  12.524  0.1965  1.7028  0.8216
 5429TIP3    H237779   6.717   0.276  12.524 -0.5218  0.6603 -0.3299
 5430TIP3   OH237780   2.362   1.584  11.347 -0.4934  0.5338  0.3186
 5430TIP3    H137781   2.403   1.621  11.269  0.4613  2.8329  1.7944
 5430TIP3    H237782   2.296   1.524  11.314  0.6460  0.5607 -2.2162
 5431TIP3   OH237783   1.084   0.483  15.513  0.2059  0.5635  0.2955
 5431TIP3    H137784   1.133   0.466  15.432 -1.1171  0.7643 -0.5732
 5431TIP3    H237785   1.038   0.566  15.497 -2.2527 -0.7443  0.1434
 5432TIP3   OH237786   4.746   6.715   4.607  0.1168  0.7365  1.0994
 5432TIP3    H137787   4.662   6.709   4.562  0.0483  1.5934  1.0862
 5432TIP3    H237788   4.724   6.731   4.699  0.2584 -0.8593  1.4305
 5433TIP3   OH237789   5.664   3.126  15.321 -0.1714  0.3277  0.0477
 5433TIP3    H137790   5.593   3.164  15.271 -1.9066 -0.1976  1.9907
 5433TIP3    H237791   5.663   3.173  15.405  0.8668 -0.6280  0.6294
 5434TIP3   OH237792   1.372   4.326   2.831  0.2556  0.2997  0.0168
 5434TIP3    H137793   1.438   4.277   2.782 -0.4228 -0.0240 -0.5930
 5434TIP3    H237794   1.319   4.368   2.764 -0.2892  0.3829  0.4959
 5435TIP3   OH237795   5.899   5.485   6.426 -0.1481 -0.1557 -0.3848
 5435TIP3    H137796   5.870   5.564   6.473  2.0310  0.3526  0.2108
 5435TIP3    H237797   5.874   5.413   6.483 -0.6151  0.2276 -0.0975
 5436TIP3   OH237798   3.810   0.245  15.400 -0.4362  0.4095  0.3658
 5436TIP3    H137799   3.721   0.273  15.382 -0.4411  0.2138  0.0686
 5436TIP3    H237800   3.860   0.273  15.323 -0.4201 -0.2934  0.1106
 5437TIP3   OH237801   5.636   2.335  14.851 -0.1345 -0.4472  0.9040
 5437TIP3    H137802   5.587   2.415  14.831 -0.7360 -1.4671 -2.1882
 5437TIP3    H237803   5.728   2.360  14.836 -0.3160 -0.2755 -0.0192
 5438TIP3   OH237804   0.967   1.502   0.910  0.3629  0.2515 -0.7258
 5438TIP3    H137805   1.006   1.426   0.867  0.3441  0.5662 -1.3259
 5438TIP3    H237806   0.900   1.532   0.848 -2.1814 -1.3588  1.0389
 5439TIP3   OH237807   2.628   6.072   3.518  0.4804 -0.2753 -0.4282
 5439TIP3    H137808   2.691   6.000   3.513 -0.3595 -0.9351 -2.5630
 5439TIP3    H237809   2.552   6.041   3.469 -1.6516  0.4314  2.1815
 5440TIP3   OH237810   6.699   1.526   5.357  0.0966 -0.0085 -0.7810
 5440TIP3    H137811   6.715   1.553   5.447 -0.1252 -0.7764 -0.4997
 5440TIP3    H237812   6.761   1.454   5.343  0.9477  0.8553 -1.6350
 5441TIP3   OH237813   2.457   0.018  14.517  0.3918  0.0272 -0.1198
 5441TIP3    H137814   2.434  -0.067  14.554  0.0211 -0.0350 -0.4854
 5441TIP3    H237815   2.536   0.044  14.564  1.1731 -1.0341 -0.8217
 5442TIP3   OH237816   2.170   2.234   1.266 -0.0436  0.0435  0.6011
 5442TIP3    H137817   2.205   2.314   1.226 -0.6747 -0.6495 -1.4547
 5442TIP3    H237818   2.229   2.217   1.340  0.6818  1.8511  0.5010
 5443TIP3   OH237819   3.990   2.147   2.399  0.6433 -0.5243 -0.3600
 5443TIP3    H137820   3.997   2.162   2.305  1.7790 -1.6947 -0.4902
 5443TIP3    H237821   4.073   2.179   2.435  0.2385 -0.1308  0.2370
 5444TIP3   OH237822   1.959   6.187   0.675 -0.0313 -0.0237  0.1023
 5444TIP3    H137823   1.875   6.142   0.666  1.4516 -2.8945 -0.7591
 5444TIP3    H237824   1.974   6.228   0.590  0.4389 -1.5414 -0.5886
 5445TIP3   OH237825   3.323   0.136  12.251  0.3053  0.2751  0.1684
 5445TIP3    H137826   3.262   0.109  12.183  1.7795  0.1115 -1.1262
 5445TIP3    H237827   3.386   0.063  12.258  1.3010  1.1258  0.3149
 5446TIP3   OH237828   3.165   1.093   4.841  0.0229  0.1013 -0.2706
 5446TIP3    H137829   3.183   1.187   4.842 -0.7436  0.2631 -0.8564
 5446TIP3    H237830   3.122   1.075   4.924 -2.1970  0.7825 -1.1879
 5447TIP3   OH237831   0.373   5.189   3.949  0.3116 -0.1267  0.3116
 5447TIP3    H137832   0.303   5.153   4.004  0.8381 -0.4829  0.7697
 5447TIP3    H237833   0.394   5.273   3.988 -0.8144  0.6340 -0.6683
 5448TIP3   OH237834   5.959   2.551   1.130  0.1630 -0.6212 -0.1257
 5448TIP3    H137835   6.007   2.616   1.079 -1.7964  2.5065  1.6912
 5448TIP3    H237836   5.957   2.587   1.219 -2.9262 -1.9965  0.4900
 5449TIP3   OH237837   5.046   3.309  16.697  0.4077  0.0751  0.6673
 5449TIP3    H137838   5.005   3.223  16.693  2.2994 -0.8244 -1.7281
 5449TIP3    H237839   4.977   3.366  16.731 -1.2509 -2.1597  1.2971
 5450TIP3   OH237840   2.801   4.348   3.816  0.1793 -0.1681  0.1201
 5450TIP3    H137841   2.825   4.259   3.789  2.1837 -0.1548  1.6640
 5450TIP3    H237842   2.765   4.388   3.737  0.5736 -1.8877 -0.9838
 5451TIP3   OH237843   1.743   4.123   3.289  0.2427  0.1225 -0.4576
 5451TIP3    H137844   1.796   4.196   3.321 -0.3219  0.4683 -0.2937
 5451TIP3    H237845   1.676   4.110   3.356  1.9260 -2.3509  0.8725
 5452TIP3   OH237846   2.846   1.033  17.043  0.2723  0.5813  0.0031
 5452TIP3    H137847   2.805   1.117  17.021  2.0938  1.4071 -0.3727
 5452TIP3    H237848   2.930   1.056  17.082  0.2398 -1.0533  1.1408
 5453TIP3   OH237849   5.161   4.840   0.206  0.4197  0.4138  0.0792
 5453TIP3    H137850   5.146   4.915   0.149  0.8252 -0.9399 -1.9125
 5453TIP3    H237851   5.202   4.775   0.149 -0.8819 -1.7206  1.4562
 5454TIP3   OH237852   5.644   2.473   6.411 -0.2305 -0.3752  0.3821
 5454TIP3    H137853   5.604   2.491   6.496 -0.2656  0.4584  0.1986
 5454TIP3    H237854   5.727   2.430   6.432  1.0100  2.0976  1.0037
 5455TIP3   OH237855   0.077   2.325   4.105 -0.1184 -0.6491 -0.2003
 5455TIP3    H137856   0.163   2.301   4.141 -0.3067 -3.0329 -1.1129
 5455TIP3    H237857   0.098   2.372   4.024  0.3647 -1.4252 -0.5425
 5456TIP3   OH237858   3.423   1.880   6.537  0.1400 -0.1596  0.8378
 5456TIP3    H137859   3.384   1.963   6.510 -0.1471 -0.4303  0.4032
 5456TIP3    H237860   3.397   1.870   6.628  0.1564  0.2121  0.8871
 5457TIP3   OH237861   0.599   5.802   5.921  0.3797  0.0877 -0.1706
 5457TIP3    H137862   0.560   5.715   5.908  0.1134  0.1004  0.4785
 5457TIP3    H237863   0.526   5.857   5.949  0.6345  0.4114 -0.1371
 5458TIP3   OH237864   1.456   3.408   3.616  0.5404  0.1234  0.5065
 5458TIP3    H137865   1.392   3.353   3.572  0.5214  0.6641 -0.1666
 5458TIP3    H237866   1.531   3.409   3.557  1.2879 -0.7306  1.4221
 5459TIP3   OH237867   2.590   5.572   5.368 -0.2957  0.4579  0.0880
 5459TIP3    H137868   2.635   5.487   5.369 -0.6283  0.2728  1.2423
 5459TIP3    H237869   2.498   5.550   5.381 -0.1123  1.0887  3.1548
 5460TIP3   OH237870   1.642   6.477  16.448 -0.3209  0.2350 -0.5274
 5460TIP3    H137871   1.596   6.461  16.366 -1.1629  0.8626 -0.1950
 5460TIP3    H237872   1.723   6.521  16.422 -0.3772  0.0436 -1.0458
 5461TIP3   OH237873   6.482   3.792  14.052 -0.2278  0.5558  0.3026
 5461TIP3    H137874   6.494   3.742  14.133  1.8317 -2.5581 -1.6827
 5461TIP3    H237875   6.552   3.857  14.053  2.9196 -2.4757 -0.7895
 5462TIP3   OH237876   5.400   6.127  17.380 -0.2500 -0.6046 -0.1066
 5462TIP3    H137877   5.337   6.065  17.343 -2.0382 -0.7998  2.9039
 5462TIP3    H237878   5.376   6.132  17.473  1.8433  2.2257  0.3957
 5463TIP3   OH237879   4.535   0.083   6.068 -0.6354  0.2672  0.7151
 5463TIP3    H137880   4.468   0.037   6.118 -0.3610 -0.8944  0.0526
 5463TIP3    H237881   4.601   0.109   6.132  0.2368 -2.1104  0.8791
 5464TIP3   OH237882   4.707   3.647   5.329 -0.6232  0.2910  0.0975
 5464TIP3    H137883   4.687   3.668   5.420  0.8438  0.5070  0.3919
 5464TIP3    H237884   4.801   3.662   5.321 -0.8417  1.0062 -1.6504
 5465TIP3   OH237885   5.145   4.592   5.808  0.1325 -0.2922 -0.1926
 5465TIP3    H137886   5.218   4.611   5.749 -0.7982  1.6737 -0.7755
 5465TIP3    H237887   5.082   4.546   5.753 -0.5651  1.1919 -0.6934
 5466TIP3   OH237888   5.264   1.718   3.418 -0.3949 -0.7081  0.5716
 5466TIP3    H137889   5.251   1.794   3.362  0.2242 -2.1243 -1.6431
 5466TIP3    H237890   5.178   1.699   3.454 -0.8466  0.2073 -0.0032
 5467TIP3   OH237891   6.392   5.153   4.590  0.2251  0.4068  0.1608
 5467TIP3    H137892   6.330   5.209   4.543 -0.3983  0.8589  1.4734
 5467TIP3    H237893   6.349   5.134   4.673  0.7936 -1.3511  0.0842
 5468TIP3   OH237894   2.036   1.209   5.164  0.2358  0.0171  0.6486
 5468TIP3    H137895   2.077   1.286   5.202 -1.7499  1.1015  0.7365
 5468TIP3    H237896   2.040   1.222   5.070 -2.6347  1.7653  0.6550
 5469TIP3   OH237897   5.585   1.025  15.851  0.7216  0.9091  0.0654
 5469TIP3    H137898   5.557   1.084  15.781  1.9758  0.8147 -0.5362
 5469TIP3    H237899   5.640   0.960  15.807 -1.0350 -1.0618  0.6031
 5470TIP3   OH237900   5.519   6.394  15.311 -0.4267 -0.1813 -0.3375
 5470TIP3    H137901   5.511   6.429  15.400  0.8572 -1.8949  0.5091
 5470TIP3    H237902   5.514   6.299  15.322  1.9757 -0.5607 -1.7864
 5471TIP3   OH237903   0.002   2.726   1.718 -0.0156 -0.1448  0.1825
 5471TIP3    H137904  -0.010   2.633   1.699  1.6695 -0.1676 -0.9569
 5471TIP3    H237905  -0.044   2.771   1.648  1.3159 -0.1718 -0.7372
 5472TIP3   OH237906   1.756   5.979  12.174 -0.2104 -0.5851  0.0299
 5472TIP3    H137907   1.717   5.901  12.214  1.2557 -0.9686  0.7826
 5472TIP3    H237908   1.701   5.997  12.098 -1.0774 -1.8508  0.3269
 5473TIP3   OH237909   2.267   0.672   4.484  0.5435  0.8323 -0.8742
 5473TIP3    H137910   2.332   0.738   4.509  1.2539 -0.1005 -0.1791
 5473TIP3    H237911   2.199   0.679   4.552  0.5108  0.9924 -0.9228
 5474TIP3   OH237912   3.124   5.617   1.044  0.2756  0.0529 -0.8153
 5474TIP3    H137913   3.030   5.606   1.026  0.4124 -1.1279 -0.9085
 5474TIP3    H237914   3.167   5.584   0.965  0.7761  1.4888 -1.1754
 5475TIP3   OH237915   6.619   4.687   3.890  0.1354 -0.1342  0.0745
 5475TIP3    H137916   6.524   4.688   3.894  0.1171 -1.5177  2.8196
 5475TIP3    H237917   6.642   4.598   3.862  0.5758 -0.1773  0.5360
 5476TIP3   OH237918   4.716   5.471  11.892  0.3934 -0.1649  0.0549
 5476TIP3    H137919   4.672   5.533  11.951  1.6186 -0.8069  1.7237
 5476TIP3    H237920   4.753   5.526  11.823  0.9187  0.9154  1.1663
 5477TIP3   OH237921   6.054   0.069   4.697 -0.1878 -0.0550 -0.0864
 5477TIP3    H137922   6.106   0.101   4.624  1.1753  0.6139  1.1197
 5477TIP3    H237923   6.063  -0.026   4.693 -1.6485 -0.1674 -1.8340
 5478TIP3   OH237924   6.137   0.225  16.659 -0.0213  0.4732 -0.4056
 5478TIP3    H137925   6.109   0.157  16.598  0.8200  0.1428 -0.4301
 5478TIP3    H237926   6.113   0.307  16.616 -1.1529  0.2084 -0.3177
 5479TIP3   OH237927   3.135   2.633   0.256 -0.1760  0.2327  0.5333
 5479TIP3    H137928   3.203   2.700   0.260 -1.0610  1.1568  0.4261
 5479TIP3    H237929   3.116   2.625   0.162 -0.4106  0.1738  0.5869
 5480TIP3   OH237930   1.905   5.989  14.006 -0.3144 -0.2315  0.1557
 5480TIP3    H137931   1.932   5.913  13.955  1.2584  0.4029 -0.0108
 5480TIP3    H237932   1.831   5.958  14.058 -0.1084 -1.6914 -0.3784
 5481TIP3   OH237933   4.167   1.062  15.863  0.7148  0.7845  0.3648
 5481TIP3    H137934   4.125   1.120  15.801  0.2419  0.8460  0.7379
 5481TIP3    H237935   4.252   1.041  15.823  0.3930  0.7703 -0.3241
 5482TIP3   OH237936   3.135   3.119  15.426  0.0353 -0.0299 -0.0293
 5482TIP3    H137937   3.044   3.133  15.401  0.5230  0.1992 -1.8161
 5482TIP3    H237938   3.156   3.192  15.485 -0.4297  0.9457 -1.0355
 5483TIP3   OH237939   6.677   3.761   3.675  0.6806  0.1466  0.1246
 5483TIP3    H137940   6.616   3.834   3.663  1.0447  0.3746 -0.3869
 5483TIP3    H237941   6.624   3.691   3.713  0.2975  0.6340  0.5117
 5484TIP3   OH237942   1.429   5.887   4.817 -0.1789  0.2304  0.4237
 5484TIP3    H137943   1.455   5.809   4.768  0.2610  1.4062 -1.3153
 5484TIP3    H237944   1.368   5.855   4.883  1.1944 -1.7879  0.7943
 5485TIP3   OH237945   0.920   3.749   1.595  0.0473  0.1656  0.7546
 5485TIP3    H137946   0.994   3.702   1.555 -1.7037  0.1043 -2.7718
 5485TIP3    H237947   0.941   3.751   1.688  3.3660 -1.8416  0.2169
 5486TIP3   OH237948   6.616   5.308   4.748 -0.3601 -0.0944  0.0323
 5486TIP3    H137949   6.644   5.262   4.669  0.1001  0.7320 -0.3065
 5486TIP3    H237950   6.527   5.278   4.763  0.2350 -1.7793  0.3608
 5487TIP3   OH237951   2.682   5.685   0.701  0.2225 -0.2317  0.5720
 5487TIP3    H137952   2.747   5.639   0.755  0.2520 -1.0856 -0.1628
 5487TIP3    H237953   2.712   5.670   0.611 -1.5454 -1.5557  0.1494
 5488TIP3   OH237954   4.059   5.192   4.334 -0.7196 -0.0036  0.2081
 5488TIP3    H137955   4.131   5.222   4.278  0.6744  0.0628  1.9420
 5488TIP3    H237956   3.984   5.245   4.307  0.0666  0.5021 -1.1101
 5489TIP3   OH237957   4.508   0.212  14.003  0.2340 -0.2386  0.1040
 5489TIP3    H137958   4.539   0.242  14.088  1.6297  0.4769 -0.6301
 5489TIP3    H237959   4.567   0.253  13.939 -1.3205 -0.0072 -1.2827
 5490TIP3   OH237960   6.638   6.337  13.664 -0.1756 -0.6088  0.7918
 5490TIP3    H137961   6.672   6.247  13.667  0.2078 -0.5829 -1.2150
 5490TIP3    H237962   6.716   6.392  13.658 -0.4184 -0.1379  1.8010
 5491TIP3   OH237963   6.715   5.519  17.205 -0.3338 -0.0068 -0.5379
 5491TIP3    H137964   6.621   5.504  17.221 -0.1913 -1.0852 -0.6685
 5491TIP3    H237965   6.758   5.442  17.241  0.4920  0.3885 -0.6676
 5492TIP3   OH237966   6.387   0.963   0.741 -0.2664  0.3043  0.2419
 5492TIP3    H137967   6.385   0.878   0.786  0.6296  0.8479  1.3628
 5492TIP3    H237968   6.459   0.955   0.679 -0.9698 -0.1631 -0.5302
 5493TIP3   OH237969   6.154   4.645   2.948  0.6589 -0.7724 -0.0322
 5493TIP3    H137970   6.172   4.739   2.948 -0.3715 -0.5564 -0.3655
 5493TIP3    H237971   6.071   4.636   2.995 -0.3132 -1.2684 -1.7315
 5494TIP3   OH237972   1.783   4.508  13.242  0.1361  0.6243 -0.1601
 5494TIP3    H137973   1.855   4.553  13.286  0.4673 -0.3891  0.3801
 5494TIP3    H237974   1.825   4.440  13.190 -0.3485  0.9551 -1.0186
 5495TIP3   OH237975   1.055   3.512  12.860 -0.5180  0.1778  0.0934
 5495TIP3    H137976   1.092   3.600  12.859 -1.2063  0.4903 -1.9094
 5495TIP3    H237977   0.979   3.519  12.918  0.1456  0.5499  0.9507
 5496TIP3   OH237978   4.200   2.609   5.298  0.1486  0.0229  0.6832
 5496TIP3    H137979   4.242   2.565   5.372 -0.7327  0.4698  1.4700
 5496TIP3    H237980   4.226   2.557   5.222 -1.4283 -2.3237  1.6388
 5497TIP3   OH237981   5.336   0.645  16.527 -0.4070  1.0863 -0.0407
 5497TIP3    H137982   5.365   0.585  16.597 -0.9440  2.0053  1.0021
 5497TIP3    H237983   5.415   0.659  16.475  0.1027  0.6476  0.5802
 5498TIP3   OH237984   2.182   3.127   6.066  0.0126 -0.1615  0.0138
 5498TIP3    H137985   2.189   3.106   6.159 -2.7863 -3.3735 -0.2886
 5498TIP3    H237986   2.229   3.056   6.022 -1.1343 -0.3140 -1.0195
 5499TIP3   OH237987   6.057   5.281   2.691 -0.3044 -0.6219  0.0316
 5499TIP3    H137988   6.138   5.327   2.712 -1.2115  0.4246  1.4381
 5499TIP3    H237989   6.078   5.189   2.702  0.6539 -0.3558  0.5055
 5500TIP3   OH237990   2.185   4.510  16.366  0.8882 -0.3091 -0.2802
 5500TIP3    H137991   2.265   4.489  16.319  0.9580 -0.1686 -0.2249
 5500TIP3    H237992   2.213   4.532  16.454  0.7192 -0.9356 -0.0686
 5501TIP3   OH237993   0.441   3.495  16.748 -0.0656 -0.4014  0.2728
 5501TIP3    H137994   0.497   3.428  16.787  0.2261 -0.3098  0.0118
 5501TIP3    H237995   0.487   3.578  16.763  0.2956 -0.4133 -0.6853
 5502TIP3   OH237996   4.194   2.820  17.425 -0.4031  0.5559  0.3496
 5502TIP3    H137997   4.196   2.767  17.504 -0.2521 -1.0690 -0.6906
 5502TIP3    H237998   4.102   2.819  17.398 -0.1727 -0.4377 -0.4582
 5503TIP3   OH237999   5.396   0.745  12.368  0.1914  0.1068 -0.3021
 5503TIP3    H138000   5.476   0.730  12.419  0.8673 -1.4210 -1.7161
 5503TIP3    H238001   5.361   0.826  12.403  0.9866 -0.4782  2.0964
 5504TIP3   OH238002   0.518   6.480   5.149 -0.0342  0.6822  0.3500
 5504TIP3    H138003   0.595   6.451   5.100 -0.2056  1.6604 -0.5356
 5504TIP3    H238004   0.537   6.571   5.171 -1.1647  1.1192 -0.3972
 5505TIP3   OH238005   3.870   2.086  16.754 -0.4776  0.0749 -0.4657
 5505TIP3    H138006   3.832   2.166  16.790 -0.7299  0.2012 -0.9935
 5505TIP3    H238007   3.795   2.040  16.715 -0.4807 -0.8220  0.5508
 5506TIP3   OH238008   6.653   1.507  15.835 -0.6480 -0.1178 -0.2325
 5506TIP3    H138009   6.570   1.554  15.827 -1.3588 -1.0967  0.9963
 5506TIP3    H238010   6.633   1.432  15.891  0.7498 -1.1797 -1.0906
 5507TIP3   OH238011   2.081   0.239  12.737  0.2569 -0.1894 -0.1240
 5507TIP3    H138012   2.114   0.313  12.788 -0.6896  0.1550  0.0043
 5507TIP3    H238013   2.155   0.178  12.733  1.2021  0.9521 -0.6307
 5508TIP3   OH238014   3.237   0.364   3.645  0.5311 -0.1742 -0.1233
 5508TIP3    H138015   3.159   0.400   3.602  0.1487 -0.3545  0.4038
 5508TIP3    H238016   3.261   0.288   3.592 -1.1147 -1.6034  1.0302
 5509TIP3   OH238017   5.239   2.154   0.308  0.6307 -0.8507 -0.4576
 5509TIP3    H138018   5.163   2.211   0.309 -0.7204 -2.5804  0.3982
 5509TIP3    H238019   5.219   2.088   0.242  1.3105 -1.4301 -0.1041
 5510TIP3   OH238020   3.891   3.284   2.201 -0.2973  0.0857  0.1510
 5510TIP3    H138021   3.939   3.201   2.194  1.3970  1.0601 -0.2751
 5510TIP3    H238022   3.877   3.296   2.295 -2.2472 -1.5525  0.1530
 5511TIP3   OH238023   4.737   1.573   4.929 -0.2260 -0.0996 -0.0707
 5511TIP3    H138024   4.667   1.625   4.968 -1.1321 -1.8971  0.7912
 5511TIP3    H238025   4.696   1.489   4.908  1.5994 -1.1111  0.2241
 5512TIP3   OH238026   5.809   1.996  15.857  0.2551 -0.1589  0.0809
 5512TIP3    H138027   5.750   1.927  15.887  0.6507 -0.2327  0.7167
 5512TIP3    H238028   5.870   1.952  15.799  0.8159 -0.4618  0.8778
 5513TIP3   OH238029   0.808   2.642   4.656  0.2243  0.2493 -0.0607
 5513TIP3    H138030   0.852   2.597   4.584  0.2041 -0.6041  0.4469
 5513TIP3    H238031   0.852   2.727   4.662 -0.5519  0.8212 -1.8280
 5514TIP3   OH238032   0.806   1.130   2.231  0.2385  0.1316  0.4807
 5514TIP3    H138033   0.756   1.050   2.215  0.0828 -0.3328  2.9538
 5514TIP3    H238034   0.888   1.099   2.271  0.4073  1.1707  0.9634
 5515TIP3   OH238035   2.204   0.049  16.774 -0.8040  0.0839  0.5297
 5515TIP3    H138036   2.209   0.118  16.707 -2.9226  1.3632  1.5820
 5515TIP3    H238037   2.183   0.095  16.855 -3.0079 -1.8282  1.1578
 5516TIP3   OH238038   6.194   1.125  16.190 -0.0850  0.2896  0.2094
 5516TIP3    H138039   6.143   1.087  16.118 -0.3697 -0.5630  0.8470
 5516TIP3    H238040   6.285   1.118  16.161 -0.1612 -0.5174  0.1397
 5517TIP3   OH238041   6.283   2.951  13.300  0.6185 -0.0886 -0.3664
 5517TIP3    H138042   6.373   2.922  13.282 -0.1121 -1.9399 -1.2357
 5517TIP3    H238043   6.228   2.881  13.265 -1.2274  1.6265 -1.0503
 5518TIP3   OH238044   0.436   3.272  14.001  0.2127  0.2398  0.9746
 5518TIP3    H138045   0.513   3.328  13.993  0.4876 -0.1376  0.9769
 5518TIP3    H238046   0.471   3.184  14.012 -0.2144 -0.1148 -0.3540
 5519TIP3   OH238047   5.256   0.089   4.500 -0.1945  0.3997 -0.7896
 5519TIP3    H138048   5.212   0.063   4.582  4.5837 -0.4718  1.8576
 5519TIP3    H238049   5.274   0.182   4.511  0.4218  0.2904 -0.8837
 5520TIP3   OH238050   1.601   2.925   0.592 -0.2284 -0.0313  0.5745
 5520TIP3    H138051   1.648   2.991   0.540 -0.4135  0.1438  0.6275
 5520TIP3    H238052   1.510   2.954   0.590 -0.3009 -0.2556  0.6485
 5521TIP3   OH238053   5.550   2.726  11.928  0.1759 -0.1348 -0.2438
 5521TIP3    H138054   5.548   2.820  11.942  0.7030 -0.2009  0.3231
 5521TIP3    H238055   5.642   2.702  11.934 -0.1011 -0.9265  1.3319
 5522TIP3   OH238056   3.376   3.458  14.469  0.7063  0.0410  0.1109
 5522TIP3    H138057   3.347   3.517  14.399 -0.4141  1.4118  1.6582
 5522TIP3    H238058   3.470   3.470  14.473  0.7060  0.4001 -0.7568
 5523TIP3   OH238059   1.106   6.681   5.013 -0.1547 -0.4734 -0.5112
 5523TIP3    H138060   1.025   6.691   5.063  1.5039  0.1894  2.2509
 5523TIP3    H238061   1.158   6.758   5.035  2.3368 -2.1708  0.0690
 5524TIP3   OH238062   5.804   5.902   0.893 -0.3101 -0.6816 -0.2049
 5524TIP3    H138063   5.898   5.922   0.890 -0.3977  0.6072  2.5070
 5524TIP3    H238064   5.767   5.952   0.821  1.1518 -1.9413 -1.9153
 5525TIP3   OH238065   3.424   2.400  15.062  0.3914 -0.0323 -0.0891
 5525TIP3    H138066   3.458   2.357  15.141 -0.1535  0.8165  0.6171
 5525TIP3    H238067   3.332   2.375  15.059  0.6237 -0.8647 -1.0193
 5526TIP3   OH238068   4.777   6.434  16.797  0.4004  0.0839  0.2888
 5526TIP3    H138069   4.788   6.402  16.708  0.3123  1.9278 -0.4228
 5526TIP3    H238070   4.682   6.439  16.810  0.3415  2.8822 -0.7358
 5527TIP3   OH238071   3.855   2.150   4.004  0.0913  0.5440  0.0206
 5527TIP3    H138072   3.912   2.227   4.015 -0.0805  0.5055  1.2713
 5527TIP3    H238073   3.814   2.163   3.919  1.8873  0.6218 -0.8907
 5528TIP3   OH238074   1.497   2.250  11.937 -0.2898 -0.2560 -0.0888
 5528TIP3    H138075   1.529   2.337  11.915  0.3279  0.0279  1.7461
 5528TIP3    H238076   1.406   2.250  11.908  0.6620 -0.3414 -3.4788
 5529TIP3   OH238077   5.920   0.718   5.614 -0.5469  0.7394 -0.3480
 5529TIP3    H138078   5.856   0.771   5.567 -0.4803  1.6716  0.5688
 5529TIP3    H238079   5.882   0.630   5.616 -1.0778  0.9455 -1.1314
 5530TIP3   OH238080   2.685   2.518  14.618  0.4372 -0.3814 -0.2825
 5530TIP3    H138081   2.762   2.462  14.628  1.3253  0.5845 -1.5192
 5530TIP3    H238082   2.706   2.597  14.667 -0.2162 -0.5057  0.2296
 5531TIP3   OH238083   0.795   3.475  14.657 -0.0337 -0.3250 -0.2182
 5531TIP3    H138084   0.759   3.412  14.720  1.7709 -0.2341  0.9732
 5531TIP3    H238085   0.740   3.465  14.580 -1.3102 -1.6174  0.7954
 5532TIP3   OH238086   1.310   4.069   4.464  0.1838 -0.4593  0.4417
 5532TIP3    H138087   1.400   4.098   4.476 -0.2161  0.8444  0.5087
 5532TIP3    H238088   1.257   4.139   4.503 -0.9199 -0.1669 -1.4318
 5533TIP3   OH238089   2.001   6.456  16.921 -0.2205  0.1269  0.9951
 5533TIP3    H138090   2.023   6.537  16.967  2.2479  0.2376 -0.2198
 5533TIP3    H238091   1.954   6.486  16.842  2.1654  0.6198 -0.3296
 5534TIP3   OH238092   5.614   5.967  13.190  0.3420  0.1447  0.5821
 5534TIP3    H138093   5.674   5.898  13.217  0.1993 -0.9961 -1.7286
 5534TIP3    H238094   5.671   6.039  13.163  0.5598  0.2104  1.2109
 5535TIP3   OH238095   1.982   0.716   2.231 -0.4926 -0.2862 -0.2003
 5535TIP3    H138096   1.990   0.780   2.160 -0.3486  0.0793  0.1374
 5535TIP3    H238097   2.062   0.664   2.226 -0.2380  0.0753  0.0085
 5536TIP3   OH238098   4.699   2.832  16.550 -0.1834  0.3556 -0.0332
 5536TIP3    H138099   4.742   2.822  16.635  1.0185 -1.5307 -0.7854
 5536TIP3    H238100   4.628   2.893  16.566  0.7188  0.9544  2.0581
 5537TIP3   OH238101   3.091   5.157   6.233  0.1061 -0.4364 -0.0911
 5537TIP3    H138102   2.996   5.168   6.225 -0.0693 -0.8138  1.1802
 5537TIP3    H238103   3.112   5.197   6.318  1.2864  0.7856 -0.9204
 5538TIP3   OH238104   0.811   1.232  10.383 -0.8367 -0.3018 -0.4370
 5538TIP3    H138105   0.733   1.258  10.334  0.3001  0.0227 -2.1703
 5538TIP3    H238106   0.823   1.140  10.361 -0.0027 -0.0112 -1.2922
 5539TIP3   OH238107   2.924   1.847   2.015 -0.0837  0.3663  0.2099
 5539TIP3    H138108   2.890   1.926   1.973 -2.3629  0.3513  1.8303
 5539TIP3    H238109   2.953   1.877   2.102 -0.4006 -0.4631  0.6140
 5540TIP3   OH238110   6.682   1.880   0.947  0.2522  0.2124  0.1298
 5540TIP3    H138111   6.722   1.839   1.024 -0.2536  0.9787  0.8327
 5540TIP3    H238112   6.745   1.868   0.877  1.8271  1.5099  1.2322
 5541TIP3   OH238113   3.943   3.490   2.414 -0.1675  0.4405  0.2105
 5541TIP3    H138114   4.032   3.459   2.434 -0.5371  0.1673  1.5499
 5541TIP3    H238115   3.886   3.429   2.460 -1.0284  1.1293  0.0720
 5542TIP3   OH238116   5.029   3.033   5.143  0.3170 -0.4391  0.2822
 5542TIP3    H138117   4.947   2.987   5.128  0.2726 -0.4740  0.6211
 5542TIP3    H238118   5.024   3.062   5.235  1.0238 -1.1304  0.5480
 5543TIP3   OH238119   3.986   4.526   4.514 -0.0756 -0.0690  0.3215
 5543TIP3    H138120   4.074   4.559   4.532  0.1239  1.1492 -2.3911
 5543TIP3    H238121   3.928   4.596   4.545  0.0180  0.0478  0.2320
 5544TIP3   OH238122   2.926   3.402  16.217  0.0427  0.5928  0.4155
 5544TIP3    H138123   2.990   3.469  16.241  1.1834 -0.4199  0.2665
 5544TIP3    H238124   2.920   3.345  16.294 -0.8628  0.8037  0.5132
 5545TIP3   OH238125   4.062   0.672  13.388 -0.7572 -0.0971 -0.6315
 5545TIP3    H138126   4.090   0.623  13.465  1.5622  2.5445  0.3745
 5545TIP3    H238127   4.084   0.615  13.314 -0.1260 -1.4265  0.5241
 5546TIP3   OH238128   6.552   0.040  14.401 -0.4410  0.1253  0.2413
 5546TIP3    H138129   6.586  -0.032  14.453 -1.8176 -0.3687  0.5085
 5546TIP3    H238130   6.490   0.085  14.460 -3.8961 -1.8580 -1.5491
 5547TIP3   OH238131   3.208   6.267  15.210 -0.5908  0.3821 -0.5464
 5547TIP3    H138132   3.172   6.180  15.193 -1.0494  0.6215 -0.8130
 5547TIP3    H238133   3.173   6.322  15.140 -2.2897  1.3325  0.9514
 5548TIP3   OH238134   5.090   4.049   5.395 -0.2934 -0.4569  0.1007
 5548TIP3    H138135   5.160   4.001   5.351 -1.2390 -1.2334 -0.6227
 5548TIP3    H238136   5.094   4.021   5.486 -0.0697 -0.9860 -0.0714
 5549TIP3   OH238137   1.461   6.686   4.977 -0.0670 -0.2185  0.3403
 5549TIP3    H138138   1.550   6.704   5.008  0.0818 -0.8111  0.2681
 5549TIP3    H238139   1.405   6.741   5.032  0.2336 -0.8975  1.3485
 5550TIP3   OH238140   1.634   0.822   0.752  0.3074  0.4242  0.2371
 5550TIP3    H138141   1.583   0.854   0.678  2.1657  0.6104 -1.0527
 5550TIP3    H238142   1.694   0.758   0.714  1.5110  0.7202  1.5219
 5551TIP3   OH238143   5.165   2.742   5.373  0.0796 -0.0331 -0.0541
 5551TIP3    H138144   5.083   2.705   5.404 -0.1026  1.3514  1.2172
 5551TIP3    H238145   5.233   2.686   5.412 -0.2217 -0.3218  0.0615
 5552TIP3   OH238146   4.770   2.719  15.051  0.2849 -0.0909 -0.1500
 5552TIP3    H138147   4.847   2.689  15.099  0.2521 -1.0580 -0.6901
 5552TIP3    H238148   4.796   2.716  14.959 -1.0015 -2.3646 -0.5210
 5553TIP3   OH238149   4.027   0.844  15.965  0.2514 -0.0933 -0.4785
 5553TIP3    H138150   4.056   0.931  15.939 -1.3038  0.8179  0.6024
 5553TIP3    H238151   4.049   0.787  15.892  0.8174  1.3148 -1.4326
 5554TIP3   OH238152   3.673   2.340  16.316  0.4067 -0.4076  0.2082
 5554TIP3    H138153   3.703   2.366  16.403 -1.8616  0.9684  0.6504
 5554TIP3    H238154   3.589   2.297  16.331  0.7256 -1.6241 -1.2068
 5555TIP3   OH238155   4.910   6.734  12.471  0.0612  0.5294  0.2407
 5555TIP3    H138156   4.860   6.726  12.552  2.1272  2.1991  1.8020
 5555TIP3    H238157   4.848   6.771  12.408 -1.6971 -1.1569  0.8560
 5556TIP3   OH238158   0.852   1.190   0.262 -0.6393 -0.1250 -0.2244
 5556TIP3    H138159   0.804   1.164   0.184  1.2455  2.1290 -2.2928
 5556TIP3    H238160   0.817   1.276   0.285 -0.0099 -0.0091  0.3622
 5557TIP3   OH238161   1.014   0.824  13.283 -0.0255  0.2622  0.1076
 5557TIP3    H138162   0.930   0.816  13.329  0.1944  0.7281  0.5998
 5557TIP3    H238163   0.991   0.849  13.194 -0.3757  1.2395  0.4631
 5558TIP3   OH238164   1.992   5.709   5.710 -0.0613  0.5327  0.4711
 5558TIP3    H138165   2.048   5.786   5.704 -0.3907  0.7666  0.3629
 5558TIP3    H238166   1.950   5.704   5.624 -0.5930  0.6586  0.7223
 5559TIP3   OH238167   4.608   1.955  14.154 -0.4144 -0.1725 -0.4060
 5559TIP3    H138168   4.581   1.942  14.063  0.8381  1.4095 -1.0458
 5559TIP3    H238169   4.677   1.890  14.168  0.1166  0.2627 -0.9423
 5560TIP3   OH238170   6.686   6.616   2.800  0.2551 -0.8243 -0.3082
 5560TIP3    H138171   6.618   6.614   2.867  1.6118  1.2780  1.2623
 5560TIP3    H238172   6.747   6.546   2.826  0.1749 -0.7929 -0.0279
 5561TIP3   OH238173   4.299   3.626   2.564 -0.0214 -0.4625  0.2254
 5561TIP3    H138174   4.232   3.660   2.624  0.0993 -0.0011  0.1080
 5561TIP3    H238175   4.356   3.702   2.548  0.3156 -0.7563  0.0377
 5562TIP3   OH238176   4.628   5.944  16.372  0.2026 -0.0900  0.7720
 5562TIP3    H138177   4.552   5.995  16.398 -0.0924 -0.2424  0.2149
 5562TIP3    H238178   4.675   5.927  16.454  1.3585  2.6987  0.8182
 5563TIP3   OH238179   4.739   6.023   0.214 -0.4833 -0.2816 -0.0326
 5563TIP3    H138180   4.700   6.032   0.127 -1.4265 -0.5044  0.3465
 5563TIP3    H238181   4.816   6.079   0.212 -0.3325 -0.5095 -1.1022
 5564TIP3   OH238182   4.848   0.606   1.932  0.5127 -0.5191 -0.5760
 5564TIP3    H138183   4.805   0.663   1.868  1.4670 -0.5791 -1.2884
 5564TIP3    H238184   4.861   0.524   1.885  1.7215 -0.3844 -0.5060
 5565TIP3   OH238185   4.636   0.523   2.073 -0.3608  1.0026 -0.3275
 5565TIP3    H138186   4.719   0.553   2.037 -0.3457 -2.2390 -3.5541
 5565TIP3    H238187   4.571   0.585   2.039  0.2284  0.6992 -2.0994
 5566TIP3   OH238188   6.394   1.520   0.065 -0.2858 -0.1584  0.2273
 5566TIP3    H138189   6.375   1.596   0.010 -1.7670 -0.6569  0.0032
 5566TIP3    H238190   6.399   1.556   0.153  0.4191  0.3944 -0.0218
 5567TIP3   OH238191   0.017   1.735  17.129  0.6926 -0.0491  0.0008
 5567TIP3    H138192  -0.036   1.656  17.139 -0.6024  0.7281 -0.5207
 5567TIP3    H238193  -0.022   1.798  17.188  0.4742  0.8124 -1.0443
 5568TIP3   OH238194   0.339   2.222  15.168  0.3469 -0.1736 -0.9008
 5568TIP3    H138195   0.286   2.294  15.134  1.1769  1.0875  0.3753
 5568TIP3    H238196   0.346   2.161  15.094 -1.1077  0.6044 -1.7399
 5569TIP3   OH238197   3.008   0.676   6.508  0.1249  0.4054  0.1758
 5569TIP3    H138198   2.964   0.632   6.436 -0.6807 -1.3045  1.6320
 5569TIP3    H238199   3.044   0.755   6.469 -0.5389 -0.2927 -2.0164
 5570TIP3   OH238200   3.956   3.570   5.567 -0.3143 -0.0864 -0.2086
 5570TIP3    H138201   3.904   3.583   5.645 -0.7949 -2.7420  0.0043
 5570TIP3    H238202   3.894   3.539   5.501  0.3664  0.4589 -1.1404
 5571TIP3   OH238203   4.319   6.659  15.657  0.2705  0.1088  0.4881
 5571TIP3    H138204   4.342   6.715  15.732 -2.0313  0.9017  0.6581
 5571TIP3    H238205   4.266   6.589  15.695  0.4005 -0.3632 -0.1927
 5572TIP3   OH238206   2.604   3.140  14.502 -1.1631 -0.5516 -0.6532
 5572TIP3    H138207   2.660   3.156  14.578  0.2280  1.0212 -1.9216
 5572TIP3    H238208   2.559   3.058  14.522  0.7550 -1.3129  0.9382
 5573TIP3   OH238209   6.503   5.742   0.280 -0.2045 -0.0759 -0.4047
 5573TIP3    H138210   6.453   5.823   0.287  0.0372 -0.0113  1.0671
 5573TIP3    H238211   6.448   5.684   0.227 -0.8101  0.7325 -0.6764
 5574TIP3   OH238212   2.855   6.283   6.434 -0.4013 -0.3040 -0.0675
 5574TIP3    H138213   2.812   6.311   6.353  0.7427  1.9997  0.0595
 5574TIP3    H238214   2.948   6.293   6.416 -0.1284  0.3814  1.5629
 5575TIP3   OH238215   4.954   1.835   5.767  0.3329  0.1198  0.0955
 5575TIP3    H138216   4.906   1.848   5.849  0.0720  0.6430 -0.1346
 5575TIP3    H238217   4.937   1.914   5.716  0.1485 -0.3803 -0.6405
 5576TIP3   OH238218   1.772   4.103   5.384 -0.2848 -0.3271 -0.8973
 5576TIP3    H138219   1.855   4.122   5.340  0.7000  1.3293  1.4220
 5576TIP3    H238220   1.706   4.144   5.330  0.7919  1.0862 -1.1968
 5577TIP3   OH238221   2.849   6.711  12.633 -0.0175  0.3093 -0.3772
 5577TIP3    H138222   2.804   6.628  12.619  1.1168 -0.4492  0.2366
 5577TIP3    H238223   2.936   6.686  12.664  0.9436  1.6955 -1.7796
 5578TIP3   OH238224   4.568   6.060  15.838 -0.0589  0.1687 -0.7106
 5578TIP3    H138225   4.612   5.978  15.817  0.1386  0.2934 -0.7844
 5578TIP3    H238226   4.586   6.074  15.931 -2.5713 -1.3970  0.1197
 5579TIP3   OH238227   6.339   6.347   4.967  0.2347  0.1292 -0.1077
 5579TIP3    H138228   6.331   6.433   4.926 -1.0537  0.4371  0.7222
 5579TIP3    H238229   6.268   6.344   5.031  0.0151 -1.6991 -0.3735
 5580TIP3   OH238230   2.306   3.678  15.426 -0.0863 -0.5113  0.0894
 5580TIP3    H138231   2.275   3.589  15.442  0.1980 -0.7032 -0.4281
 5580TIP3    H238232   2.375   3.668  15.360  0.5678 -0.0090  0.6831
 5581TIP3   OH238233   0.335   0.665  15.350 -0.5259 -0.4235  0.0280
 5581TIP3    H138234   0.331   0.706  15.263  0.4757  0.0818  0.2178
 5581TIP3    H238235   0.276   0.719  15.404 -1.9932 -1.3608 -0.5608
 5582TIP3   OH238236   3.918   1.490  14.288 -0.0662 -0.4252  0.7236
 5582TIP3    H138237   3.959   1.539  14.360  0.1429 -0.1788  0.4347
 5582TIP3    H238238   3.844   1.544  14.261 -0.1657 -0.5347  0.7726
 5583TIP3   OH238239   4.501   5.752   5.869  0.1457 -0.6270  0.4653
 5583TIP3    H138240   4.522   5.745   5.962  0.4688  0.7675  0.5245
 5583TIP3    H238241   4.406   5.738   5.865 -0.3158  1.7025  1.3697
 5584TIP3   OH238242   5.400   1.579   6.733  0.4351 -0.1232  0.2416
 5584TIP3    H138243   5.468   1.605   6.795 -1.1715  2.0618  1.2352
 5584TIP3    H238244   5.379   1.489   6.757 -0.1879  0.6606  3.0854
 5585TIP3   OH238245   3.186   1.053   1.907  0.3685 -0.0353  0.6887
 5585TIP3    H138246   3.130   0.976   1.906  0.8889 -0.4113  0.5228
 5585TIP3    H238247   3.236   1.045   1.988  1.4504 -0.6139 -0.0235
 5586TIP3   OH238248   6.328   5.540  12.394  0.1988  0.1570 -0.4048
 5586TIP3    H138249   6.318   5.574  12.305  1.1916 -0.1433 -0.6435
 5586TIP3    H238250   6.280   5.458  12.394 -1.1232  0.9093 -0.1983
 5587TIP3   OH238251   4.330   2.333  11.945 -0.3446  0.5654  0.1229
 5587TIP3    H138252   4.345   2.317  12.038 -0.4403  1.8498  0.3718
 5587TIP3    H238253   4.235   2.325  11.934 -0.1388 -2.1936 -0.4111
 5588TIP3   OH238254   2.967   4.468  13.903 -0.0404  0.4550 -0.2074
 5588TIP3    H138255   2.986   4.562  13.898 -0.8972  0.6423 -0.0659
 5588TIP3    H238256   2.963   4.450  13.997  0.5230  0.1876 -0.2314
 5589TIP3   OH238257   6.750   3.499  11.373 -0.1901 -0.0871  0.3554
 5589TIP3    H138258   6.659   3.503  11.403 -0.7127  0.6111 -1.2048
 5589TIP3    H238259   6.788   3.425  11.420 -0.6643  1.4067  3.3235
 5590TIP3   OH238260   2.328   3.503   3.285  0.3085 -0.2920 -0.2888
 5590TIP3    H138261   2.339   3.535   3.375 -0.0207 -1.2851  0.1150
 5590TIP3    H238262   2.298   3.579   3.236 -0.6909 -0.0269  0.7004
 5591TIP3   OH238263   2.735   5.443   5.845  0.0756 -0.6909 -0.1659
 5591TIP3    H138264   2.761   5.519   5.794 -0.2933 -0.9892 -0.8253
 5591TIP3    H238265   2.745   5.469   5.936 -0.9490  0.4684 -0.3667
 5592TIP3   OH238266   0.722   4.894  12.501 -0.4884 -0.1842 -0.1296
 5592TIP3    H138267   0.677   4.814  12.526 -2.7619  1.1064  0.1512
 5592TIP3    H238268   0.781   4.912  12.575  1.5044 -2.5273 -1.0410
 5593TIP3   OH238269   4.125   0.869   3.949 -0.3076  0.6219 -0.2976
 5593TIP3    H138270   4.109   0.778   3.975 -0.7441  0.4972 -0.9779
 5593TIP3    H238271   4.155   0.863   3.858  2.1733  0.9686  0.4018
 5594TIP3   OH238272   2.720   3.613   0.923  0.3809 -0.2819  0.1404
 5594TIP3    H138273   2.661   3.558   0.975  0.8269  0.9079  2.0072
 5594TIP3    H238274   2.799   3.560   0.911 -0.8799 -1.8134 -2.2128
 5595TIP3   OH238275   5.302   6.647  12.916 -0.0920 -0.8239  0.0371
 5595TIP3    H138276   5.298   6.624  13.009  1.3074  1.2206  0.6921
 5595TIP3    H238277   5.212   6.639  12.885 -0.9151  0.0481  2.0312
 5596TIP3   OH238278   0.270   1.443   1.826 -0.0004 -0.5458 -0.1564
 5596TIP3    H138279   0.235   1.446   1.915  0.8318 -0.3407  0.1731
 5596TIP3    H238280   0.270   1.350   1.803 -3.2729 -0.4244 -1.2165
 5597TIP3   OH238281   2.446   6.071   5.084  0.5134  0.1829  0.0089
 5597TIP3    H138282   2.379   6.136   5.103 -1.5234 -2.2002  1.6320
 5597TIP3    H238283   2.430   6.044   4.994  0.3979  0.8471 -0.1686
 5598TIP3   OH238284   6.373   0.329  12.167  0.1264  0.4286 -0.0019
 5598TIP3    H138285   6.308   0.302  12.232 -0.9842 -0.1718 -1.3181
 5598TIP3    H238286   6.401   0.248  12.125  0.9888  0.7875 -0.1443
 5599TIP3   OH238287   2.614   5.656  17.420 -0.4067  0.1996 -0.1778
 5599TIP3    H138288   2.540   5.715  17.434 -0.2753 -0.1226  2.2627
 5599TIP3    H238289   2.609   5.632  17.327 -3.5131 -0.0124 -0.0522
 5600TIP3   OH238290   4.188   1.908   0.689 -0.4049  0.3025  0.5249
 5600TIP3    H138291   4.253   1.924   0.620 -0.3121  1.8996  0.9414
 5600TIP3    H238292   4.236   1.922   0.770 -0.9599  0.1994  0.8726
 5601TIP3   OH238293   5.946   5.485  12.814  0.0213 -0.0989  0.6890
 5601TIP3    H138294   5.900   5.402  12.833  0.2659 -0.5883 -0.7586
 5601TIP3    H238295   5.881   5.553  12.833 -0.3768 -0.6415  1.3356
 5602TIP3   OH238296   3.303   3.580   2.263 -0.0501 -0.4954  0.1013
 5602TIP3    H138297   3.364   3.640   2.307 -0.1770 -0.2282 -0.0826
 5602TIP3    H238298   3.217   3.612   2.286 -0.1304 -1.0986  0.6654
 5603TIP3   OH238299   4.003   0.575  15.100 -0.3494 -0.0554  0.3143
 5603TIP3    H138300   3.968   0.641  15.160 -1.0424 -0.4142  0.3144
 5603TIP3    H238301   4.002   0.494  15.150 -2.6028 -0.7185 -0.7160
 5604TIP3   OH238302   6.115   6.431  13.106  0.2964  0.3888  0.2063
 5604TIP3    H138303   6.023   6.408  13.089  0.7488 -0.6700 -0.9362
 5604TIP3    H238304   6.150   6.355  13.152  1.5622 -0.9398 -2.7403
 5605TIP3   OH238305   4.981   2.549  15.461  0.0039  0.4204  0.1635
 5605TIP3    H138306   4.890   2.519  15.460 -0.5320  1.9800  0.0684
 5605TIP3    H238307   5.026   2.491  15.399 -1.1155  0.2003 -0.4552
 5606TIP3   OH238308   4.272   5.738   6.211 -0.1232  0.1395 -0.3604
 5606TIP3    H138309   4.236   5.759   6.296 -0.8935 -1.4129 -0.2594
 5606TIP3    H238310   4.201   5.754   6.149  0.5142  1.5205 -0.7671
 5607TIP3   OH238311   3.782   0.187   4.298 -0.1106  0.3189  0.1600
 5607TIP3    H138312   3.707   0.228   4.341 -0.1234  0.8416 -0.3419
 5607TIP3    H238313   3.770   0.208   4.205  0.3585 -0.0775  0.0079
 5608TIP3   OH238314   1.721   0.045  12.487 -0.2022 -0.7662 -0.3001
 5608TIP3    H138315   1.757   0.030  12.399  0.6814 -1.0375  0.0978
 5608TIP3    H238316   1.788   0.096  12.532 -0.2601 -1.3660  0.4884
 5609TIP3   OH238317   1.391   3.036   6.090  0.1264 -0.0770 -0.4440
 5609TIP3    H138318   1.317   3.054   6.031 -0.1752  1.2130  0.2792
 5609TIP3    H238319   1.446   3.115   6.083  0.7641 -0.4731  0.0124
 5610TIP3   OH238320   2.042   0.975  12.552 -0.0225 -0.5355  0.2968
 5610TIP3    H138321   2.042   0.880  12.562 -1.0575 -0.8433 -2.0022
 5610TIP3    H238322   2.100   0.991  12.478 -1.2931  0.4205 -0.5435
 5611TIP3   OH238323   1.268   2.752  11.663  0.0716  0.1628 -0.2317
 5611TIP3    H138324   1.357   2.751  11.697  0.5614  0.2856 -1.4790
 5611TIP3    H238325   1.252   2.844  11.641  0.0906 -0.0484 -1.1575
 5612TIP3   OH238326   3.806   5.922   0.559  0.2911  0.2697 -0.1916
 5612TIP3    H138327   3.796   6.015   0.540 -1.0135  0.0201 -0.8502
 5612TIP3    H238328   3.721   5.884   0.539  1.0984 -1.2461 -0.9652
 5613TIP3   OH238329   0.855   1.398   2.990  0.0143  0.4481  0.2566
 5613TIP3    H138330   0.845   1.351   3.073  0.2538  2.2625  1.3589
 5613TIP3    H238331   0.949   1.399   2.974 -0.1156 -1.5671 -1.1153
 5614TIP3   OH238332   3.160   2.288   1.172  0.1476 -0.0344 -0.0035
 5614TIP3    H138333   3.219   2.239   1.228 -0.5647 -0.9983 -0.0757
 5614TIP3    H238334   3.209   2.367   1.148  0.9352 -0.2300  0.9144
 5615TIP3   OH238335   0.578   0.170   3.142 -0.0987 -0.0508  0.6783
 5615TIP3    H138336   0.656   0.223   3.158 -0.2522  0.0768  1.0222
 5615TIP3    H238337   0.528   0.177   3.224 -0.8041  0.4459  0.2164
 5616TIP3   OH238338   2.262   3.519  13.754 -0.1220 -0.0825 -0.0189
 5616TIP3    H138339   2.255   3.612  13.775  2.0884  0.1049  0.1866
 5616TIP3    H238340   2.286   3.477  13.836 -1.4654 -0.9061 -0.0319
 5617TIP3   OH238341   0.644   3.309  12.834 -0.7975 -0.1601  0.4318
 5617TIP3    H138342   0.703   3.352  12.772 -1.8298  0.1999 -0.3124
 5617TIP3    H238343   0.605   3.237  12.786 -3.3560  1.4828 -0.1396
 5618TIP3   OH238344   2.657   2.559   5.053 -0.3703  0.1940 -0.6338
 5618TIP3    H138345   2.712   2.497   5.004 -1.8359  0.0323 -2.1557
 5618TIP3    H238346   2.718   2.625   5.086  0.6702  0.4480 -2.9085
 5619TIP3   OH238347   2.924   5.463   1.714 -0.8659  0.4083  0.8288
 5619TIP3    H138348   2.891   5.551   1.731 -0.7206  0.2579  1.9458
 5619TIP3    H238349   2.976   5.441   1.791 -0.0768 -0.2704  0.1260
 5620TIP3   OH238350   3.775   3.731  11.168  0.0931 -0.0131 -0.5122
 5620TIP3    H138351   3.822   3.747  11.087  0.1110 -2.0412 -0.9598
 5620TIP3    H238352   3.778   3.635  11.179 -0.6273  0.1412  1.4331
 5621TIP3   OH238353   4.622   5.337   1.359 -0.1112  0.2181 -0.1957
 5621TIP3    H138354   4.596   5.251   1.326 -1.1592  0.1548  0.7186
 5621TIP3    H238355   4.716   5.341   1.343 -0.0599 -1.0574 -0.3550
 5622TIP3   OH238356   6.029   0.242   5.745  0.3206 -0.1549 -0.3656
 5622TIP3    H138357   6.024   0.181   5.672  1.9314 -0.9709  0.1519
 5622TIP3    H238358   5.947   0.229   5.793 -1.2576  1.1595 -2.5412
 5623TIP3   OH238359   6.650   0.065  13.924  0.6015  0.0038  0.1440
 5623TIP3    H138360   6.660   0.104  14.011  3.1050  0.5105 -0.2884
 5623TIP3    H238361   6.608  -0.019  13.940 -0.6957  0.8687  1.6093
 5624TIP3   OH238362   3.015   4.062   3.127  0.6424 -0.0931 -0.0766
 5624TIP3    H138363   2.970   4.030   3.049 -0.7014  0.9937  0.2086
 5624TIP3    H238364   3.085   3.999   3.142 -1.5988 -2.6430  0.2549
 5625TIP3   OH238365   3.819   2.609  14.762 -0.2816  0.5456  0.1337
 5625TIP3    H138366   3.820   2.696  14.722 -0.2496  0.5274  0.0947
 5625TIP3    H238367   3.745   2.611  14.821  1.0148  1.3483  1.8192
 5626TIP3   OH238368   4.878   2.747  13.520 -0.3215  0.4245  0.3153
 5626TIP3    H138369   4.850   2.785  13.436  1.0441  1.0442  0.1132
 5626TIP3    H238370   4.885   2.653  13.504 -3.3587  0.0282  0.7057
 5627TIP3   OH238371   2.299   2.291  16.834 -0.5821  0.3632  0.5752
 5627TIP3    H138372   2.335   2.209  16.799  2.1884  1.8707 -0.4540
 5627TIP3    H238373   2.307   2.282  16.929 -0.6511 -0.6987  0.4942
 5628TIP3   OH238374   2.432   3.934   2.845  0.4027 -0.2725  0.4119
 5628TIP3    H138375   2.357   3.992   2.857  1.0198  0.8241 -0.7948
 5628TIP3    H238376   2.426   3.905   2.754  0.0818 -2.1779  1.0018
 5629TIP3   OH238377   6.423   0.993   4.847  0.2487  0.7053  0.4417
 5629TIP3    H138378   6.463   1.040   4.774 -0.8840 -1.8362 -2.0034
 5629TIP3    H238379   6.468   0.909   4.850 -0.4178  0.3572  2.0784
 5630TIP3   OH238380   1.409   5.726  14.321 -0.3029 -0.3201 -0.3037
 5630TIP3    H138381   1.333   5.706  14.266 -1.0977  0.5619  0.4292
 5630TIP3    H238382   1.372   5.772  14.396  0.7421 -1.6290  1.0581
 5631TIP3   OH238383   4.062   1.047   0.587 -0.0228  0.0844 -0.4579
 5631TIP3    H138384   4.148   1.064   0.625 -0.3302 -0.5903  0.6041
 5631TIP3    H238385   4.051   0.952   0.593 -1.7715  0.3300  1.6452
 5632TIP3   OH238386   5.684   5.257  11.748 -0.4083  0.0658 -0.2458
 5632TIP3    H138387   5.640   5.342  11.742  0.4363  0.6170  1.0231
 5632TIP3    H238388   5.766   5.269  11.700 -0.0397  0.1502  0.3909
 5633TIP3   OH238389   5.570   5.889  10.842  0.1380  0.0839  0.5387
 5633TIP3    H138390   5.511   5.937  10.784  0.0225 -1.5298 -0.7619
 5633TIP3    H238391   5.514   5.823  10.884  1.1160 -2.2473 -1.5993
 5634TIP3   OH238392   2.013   0.459  13.268  0.4084  0.4800 -0.5329
 5634TIP3    H138393   1.945   0.394  13.247  0.3157  0.5612 -0.4877
 5634TIP3    H238394   1.964   0.536  13.297  0.5426  0.0359  0.9572
 5635TIP3   OH238395   3.148   5.514   4.171  0.4253  0.0454 -0.1255
 5635TIP3    H138396   3.213   5.480   4.233  0.5621  0.1183 -0.2294
 5635TIP3    H238397   3.064   5.502   4.216  0.4178 -0.9062 -0.3673
 5636TIP3   OH238398   4.418   0.370  12.496 -0.2041 -0.1689  0.4576
 5636TIP3    H138399   4.388   0.334  12.579  1.3848 -1.7212  0.4018
 5636TIP3    H238400   4.341   0.414  12.460 -0.7486  1.2009  3.0632
 5637TIP3   OH238401   2.758   0.572  13.833  0.1498 -0.0441  0.3224
 5637TIP3    H138402   2.822   0.611  13.774 -2.0743  2.0798 -0.8632
 5637TIP3    H238403   2.811   0.522  13.896  2.7143 -1.1296 -2.4736
 5638TIP3   OH238404   3.729   6.011   1.112 -0.3878 -0.3226 -0.1153
 5638TIP3    H138405   3.748   5.939   1.052 -1.4229  1.0088 -2.1590
 5638TIP3    H238406   3.810   6.061   1.116 -0.0021 -0.9723  0.4495
 5639TIP3   OH238407   0.924   1.902  15.733  0.3546  0.2305 -0.1128
 5639TIP3    H138408   0.930   1.808  15.716 -1.2314 -0.1089  0.9886
 5639TIP3    H238409   0.853   1.933  15.677  0.9710  0.8184 -0.5880
 5640TIP3   OH238410   4.276   1.074  15.325  0.1457 -0.1799  0.3599
 5640TIP3    H138411   4.247   1.165  15.328 -1.1947 -0.5106 -1.2542
 5640TIP3    H238412   4.251   1.038  15.411  1.9634  1.2645  1.5826
 5641TIP3   OH238413   3.848   5.137  14.859  0.2004 -0.4696 -0.4432
 5641TIP3    H138414   3.865   5.071  14.792 -1.4064 -0.4589 -0.9071
 5641TIP3    H238415   3.888   5.217  14.824  0.4390 -0.7421 -0.8012
 5642TIP3   OH238416   1.343   5.035  16.937  0.4282 -0.1642 -0.3990
 5642TIP3    H138417   1.428   5.079  16.933 -0.8548  2.5275 -0.6654
 5642TIP3    H238418   1.339   5.000  17.025 -0.0071  4.0109  1.4996
 5643TIP3   OH238419   4.018   4.715  11.495  0.0983  0.7257  0.1439
 5643TIP3    H138420   3.975   4.797  11.516 -0.7860  0.2068  0.4286
 5643TIP3    H238421   3.974   4.650  11.550  1.6956  0.2654  0.9469
 5644TIP3   OH238422   0.068   2.282   2.622 -0.5407 -0.4487 -0.5833
 5644TIP3    H138423   0.107   2.214   2.567  0.0369  1.4418 -2.6504
 5644TIP3    H238424   0.075   2.247   2.711  1.1923 -2.3959 -1.3857
 5645TIP3   OH238425   3.043   0.767  17.270 -0.0497  0.5766 -0.7177
 5645TIP3    H138426   3.131   0.793  17.295  0.1057  0.4725 -1.1469
 5645TIP3    H238427   3.035   0.676  17.298  0.3070  0.2971 -1.5038
 5646TIP3   OH238428   5.100   3.516   5.744 -0.1078 -0.1892 -0.2850
 5646TIP3    H138429   5.078   3.493   5.653  0.0292  0.6719 -0.5431
 5646TIP3    H238430   5.017   3.548   5.780 -0.0930 -0.2494 -0.1997
 5647TIP3   OH238431   0.761   6.031   2.448 -0.5582  0.3191 -0.0195
 5647TIP3    H138432   0.712   6.109   2.423 -0.2736  0.2698 -0.7364
 5647TIP3    H238433   0.853   6.056   2.442 -0.3401 -0.7511 -2.7433
 5648TIP3   OH238434   2.730   0.600  14.173 -0.5763  0.0016  0.3083
 5648TIP3    H138435   2.674   0.524  14.192 -0.5252  0.0309  0.5814
 5648TIP3    H238436   2.722   0.655  14.251  1.1515 -0.7882  1.1073
 5649TIP3   OH238437   4.233   1.813  12.119  0.1308  0.0138 -0.2642
 5649TIP3    H138438   4.292   1.752  12.162 -0.4473 -0.5881 -0.3106
 5649TIP3    H238439   4.150   1.766  12.112 -0.2096  0.6538 -0.6710
 5650TIP3   OH238440   2.508   4.611   3.724 -0.9129  0.6107 -0.3762
 5650TIP3    H138441   2.525   4.534   3.778 -0.4693 -0.4545 -1.9503
 5650TIP3    H238442   2.577   4.673   3.748 -1.2621  0.5285  0.8911
 5651TIP3   OH238443   1.901   1.415  11.591 -0.0071  0.2090 -0.3990
 5651TIP3    H138444   1.973   1.467  11.626  1.3636 -1.5895 -0.4042
 5651TIP3    H238445   1.897   1.338  11.649 -0.8955 -0.4669 -1.3172
 5652TIP3   OH238446   3.900   0.718  13.770 -0.4491 -0.9744 -0.8504
 5652TIP3    H138447   3.913   0.624  13.773 -0.3365 -1.0066 -1.8950
 5652TIP3    H238448   3.987   0.755  13.759 -0.4087 -0.6916  0.3077
 5653TIP3   OH238449   5.649   0.631  12.495  0.2605 -0.2589 -0.5352
 5653TIP3    H138450   5.592   0.643  12.570  0.4583 -1.2039 -0.2183
 5653TIP3    H238451   5.671   0.537  12.496  0.7886 -0.1581 -1.3843
 5654TIP3   OH238452   1.184   4.141  12.011  0.9299  0.3300  0.0551
 5654TIP3    H138453   1.141   4.104  12.088  1.7634 -0.6820  0.0530
 5654TIP3    H238454   1.119   4.202  11.975 -0.2250 -0.6266  0.4437
 5655TIP3   OH238455   0.632   4.356   5.297  0.1760  0.3914  0.6645
 5655TIP3    H138456   0.658   4.400   5.216 -1.5905  1.8734  0.8491
 5655TIP3    H238457   0.536   4.359   5.296  0.0297 -1.9866  1.5331
 5656TIP3   OH238458   1.617   1.543  11.067 -0.1984 -0.1691  0.2511
 5656TIP3    H138459   1.674   1.540  11.144  1.3592 -2.5181 -0.8566
 5656TIP3    H238460   1.659   1.605  11.008  0.1189 -0.3768  0.2529
 5657TIP3   OH238461   0.116   5.136   6.181  0.1423 -0.1929 -0.2489
 5657TIP3    H138462   0.041   5.173   6.228  0.6938 -0.7487  1.1467
 5657TIP3    H238463   0.081   5.058   6.137  0.2663 -1.7784  2.2282
 5658TIP3   OH238464   2.984   0.405  11.609 -0.6242  0.4244 -0.6491
 5658TIP3    H138465   2.943   0.476  11.558 -1.4355  0.5671  0.1844
 5658TIP3    H238466   2.939   0.326  11.579 -1.4391  0.5651  0.1690
 5659TIP3   OH238467   0.859   1.244   1.134 -0.3328 -0.2893 -0.2076
 5659TIP3    H138468   0.944   1.288   1.129 -1.0088  1.0410 -0.5275
 5659TIP3    H238469   0.857   1.190   1.055  0.6923 -1.2672  0.4089
 5660TIP3   OH238470   6.646   4.352  15.842 -0.1191  0.7127  0.2685
 5660TIP3    H138471   6.643   4.431  15.896  2.1829  0.9027  0.1953
 5660TIP3    H238472   6.737   4.345  15.814 -0.2697 -1.9458  0.2122
 5661TIP3   OH238473   2.152   1.884   5.459  0.0469  0.1930 -0.3987
 5661TIP3    H138474   2.237   1.921   5.436  1.2060 -1.4465  0.9672
 5661TIP3    H238475   2.137   1.913   5.549  1.5171 -3.2131  1.1435
 5662TIP3   OH238476   3.437   0.080   1.218 -0.4392  0.4619 -0.0938
 5662TIP3    H138477   3.423   0.167   1.257  1.3419  1.0275 -0.6409
 5662TIP3    H238478   3.376   0.077   1.144 -0.9673  0.9787  0.3056
 5663TIP3   OH238479   0.216   5.769  12.621  0.3793  0.7071  0.0574
 5663TIP3    H138480   0.150   5.702  12.637  2.5696 -1.1455  2.2400
 5663TIP3    H238481   0.280   5.726  12.564  0.8903  1.5898 -0.0508
 5664TIP3   OH238482   1.238   3.880  16.913  0.5511  0.1620 -0.3309
 5664TIP3    H138483   1.196   3.926  16.840  0.3651 -0.5363 -0.6700
 5664TIP3    H238484   1.191   3.910  16.990  0.7145  0.8669 -0.5027
 5665TIP3   OH238485   1.478   4.540  11.378  0.0914  0.5290 -0.6171
 5665TIP3    H138486   1.454   4.625  11.414  0.4120  0.5141 -0.3633
 5665TIP3    H238487   1.554   4.557  11.323  0.7454  0.2741  0.1743
 5666TIP3   OH238488   4.758   5.521  13.415 -0.5983  0.3851  0.8316
 5666TIP3    H138489   4.827   5.538  13.479  0.9178  1.7953 -1.0382
 5666TIP3    H238490   4.697   5.594  13.426 -0.2037  0.7678  0.5350
 5667TIP3   OH238491   4.717   1.228   6.263 -0.1253 -0.4164 -0.3615
 5667TIP3    H138492   4.740   1.141   6.296  0.8489 -0.2777 -0.6610
 5667TIP3    H238493   4.774   1.288   6.310 -1.4474  0.1857  0.5500
 5668TIP3   OH238494   4.173   4.290   5.921  0.4375  0.5626  0.1603
 5668TIP3    H138495   4.229   4.249   5.855  2.2101  2.8627  0.1084
 5668TIP3    H238496   4.214   4.268   6.005 -0.7251 -0.7744  0.4064
 5669TIP3   OH238497   5.106   5.362  10.675 -0.5641 -0.2492 -0.3818
 5669TIP3    H138498   5.149   5.448  10.673  0.0296 -0.3679  2.7354
 5669TIP3    H238499   5.015   5.382  10.698 -0.2898 -0.4551  0.9348
 5670TIP3   OH238500   5.767   5.925   1.359 -0.2043 -0.0697  0.3525
 5670TIP3    H138501   5.777   5.877   1.278  0.7879 -0.3932  0.6553
 5670TIP3    H238502   5.676   5.956   1.358 -0.3367 -0.4738 -0.6428
 5671TIP3   OH238503   0.207   6.610   5.353 -0.0840  0.5058  0.3042
 5671TIP3    H138504   0.117   6.602   5.386  0.2015 -2.0470  0.6956
 5671TIP3    H238505   0.201   6.576   5.263  0.4440  0.4532  0.2886
 5672TIP3   OH238506   5.444   2.545  16.902  0.2931 -0.1875  0.0069
 5672TIP3    H138507   5.491   2.464  16.882 -0.6688 -0.5665 -0.7868
 5672TIP3    H238508   5.440   2.592  16.819  1.0866  0.8292  0.5155
 5673TIP3   OH238509   5.764   2.110  13.140  1.2060  0.2362 -0.4739
 5673TIP3    H138510   5.765   2.165  13.218  1.0287 -0.4088 -0.0037
 5673TIP3    H238511   5.834   2.047  13.154  0.4097 -0.6356 -0.2585
 5674TIP3   OH238512   2.001   1.869  14.963  0.3710 -0.4859  0.3099
 5674TIP3    H138513   2.003   1.820  15.046  2.7433  0.2356  0.7500
 5674TIP3    H238514   2.093   1.880  14.940 -0.1429  1.9654 -0.8471
 5675TIP3   OH238515   1.318   5.126  15.700 -0.7101 -0.2144 -0.1312
 5675TIP3    H138516   1.313   5.214  15.738 -1.9554 -0.7298  1.0043
 5675TIP3    H238517   1.411   5.113  15.681 -0.6456  1.8838 -1.7144
 5676TIP3   OH238518   3.247   2.977  14.549 -0.3022 -0.5468 -0.3555
 5676TIP3    H138519   3.208   2.972  14.637  0.4681  0.9864  0.0939
 5676TIP3    H238520   3.341   2.976  14.564 -0.1453  1.0606 -1.0432
 5677TIP3   OH238521   3.177   6.741  11.603  0.4954 -0.5295 -0.3010
 5677TIP3    H138522   3.260   6.760  11.647 -0.9365  1.3027  1.8410
 5677TIP3    H238523   3.162   6.817  11.547 -0.5661  0.0386  0.7217
 5678TIP3   OH238524   2.941   0.142  12.522  0.8359 -0.0841  0.0868
 5678TIP3    H138525   2.926   0.056  12.560  1.1583  0.1845  0.8365
 5678TIP3    H238526   2.888   0.142  12.442 -0.1033 -0.5509  0.6899
 5679TIP3   OH238527   2.406   6.356   2.113 -0.5146 -0.0674  0.2697
 5679TIP3    H138528   2.494   6.393   2.119 -0.8001  0.4817  1.2015
 5679TIP3    H238529   2.415   6.267   2.146 -0.5002  0.3314  1.3750
 5680TIP3   OH238530   4.783   5.183   4.509 -0.0299  0.7107 -0.4011
 5680TIP3    H138531   4.712   5.142   4.461 -1.1205  0.9386  0.9574
 5680TIP3    H238532   4.746   5.204   4.595  1.7172  0.6633  0.4260
 5681TIP3   OH238533   0.500   5.907  12.592  0.1086 -0.1640  0.3184
 5681TIP3    H138534   0.467   5.865  12.513  0.3243  3.2187 -1.7669
 5681TIP3    H238535   0.595   5.895  12.587 -0.0401 -2.9362  2.0542
 5682TIP3   OH238536   2.764   5.729   0.444 -0.3389 -0.4001 -0.4276
 5682TIP3    H138537   2.701   5.710   0.375 -0.0749 -0.3056 -0.6979
 5682TIP3    H238538   2.785   5.822   0.433 -1.6244  0.0734  0.8955
 5683TIP3   OH238539   1.725   1.953  16.707  0.1689 -0.0566  0.0186
 5683TIP3    H138540   1.633   1.933  16.724  0.6373 -1.4640  1.0819
 5683TIP3    H238541   1.725   2.045  16.678 -1.4882  0.1598  0.6144
 5684TIP3   OH238542   0.596   0.807   2.162 -0.1828  0.1333  0.5734
 5684TIP3    H138543   0.650   0.848   2.094 -0.7900 -2.0982 -1.4231
 5684TIP3    H238544   0.658   0.758   2.216  0.1024  0.1095  0.2295
 5685TIP3   OH238545   0.445   1.194  17.313  0.7296  0.2646 -0.0015
 5685TIP3    H138546   0.373   1.170  17.371  1.1584 -0.0432  0.4082
 5685TIP3    H238547   0.465   1.285  17.335 -1.0235  1.1230 -1.6879
 5686TIP3   OH238548   5.064   1.857   1.834 -0.0729  0.6966  1.0051
 5686TIP3    H138549   5.104   1.862   1.747 -0.0232  0.0892  0.9886
 5686TIP3    H238550   5.089   1.939   1.877  0.0229  0.9341  0.4986
 5687TIP3   OH238551   4.839   2.084   2.417 -0.1686  0.1992 -0.2257
 5687TIP3    H138552   4.780   2.087   2.492 -0.8930  0.3610 -0.7930
 5687TIP3    H238553   4.918   2.129   2.447 -0.2284 -0.2310  0.6183
 5688TIP3   OH238554   4.695   2.280  13.934  0.5075 -0.2839  0.9153
 5688TIP3    H138555   4.646   2.232  13.868 -1.0479 -0.8116  2.3857
 5688TIP3    H238556   4.756   2.216  13.970  0.0644 -0.5335  1.2436
 5689TIP3   OH238557   3.489   6.309   3.729  0.5347  0.4369  0.0762
 5689TIP3    H138558   3.483   6.379   3.665  1.6896  1.0187  0.5711
 5689TIP3    H238559   3.465   6.350   3.812  0.6513  0.1080  0.2743
 5690TIP3   OH238560   0.541   1.661  15.118  0.3333 -0.1100 -0.3547
 5690TIP3    H138561   0.626   1.703  15.131  0.5864 -1.2032  1.9151
 5690TIP3    H238562   0.553   1.606  15.040  1.5344  0.1776 -0.3849
 5691TIP3   OH238563   6.686   6.075  13.744 -0.3288  0.5466 -0.1652
 5691TIP3    H138564   6.646   6.057  13.659  0.7474 -1.0750 -0.3808
 5691TIP3    H238565   6.701   5.988  13.782  1.3707  1.1418  0.6369
 5692TIP3   OH238566   3.759   6.336   1.089 -0.0621 -0.3269  0.1942
 5692TIP3    H138567   3.845   6.295   1.079  0.3361  0.4852  0.1920
 5692TIP3    H238568   3.718   6.289   1.161  0.4689 -0.5841  0.3361
 5693TIP3   OH238569   0.555   1.770  14.516 -0.2868 -0.2517  0.0660
 5693TIP3    H138570   0.485   1.834  14.528  1.6353  2.1737 -0.6413
 5693TIP3    H238571   0.552   1.716  14.594 -2.1345  0.5849  0.6256
 5694TIP3   OH238572   6.245   1.688   2.139 -0.3846  0.0872  0.1054
 5694TIP3    H138573   6.309   1.629   2.099 -0.1003  0.7005 -0.3455
 5694TIP3    H238574   6.163   1.638   2.139 -0.5855  0.3453 -1.9460
 5695TIP3   OH238575   4.939   6.287  17.158  0.7593  0.1666 -0.3781
 5695TIP3    H138576   5.005   6.279  17.089  1.5123  0.4877  0.2868
 5695TIP3    H238577   4.973   6.356  17.216  1.2387 -1.5479  1.4847
 5696TIP3   OH238578   5.766   6.280  12.061 -0.5487  0.0514  0.2606
 5696TIP3    H138579   5.735   6.298  12.150 -1.5651 -1.6104  0.2650
 5696TIP3    H238580   5.855   6.316  12.060 -0.3797 -0.2286  2.0638
 5697TIP3   OH238581   4.827   6.197  11.965 -0.1036  0.0702 -0.0368
 5697TIP3    H138582   4.784   6.171  12.047  1.0010  2.3382  1.3800
 5697TIP3    H238583   4.804   6.289  11.955 -0.9352 -0.3514 -2.8429
 5698TIP3   OH238584   0.942   4.119   2.796  0.6150  0.1129 -0.2594
 5698TIP3    H138585   0.966   4.194   2.741 -3.8815  1.3584 -0.9272
 5698TIP3    H238586   0.867   4.080   2.751 -0.3532 -1.6806  2.6619
 5699TIP3   OH238587   1.328   1.229   5.514 -0.1261 -0.3403  0.7413
 5699TIP3    H138588   1.345   1.273   5.597  2.5357  1.0057 -0.3571
 5699TIP3    H238589   1.386   1.153   5.515 -0.7016 -0.7864  0.4532
 5700TIP3   OH238590   4.026   6.106   4.789  0.5124  0.5963  0.6693
 5700TIP3    H138591   4.076   6.031   4.756  0.3237  1.6057 -2.2501
 5700TIP3    H238592   4.062   6.122   4.876  0.9125 -2.5129  1.1783
 5701TIP3   OH238593   3.977   1.262  14.138  0.2294 -0.2914 -0.0931
 5701TIP3    H138594   3.970   1.335  14.199  2.7831 -1.4659  1.7710
 5701TIP3    H238595   3.945   1.297  14.055  0.3287  2.5925  0.9864
 5702TIP3   OH238596   1.904   2.606  14.146  0.1026 -0.5008 -0.1991
 5702TIP3    H138597   1.886   2.692  14.184  0.1979 -0.6647  0.2252
 5702TIP3    H238598   1.995   2.611  14.117  0.2755 -0.6244  0.3026
 5703TIP3   OH238599   6.253   0.637   1.957  0.3193  0.3633 -0.1209
 5703TIP3    H138600   6.308   0.568   1.995 -0.6853 -0.5347 -0.2597
 5703TIP3    H238601   6.217   0.598   1.877  0.8404  1.5485 -0.9730
 5704TIP3   OH238602   0.489   5.678  17.243  0.5248  0.4386  0.1503
 5704TIP3    H138603   0.529   5.593  17.228  0.1038  0.0203  1.2959
 5704TIP3    H238604   0.458   5.706  17.157  0.1073 -0.8573 -0.1352
 5705TIP3   OH238605   4.412   1.473  12.315 -0.3618 -0.7274  0.5435
 5705TIP3    H138606   4.385   1.475  12.223 -1.9364 -1.9186  0.9358
 5705TIP3    H238607   4.502   1.440  12.313 -0.2228 -0.3180 -0.5849
 5706TIP3   OH238608   5.078   5.393   2.721  0.3323 -0.3424  0.0126
 5706TIP3    H138609   5.078   5.489   2.717 -0.1608 -0.3678 -0.8462
 5706TIP3    H238610   4.996   5.370   2.764  0.8765 -0.3632  1.0635
 5707TIP3   OH238611   2.747   1.394  14.979 -0.4815 -0.0484  0.4756
 5707TIP3    H138612   2.734   1.362  15.068 -0.9616  1.1660  0.8630
 5707TIP3    H238613   2.667   1.442  14.958  0.4127  1.4142  0.1722
 5708TIP3   OH238614   0.530   6.753   5.150 -0.3266  0.4647  0.3592
 5708TIP3    H138615   0.513   6.797   5.067  0.5621  0.4046  0.1438
 5708TIP3    H238616   0.589   6.811   5.197 -0.5383  0.3258  0.8045
 5709TIP3   OH238617   0.089   5.317   0.074 -0.8905  0.4510 -0.1469
 5709TIP3    H138618   0.028   5.377   0.116 -0.2752  1.1522 -0.2499
 5709TIP3    H238619   0.114   5.256   0.144 -2.6313 -0.6331 -0.3805
 5710TIP3   OH238620   3.366   4.033   6.519  0.2281 -0.4506  1.2123
 5710TIP3    H138621   3.305   3.974   6.476 -0.2164  0.9039 -0.1020
 5710TIP3    H238622   3.453   3.999   6.497 -0.0258 -1.1824  1.3338
 5711TIP3   OH238623   4.087   2.122   6.485 -0.3569  0.3306 -0.2052
 5711TIP3    H138624   4.171   2.114   6.529 -0.7213  0.1254  0.4782
 5711TIP3    H238625   4.035   2.179   6.543 -0.4173  1.1416 -1.0378
 5712TIP3   OH238626   5.684   2.723  14.587 -0.8295 -0.3287 -0.1808
 5712TIP3    H138627   5.608   2.676  14.552 -1.5266 -0.2600  1.1908
 5712TIP3    H238628   5.721   2.768  14.510 -0.1373 -3.0481 -1.5487
 5713TIP3   OH238629   6.710   5.696  13.173  0.3454  0.2290 -0.1773
 5713TIP3    H138630   6.626   5.694  13.220  0.6824  0.3605  0.4456
 5713TIP3    H238631   6.716   5.611  13.130  0.0954  0.0525  0.1362
 5714TIP3   OH238632   3.788   2.150  17.254 -0.1357 -0.4140  0.5529
 5714TIP3    H138633   3.751   2.090  17.318  0.0708 -0.6161  0.4842
 5714TIP3    H238634   3.881   2.155  17.276 -0.4191  1.0764  1.5041
 5715TIP3   OH238635   2.050   0.720  11.070  0.4968  0.3434 -0.0649
 5715TIP3    H138636   1.955   0.728  11.074  0.6563  2.0883  2.4828
 5715TIP3    H238637   2.066   0.625  11.075 -1.1066  0.1041  1.5959
 5716TIP3   OH238638   0.309   3.686   5.471 -0.7506 -0.0194  0.4735
 5716TIP3    H138639   0.328   3.756   5.408 -0.4470 -0.3558  0.1885
 5716TIP3    H238640   0.378   3.622   5.457  0.2960  0.6293  2.2859
 5717TIP3   OH238641   2.028   5.332  11.459 -0.1081 -0.0332 -0.5220
 5717TIP3    H138642   2.043   5.239  11.443 -0.2927 -1.2561  4.6440
 5717TIP3    H238643   2.113   5.374  11.440  0.5041 -1.5127 -1.2055
 5718TIP3   OH238644   4.827   4.066  14.501 -0.0911 -0.7051  0.1168
 5718TIP3    H138645   4.793   4.143  14.455  1.2502  0.1019  0.4185
 5718TIP3    H238646   4.922   4.071  14.489  0.0267 -2.3469  0.1210
 5719TIP3   OH238647   1.073   3.377   2.764 -0.4842 -0.6584  0.0246
 5719TIP3    H138648   1.022   3.300   2.737 -0.6183 -0.8278  0.7366
 5719TIP3    H238649   1.069   3.375   2.859 -0.6835  0.3727  0.0419
 5720TIP3   OH238650   3.935   1.844  15.354  0.4883 -0.3014 -0.0969
 5720TIP3    H138651   3.974   1.759  15.337  0.7175 -0.4584  1.1143
 5720TIP3    H238652   3.848   1.840  15.315  1.0521 -0.5286 -1.3889
 5721TIP3   OH238653   6.261   4.134   6.037  0.1071 -0.3820  0.1577
 5721TIP3    H138654   6.325   4.132   6.108  0.9941  0.2488 -0.5916
 5721TIP3    H238655   6.214   4.217   6.049  0.4976 -0.1056 -0.1779
 5722TIP3   OH238656   1.051   2.129   4.472 -0.0902  0.1938 -0.5260
 5722TIP3    H138657   1.027   2.194   4.406  1.2604 -0.0517 -1.2905
 5722TIP3    H238658   0.969   2.085   4.493 -0.6157  0.5498 -1.7410
 5723TIP3   OH238659   3.965   5.483  12.146 -0.4196  0.8909  0.5481
 5723TIP3    H138660   3.985   5.414  12.082  2.0070  0.5313  1.5934
 5723TIP3    H238661   3.891   5.449  12.195  0.9878 -1.2682  1.3285
 5724TIP3   OH238662   2.700   4.639   0.647 -0.6836  0.0642 -0.2111
 5724TIP3    H138663   2.629   4.697   0.675 -0.2173 -0.3064  1.9448
 5724TIP3    H238664   2.721   4.667   0.558 -1.7119  1.9785  0.1051
 5725TIP3   OH238665   3.667   5.337   3.478 -0.2351 -0.2271  0.1087
 5725TIP3    H138666   3.625   5.348   3.564  0.7993 -0.3938  0.6474
 5725TIP3    H238667   3.758   5.363   3.492 -0.2898  0.7486 -1.2013
 5726TIP3   OH238668   3.213   6.732   4.789  0.1401 -0.1450 -0.1587
 5726TIP3    H138669   3.308   6.733   4.776  0.0977 -2.5119 -1.3485
 5726TIP3    H238670   3.201   6.697   4.877  0.3519  0.8204  0.2641
 5727TIP3   OH238671   5.420   3.563   0.704 -0.1834  0.8867  0.3197
 5727TIP3    H138672   5.399   3.534   0.793 -1.0052 -0.2487 -0.2205
 5727TIP3    H238673   5.350   3.528   0.650  1.4239 -0.3230 -1.1112
 5728TIP3   OH238674   4.449   2.478   2.304 -0.0673 -0.0583  0.4934
 5728TIP3    H138675   4.462   2.385   2.324  0.1661  0.0791  1.0086
 5728TIP3    H238676   4.505   2.524   2.367 -0.4374  0.4432  0.4641
 5729TIP3   OH238677   0.992   1.354  12.800  0.1638  0.1841 -0.0550
 5729TIP3    H138678   1.087   1.359  12.798  0.1740  0.0277  0.0115
 5729TIP3    H238679   0.970   1.279  12.744  0.1934 -1.0481  1.5201
 5730TIP3   OH238680   5.028   0.498  12.577  0.0449  0.6505  0.4812
 5730TIP3    H138681   5.040   0.404  12.588 -1.7073  0.4214  0.6665
 5730TIP3    H238682   5.112   0.529  12.541  0.3443 -1.1153 -0.4361
 5731TIP3   OH238683   3.521   2.220  11.245  0.1684 -0.8450  0.1122
 5731TIP3    H138684   3.474   2.265  11.175  0.5768  0.6224  0.7471
 5731TIP3    H238685   3.452   2.194  11.307  0.0369  0.0288  0.3451
 5732TIP3   OH238686   4.218   5.376   1.520  1.1129 -0.2751  0.8963
 5732TIP3    H138687   4.225   5.444   1.453  0.8833 -1.8812 -0.8444
 5732TIP3    H238688   4.143   5.403   1.574  1.7893  1.4537  1.0540
 5733TIP3   OH238689   2.843   1.503   3.266  0.6432 -0.9268  0.6210
 5733TIP3    H138690   2.807   1.585   3.232  0.5194 -0.6358  1.4359
 5733TIP3    H238691   2.767   1.457   3.301  0.9790 -0.4767  2.0064
 5734TIP3   OH238692   4.081   5.846   6.044 -0.2129 -0.1572 -0.0456
 5734TIP3    H138693   4.022   5.817   5.975  1.8447 -0.2545 -1.8682
 5734TIP3    H238694   4.139   5.909   6.001  0.6969  0.3261  1.7762
 5735TIP3   OH238695   5.051   3.446   6.706 -0.5575 -0.0647 -0.3136
 5735TIP3    H138696   5.090   3.513   6.650  1.3107 -0.5614  0.3214
 5735TIP3    H238697   4.974   3.415   6.657 -0.6881  1.5698 -1.2147
 5736TIP3   OH238698   0.915   5.122  13.162 -0.5088 -0.0816 -0.2860
 5736TIP3    H138699   0.983   5.178  13.123 -1.0807  0.4901 -0.4793
 5736TIP3    H238700   0.933   5.124  13.256  1.4021 -2.1555 -0.5146
 5737TIP3   OH238701   1.281   6.520  15.255 -0.4231 -0.6756 -0.0894
 5737TIP3    H138702   1.341   6.455  15.292 -1.3075 -1.3468  0.1983
 5737TIP3    H238703   1.291   6.510  15.160  0.4455 -0.2764 -0.0503
 5738TIP3   OH238704   0.389   1.164   0.844 -0.0956 -0.5401 -0.2610
 5738TIP3    H138705   0.354   1.252   0.858 -1.0138 -1.3386  3.3887
 5738TIP3    H238706   0.478   1.167   0.880 -0.3231 -1.1959  0.3882
 5739TIP3   OH238707   3.204   0.102   3.121  0.2314  0.5393 -0.3609
 5739TIP3    H138708   3.296   0.095   3.098 -0.1020 -0.1720 -1.5609
 5739TIP3    H238709   3.191   0.195   3.142  1.8267  0.1862  2.6969
 5740TIP3   OH238710   2.338   3.278  15.879  0.9678  0.1038  0.1129
 5740TIP3    H138711   2.413   3.337  15.866  0.1872  1.2076  0.5170
 5740TIP3    H238712   2.375   3.203  15.926  2.3244 -0.5575 -1.8421
 5741TIP3   OH238713   4.503   0.332  16.075 -0.4098  0.3893  0.2049
 5741TIP3    H138714   4.471   0.320  16.164  2.1607 -2.2149  0.9644
 5741TIP3    H238715   4.598   0.319  16.082  0.2535  2.7956 -2.5501
 5742TIP3   OH238716   1.252   0.597   5.107 -0.2806 -0.0066 -0.0948
 5742TIP3    H138717   1.237   0.656   5.033  1.7481  1.9290  0.9150
 5742TIP3    H238718   1.325   0.637   5.155  0.1632 -2.5545  1.5370
 5743TIP3   OH238719   2.955   2.076  15.317 -0.3879  0.4725 -0.2724
 5743TIP3    H138720   2.932   1.984  15.303 -0.6902  0.4010  0.6634
 5743TIP3    H238721   3.027   2.091  15.255  1.0046 -0.9525  0.9094
 5744TIP3   OH238722   5.993   6.166   3.890 -0.0759 -0.2740 -0.3546
 5744TIP3    H138723   5.965   6.076   3.901  0.0352 -0.3859 -0.9342
 5744TIP3    H238724   6.036   6.168   3.804 -2.2225  0.8254 -1.5145
 5745TIP3   OH238725   2.150   4.585  11.916 -0.0205 -0.0483  0.2380
 5745TIP3    H138726   2.176   4.658  11.859  0.4208  0.7391  1.3895
 5745TIP3    H238727   2.055   4.581  11.908 -0.2110  1.5452  1.1281
 5746TIP3   OH238728   0.555   5.797   6.271 -0.0975 -0.4710 -0.1007
 5746TIP3    H138729   0.584   5.800   6.362 -0.2251 -1.4640 -0.0221
 5746TIP3    H238730   0.520   5.709   6.259  0.0623 -0.4061 -1.1564
 5747TIP3   OH238731   1.195   1.989  15.666 -0.6131 -0.6914 -0.1738
 5747TIP3    H138732   1.104   2.020  15.675 -0.1942  0.5601 -0.1023
 5747TIP3    H238733   1.206   1.975  15.572 -0.6594 -0.1328 -0.2665
 5748TIP3   OH238734   6.753   5.536   3.868  0.2633 -0.2040 -0.0632
 5748TIP3    H138735   6.830   5.592   3.876 -0.7651  1.3558 -0.5345
 5748TIP3    H238736   6.689   5.590   3.820 -0.6951 -1.8918 -0.7747
 5749TIP3   OH238737   6.504   0.438  12.383 -0.1721  0.4906 -0.5711
 5749TIP3    H138738   6.482   0.411  12.294  0.6476  0.0356 -0.6411
 5749TIP3    H238739   6.446   0.513  12.400 -0.6428  0.3073 -1.3175
 5750TIP3   OH238740   1.175   6.358  12.679  0.3251 -0.0362  0.5870
 5750TIP3    H138741   1.124   6.362  12.598  1.4567 -1.1952 -0.2103
 5750TIP3    H238742   1.125   6.299  12.736 -0.6373  1.0295  0.8883
 5751TIP3   OH238743   2.076   0.449   1.536  0.2889 -0.0613 -0.0894
 5751TIP3    H138744   2.128   0.457   1.615  1.5546  1.3996 -1.0109
 5751TIP3    H238745   2.016   0.523   1.539  1.5974  1.1243 -1.3109
 5752TIP3   OH238746   5.822   0.597   1.959 -0.7329  0.2576  0.1131
 5752TIP3    H138747   5.743   0.649   1.976 -1.2392 -0.4676  0.0516
 5752TIP3    H238748   5.871   0.601   2.041 -1.8556 -0.9816  0.9003
 5753TIP3   OH238749   4.634   3.696  13.836 -1.1528 -0.1328  0.3112
 5753TIP3    H138750   4.557   3.641  13.849 -0.9724 -0.0288  1.9805
 5753TIP3    H238751   4.678   3.697  13.921  0.9105 -0.5021 -0.6956
 5754TIP3   OH238752   5.255   0.015  12.310 -0.1514 -0.0277  0.5735
 5754TIP3    H138753   5.343   0.047  12.290 -0.0282 -1.0905 -0.6607
 5754TIP3    H238754   5.265  -0.079  12.320 -1.5030 -0.4844 -1.8522
 5755TIP3   OH238755   2.357   4.188   4.743 -0.5165  0.0111  0.6853
 5755TIP3    H138756   2.421   4.170   4.812  0.8789  0.4151 -0.4332
 5755TIP3    H238757   2.306   4.108   4.736  1.5453 -1.3416 -0.0549
 5756TIP3   OH238758   2.650   0.604  15.777 -0.3154 -0.1195  0.0074
 5756TIP3    H138759   2.584   0.591  15.709  1.7230 -2.7142 -1.6798
 5756TIP3    H238760   2.707   0.673  15.742 -0.4867  0.0875  0.1310
 5757TIP3   OH238761   1.722   0.074   5.418  0.2477  0.3304  0.5241
 5757TIP3    H138762   1.816   0.082   5.429  0.2587 -0.6027  1.2626
 5757TIP3    H238763   1.701   0.128   5.342  1.5633 -0.5406 -0.4946
 5758TIP3   OH238764   0.226   3.551   0.386 -0.1987 -0.6839 -0.7589
 5758TIP3    H138765   0.241   3.519   0.475  0.6870 -0.5922 -0.8703
 5758TIP3    H238766   0.130   3.548   0.376 -0.4501  0.7736  0.7504
 5759TIP3   OH238767   4.884   1.613  16.686  0.7679  0.0366 -0.4510
 5759TIP3    H138768   4.875   1.518  16.684  1.2041  0.0024 -1.2324
 5759TIP3    H238769   4.946   1.631  16.756  2.5395 -0.4383 -1.8302
 5760TIP3   OH238770   3.929   2.295  13.685 -0.2902  0.0208  0.6841
 5760TIP3    H138771   3.993   2.345  13.633 -1.0285  0.0531 -0.2245
 5760TIP3    H238772   3.907   2.353  13.758  0.7316 -0.0035  1.0374
 5761TIP3   OH238773   2.708   3.421  11.288 -0.1008 -0.4287 -0.0124
 5761TIP3    H138774   2.661   3.496  11.323  0.1157 -0.6461  0.7758
 5761TIP3    H238775   2.674   3.410  11.199  1.7800  2.2228 -1.1589
 5762TIP3   OH238776   4.743   4.451   2.076  0.0559  0.2260  0.7465
 5762TIP3    H138777   4.767   4.541   2.055  1.8955 -0.4002  0.0010
 5762TIP3    H238778   4.792   4.397   2.014 -1.4516 -1.2879  0.7846
 5763TIP3   OH238779   6.314   1.130   0.945  0.3260 -0.3061  0.2686
 5763TIP3    H138780   6.401   1.117   0.983  0.6947  0.3397 -0.3266
 5763TIP3    H238781   6.305   1.060   0.881  0.7082  0.0445 -0.1754
 5764TIP3   OH238782   1.748   5.459   0.802 -0.2061  0.2803 -0.0867
 5764TIP3    H138783   1.750   5.396   0.731 -0.6370 -0.7405  0.7701
 5764TIP3    H238784   1.731   5.543   0.760  0.3408 -0.1740 -1.2472
 5765TIP3   OH238785   2.444   3.836   3.522  0.0253  0.1624 -0.6004
 5765TIP3    H138786   2.414   3.746   3.534 -0.1116  0.1408 -1.0699
 5765TIP3    H238787   2.534   3.827   3.491  0.7942  0.2416  1.5000
 5766TIP3   OH238788   0.210   5.709  15.827  0.5190  0.2403  0.4283
 5766TIP3    H138789   0.267   5.633  15.814  0.2224 -0.0896  1.0349
 5766TIP3    H238790   0.201   5.747  15.739  1.4177  0.1175  0.2762
 5767TIP3   OH238791   2.890   5.768  12.625 -0.1564  0.1224 -0.3538
 5767TIP3    H138792   2.856   5.691  12.580  1.7500 -0.9332 -0.0616
 5767TIP3    H238793   2.897   5.742  12.717  0.0000  0.8244 -0.1588
 5768TIP3   OH238794   6.754   1.567   5.067 -0.0823 -0.0370 -0.0251
 5768TIP3    H138795   6.660   1.553   5.050 -0.0775 -2.4860  1.4239
 5768TIP3    H238796   6.760   1.575   5.162  1.1652  0.1716 -0.1127
 5769TIP3   OH238797   4.434   6.126  16.385  0.0991  0.0356  0.3172
 5769TIP3    H138798   4.407   6.124  16.477 -0.8997  0.5872  0.0506
 5769TIP3    H238799   4.353   6.108  16.336  0.1374  1.9112 -0.5311
 5770TIP3   OH238800   2.377   2.667   0.275 -0.5144 -0.5603 -0.1245
 5770TIP3    H138801   2.469   2.644   0.260  0.4068  1.4255  1.8547
 5770TIP3    H238802   2.350   2.709   0.193  0.5081 -0.7148 -0.5586
 5771TIP3   OH238803   4.571   5.438   0.557 -0.6432  0.2039 -0.4366
 5771TIP3    H138804   4.580   5.414   0.465 -0.9587  0.5502 -0.5581
 5771TIP3    H238805   4.505   5.377   0.591 -0.4896  0.0429 -0.4271
 5772TIP3   OH238806   6.153   4.346   5.285  0.4055 -0.1452 -0.1763
 5772TIP3    H138807   6.204   4.268   5.309 -1.7303 -0.9797  2.0684
 5772TIP3    H238808   6.121   4.328   5.197  1.3137 -1.0398 -0.3373
 5773TIP3   OH238809   6.317   3.019   3.468 -0.4016 -0.2498  0.1462
 5773TIP3    H138810   6.325   2.986   3.379 -2.6517 -1.5158  0.3452
 5773TIP3    H238811   6.280   3.107   3.457  0.4058  0.0524 -0.1996
 5774TIP3   OH238812   4.314   6.454  14.421  0.2372  0.0760 -0.6455
 5774TIP3    H138813   4.299   6.415  14.507  1.8736  1.7211  0.4588
 5774TIP3    H238814   4.330   6.379  14.363  0.5922 -1.0175  0.8035
 5775TIP3   OH238815   1.105   2.030  13.754  0.2581  0.0396  0.1451
 5775TIP3    H138816   1.129   2.022  13.662 -0.0891  2.7158 -0.2484
 5775TIP3    H238817   1.010   2.018  13.756  0.2279  0.2783  0.1176
 5776TIP3   OH238818   5.593   0.318   6.347  0.5405 -1.0528 -0.1690
 5776TIP3    H138819   5.657   0.388   6.358  0.4653 -1.1558  1.1595
 5776TIP3    H238820   5.634   0.242   6.389 -0.1704 -1.2943  0.1025
 5777TIP3   OH238821   1.317   3.201  15.723 -0.5052  0.3951  0.1984
 5777TIP3    H138822   1.255   3.216  15.795 -0.2462  0.7619  0.3464
 5777TIP3    H238823   1.262   3.177  15.649 -0.8412  0.8466  0.2962
 5778TIP3   OH238824   0.303   4.311  11.721  0.3684 -0.2111  0.3721
 5778TIP3    H138825   0.358   4.300  11.799  0.0436 -0.9907  0.5012
 5778TIP3    H238826   0.219   4.343  11.755 -0.0053 -1.2311  0.4224
 5779TIP3   OH238827   4.028   4.221  16.386  0.1107 -0.2191 -0.0383
 5779TIP3    H138828   4.097   4.233  16.451 -0.9082 -2.1127  1.4976
 5779TIP3    H238829   4.072   4.173  16.315  0.8594  0.4296 -0.0254
 5780TIP3   OH238830   4.784   1.861  16.949  0.0194 -0.1729  0.6804
 5780TIP3    H138831   4.760   1.776  16.912 -1.8175  0.6204 -0.1266
 5780TIP3    H238832   4.708   1.886  17.003  0.8582  0.6074  1.5327
 5781TIP3   OH238833   6.380   6.741  14.027  0.2245  0.2120  0.5885
 5781TIP3    H138834   6.445   6.725  14.095  0.5306 -0.1525  0.2228
 5781TIP3    H238835   6.340   6.655  14.013  0.1572  0.2864  0.3216
 5782TIP3   OH238836   2.476   2.222  16.182 -0.3467  0.3506  0.5341
 5782TIP3    H138837   2.402   2.244  16.125  0.4092  3.4887  0.5310
 5782TIP3    H238838   2.552   2.256  16.135  0.8624 -1.0621  1.4208
 5783TIP3   OH238839   2.380   1.277  12.060 -0.3997  0.0981 -0.4875
 5783TIP3    H138840   2.447   1.215  12.032  1.4875  1.7591  0.0863
 5783TIP3    H238841   2.425   1.336  12.121 -1.6959  2.8714 -2.0093
 5784TIP3   OH238842   3.908   4.162  17.024  0.9399  0.6941  0.6842
 5784TIP3    H138843   3.826   4.204  17.050 -0.2304  0.8996 -2.7916
 5784TIP3    H238844   3.912   4.082  17.077 -2.2166  0.0343  0.1441
 5785TIP3   OH238845   4.346   0.752  11.873  0.0111  0.0182  0.2549
 5785TIP3    H138846   4.290   0.674  11.874 -3.2529  2.1413  0.4793
 5785TIP3    H238847   4.392   0.747  11.789 -2.1950 -0.8647 -0.9934
 5786TIP3   OH238848   5.036   0.116   3.506 -0.1641 -0.1244  0.3208
 5786TIP3    H138849   5.016   0.031   3.467  2.1678  0.2735 -2.0459
 5786TIP3    H238850   5.116   0.101   3.557  1.0003  0.8091 -1.1378
 5787TIP3   OH238851   2.685   5.790  15.154 -0.7264  0.2208  0.2713
 5787TIP3    H138852   2.726   5.825  15.232  1.4291 -2.5619  0.5279
 5787TIP3    H238853   2.757   5.757  15.101 -2.3450 -4.4053  0.4585
 5788TIP3   OH238854   3.144   4.475   3.162 -0.3552 -0.2952 -0.4944
 5788TIP3    H138855   3.233   4.445   3.177 -0.1099  0.5948 -0.1106
 5788TIP3    H238856   3.123   4.445   3.074 -0.3007 -1.9763  0.0301
 5789TIP3   OH238857   4.611   6.048  16.113  0.4411 -0.6202  0.1174
 5789TIP3    H138858   4.521   6.079  16.099  0.3432 -1.0079 -0.1175
 5789TIP3    H238859   4.615   6.025  16.205  0.1710 -1.0106  0.0343
 5790TIP3   OH238860   3.445   3.394  13.051 -0.1839 -0.2127 -0.1177
 5790TIP3    H138861   3.494   3.394  12.968  0.2884 -1.5258  0.1433
 5790TIP3    H238862   3.411   3.305  13.059 -0.4069 -0.0381  0.9978
 5791TIP3   OH238863   4.150   1.917  15.923 -0.1915  0.5729 -0.3576
 5791TIP3    H138864   4.162   1.935  16.017  0.6076 -1.2459 -0.0717
 5791TIP3    H238865   4.211   1.846  15.904 -0.3804  0.8649 -2.2709
 5792TIP3   OH238866   2.280   5.935   3.185 -0.3969 -0.3190  0.5407
 5792TIP3    H138867   2.345   5.902   3.248 -0.3010 -0.8932  0.1401
 5792TIP3    H238868   2.197   5.932   3.233 -0.4089 -1.2422  0.4761
 5793TIP3   OH238869   4.110   6.049   5.491 -0.6372  0.0680 -0.5560
 5793TIP3    H138870   4.083   6.103   5.566  1.0649  0.6478 -0.3075
 5793TIP3    H238871   4.041   6.061   5.426 -2.0334 -0.2447  0.8000
 5794TIP3   OH238872   2.984   5.855  10.941 -0.2243 -0.2017  1.0293
 5794TIP3    H138873   3.011   5.941  10.910  2.5154 -1.4402 -0.4467
 5794TIP3    H238874   2.910   5.831  10.886 -0.2552  0.7316  0.6524
 5795TIP3   OH238875   4.580   4.474   5.779 -0.2908  0.3993  0.2825
 5795TIP3    H138876   4.636   4.421   5.722 -2.1647 -2.1439  0.6301
 5795TIP3    H238877   4.507   4.500   5.724 -1.9312 -1.7667  1.2634
 5796TIP3   OH238878   6.382   6.464   0.370  0.1216 -0.1874 -0.0365
 5796TIP3    H138879   6.403   6.531   0.304 -2.0070 -0.2806 -0.8998
 5796TIP3    H238880   6.306   6.418   0.334 -0.5479 -0.8644  2.0731
 5797TIP3   OH238881   3.098   0.157  11.421  1.2785  0.7558  0.2107
 5797TIP3    H138882   3.095   0.221  11.351  1.1679  2.2639  1.5287
 5797TIP3    H238883   3.018   0.173  11.471  0.3810 -1.5640 -0.3602
 5798TIP3   OH238884   3.209   0.160   3.446  0.4035  0.2463  0.4090
 5798TIP3    H138885   3.200   0.073   3.408  0.1581  0.7398 -0.7237
 5798TIP3    H238886   3.124   0.179   3.484  0.2446  0.2513  0.0586
 5799TIP3   OH238887   6.706   1.480  11.835 -0.1136 -0.3167 -0.0042
 5799TIP3    H138888   6.632   1.427  11.804  1.0711 -2.1580  0.1372
 5799TIP3    H238889   6.681   1.505  11.924 -0.4178 -1.2696  0.1949
 5800TIP3   OH238890   6.412   5.260  14.657 -0.0895  0.5659  0.2923
 5800TIP3    H138891   6.402   5.279  14.750  0.4982  0.5429  0.3649
 5800TIP3    H238892   6.465   5.181  14.654 -0.7248  0.1430 -0.0542
 5801TIP3   OH238893   3.970   1.882   5.730  0.0453  0.1552  0.2188
 5801TIP3    H138894   3.988   1.976   5.731 -0.3029  0.2317 -0.2898
 5801TIP3    H238895   3.957   1.859   5.822 -4.0890  1.4498  0.1529
 5802TIP3   OH238896   0.009   0.560  17.162 -0.1157  0.0330 -0.2881
 5802TIP3    H138897   0.073   0.511  17.213 -1.3030 -0.4639  0.7767
 5802TIP3    H238898  -0.051   0.493  17.128  0.5941  0.3438 -2.3382
 5803TIP3   OH238899   2.822   3.096   5.169 -0.0975 -0.0503  0.3186
 5803TIP3    H138900   2.867   3.175   5.138  1.8880 -1.5197 -0.7868
 5803TIP3    H238901   2.834   3.033   5.098 -0.6524 -1.7088  1.6487
 5804TIP3   OH238902   3.400   2.304   5.134 -0.1601 -0.2208 -0.0893
 5804TIP3    H138903   3.323   2.347   5.173 -1.3344 -3.2688  1.3710
 5804TIP3    H238904   3.447   2.373   5.089 -2.0815  2.4176  1.6595
 5805TIP3   OH238905   3.890   5.489   1.247 -0.1126 -0.1347 -0.0805
 5805TIP3    H138906   3.907   5.406   1.203 -1.6026 -0.0021 -0.9735
 5805TIP3    H238907   3.975   5.534   1.248  0.4626 -1.1767 -0.6097
 5806TIP3   OH238908   3.786   0.350   2.219  0.1247  0.1294  0.0322
 5806TIP3    H138909   3.772   0.262   2.255  1.1554 -0.0675 -0.0210
 5806TIP3    H238910   3.729   0.407   2.271  0.7111 -0.3226  1.1790
 5807TIP3   OH238911   1.499   4.915  12.924 -0.0042  0.0116 -0.4403
 5807TIP3    H138912   1.544   4.936  13.005 -1.0344 -0.6112  0.3160
 5807TIP3    H238913   1.569   4.903  12.859  0.9642 -1.6231  0.8428
 5808TIP3   OH238914   0.913   2.963  12.828 -0.2808 -0.3466  0.4335
 5808TIP3    H138915   0.825   2.985  12.859 -0.7369  1.0908 -1.6611
 5808TIP3    H238916   0.962   3.044  12.834  0.2519 -0.5930 -0.4353
 5809TIP3   OH238917   4.769   4.156   4.933 -0.4511  0.3336  0.0061
 5809TIP3    H138918   4.815   4.239   4.916 -0.9997  0.6347 -0.0487
 5809TIP3    H238919   4.707   4.149   4.860  0.8814 -1.0805 -1.0549
 5810TIP3   OH238920   1.443   0.224  11.791  0.4268 -0.0887 -0.2186
 5810TIP3    H138921   1.520   0.245  11.738  1.4176  0.5956  1.4156
 5810TIP3    H238922   1.388   0.302  11.786  1.2033  0.5529  0.8840
 5811TIP3   OH238923   0.871   3.838  17.161  0.4098 -0.2808 -0.6808
 5811TIP3    H138924   0.884   3.839  17.066  0.5455  1.6937 -0.6696
 5811TIP3    H238925   0.823   3.757  17.178  0.4869 -0.7204 -2.4146
 5812TIP3   OH238926   1.837   4.455   5.582 -0.0125 -0.2267  0.0923
 5812TIP3    H138927   1.857   4.436   5.491 -1.2149 -0.4528 -0.1365
 5812TIP3    H238928   1.741   4.454   5.587 -0.0742  2.2282  0.8349
 5813TIP3   OH238929   1.313   2.174   2.229 -0.3430  0.1425  0.6987
 5813TIP3    H138930   1.242   2.189   2.165 -0.2434  1.2675  0.8197
 5813TIP3    H238931   1.319   2.079   2.237  0.4673 -0.1262 -1.9154
 5814TIP3   OH238932   0.664   3.159  17.094  0.5035 -0.1567 -0.5573
 5814TIP3    H138933   0.657   3.074  17.139  2.0652 -0.0468 -0.0253
 5814TIP3    H238934   0.604   3.216  17.141 -0.0422 -0.7971 -0.4683
 5815TIP3   OH238935   4.692   2.129   1.169  0.3774  0.6107 -0.0250
 5815TIP3    H138936   4.770   2.161   1.214  0.6033 -0.4161  0.3593
 5815TIP3    H238937   4.714   2.135   1.076  0.3177  1.7513  0.0270
 5816TIP3   OH238938   6.633   2.167  12.601 -0.1094 -0.6754  0.4749
 5816TIP3    H138939   6.625   2.184  12.694  1.7694  2.7146  0.1957
 5816TIP3    H238940   6.727   2.164  12.585 -0.3698 -2.5226 -1.1910
 5817TIP3   OH238941   3.438   4.562  17.362  0.4091  0.2179 -0.0224
 5817TIP3    H138942   3.361   4.538  17.311  0.4056  2.1086 -1.0273
 5817TIP3    H238943   3.406   4.624  17.427  1.1353  1.6488 -0.9653
 5818TIP3   OH238944   1.428   6.296  14.085  0.1334  0.0595 -0.4133
 5818TIP3    H138945   1.484   6.259  14.153  0.1913  1.2078  0.1903
 5818TIP3    H238946   1.489   6.319  14.015  0.3125  0.5172 -0.1101
 5819TIP3   OH238947   0.715   2.219  17.051  0.0438 -0.0686 -0.1837
 5819TIP3    H138948   0.811   2.219  17.040  0.0520 -2.5588 -0.8064
 5819TIP3    H238949   0.681   2.227  16.962 -0.2837 -0.3988 -0.0917
 5820TIP3   OH238950   2.418   2.093   4.071  0.2344  0.1798 -0.1270
 5820TIP3    H138951   2.332   2.051   4.076  0.2033  0.1655 -0.6988
 5820TIP3    H238952   2.401   2.177   4.028  0.1663  1.1704  1.7327
 5821TIP3   OH238953   1.170   2.973  13.622  0.0630 -0.4741  0.7916
 5821TIP3    H138954   1.142   2.893  13.578 -0.3358 -0.9203  1.8267
 5821TIP3    H238955   1.184   2.947  13.713 -0.8451  0.7868  1.3276
 5822TIP3   OH238956   1.520   6.631   6.075 -0.0388 -0.5328 -0.4990
 5822TIP3    H138957   1.549   6.696   6.010  0.3119 -0.6256 -0.4396
 5822TIP3    H238958   1.454   6.676   6.126  0.9816  0.1555  0.2602
 5823TIP3   OH238959   4.586   1.694  16.668  0.1914 -0.2946 -0.3549
 5823TIP3    H138960   4.562   1.605  16.643 -1.6362 -0.2846  1.1200
 5823TIP3    H238961   4.681   1.692  16.677  0.2906 -1.7892 -1.4054
 5824TIP3   OH238962   4.360   0.882   0.418  0.1867  0.1867  0.1433
 5824TIP3    H138963   4.402   0.954   0.466  0.6490 -0.9321  1.4706
 5824TIP3    H238964   4.278   0.867   0.465  1.3874 -2.0162  1.7254
 5825TIP3   OH238965   1.346   1.094   5.816 -0.2874  0.4135 -0.0827
 5825TIP3    H138966   1.337   1.021   5.878 -0.4643  2.2534  2.2101
 5825TIP3    H238967   1.402   1.060   5.746  0.5113 -1.5941  1.4313
 5826TIP3   OH238968   3.375   5.865  17.162 -0.6723 -0.6312 -0.0120
 5826TIP3    H138969   3.434   5.801  17.202 -0.0141  0.4380  0.8032
 5826TIP3    H238970   3.434   5.934  17.130 -1.4413  0.1622  0.2557
 5827TIP3   OH238971   0.454   4.592   5.951  0.5279 -0.1451 -0.3820
 5827TIP3    H138972   0.425   4.663   5.893 -0.6142 -0.5044 -0.2826
 5827TIP3    H238973   0.507   4.635   6.017  0.3660  0.5297 -0.6826
 5828TIP3   OH238974   1.493   3.544  15.217  0.6430 -0.6641  0.1358
 5828TIP3    H138975   1.582   3.579  15.206  1.1086 -1.8802 -0.0653
 5828TIP3    H238976   1.505   3.450  15.225 -0.3703 -0.6471  3.0677
 5829TIP3   OH238977   1.423   0.491  12.549 -0.0861 -0.4624 -0.3438
 5829TIP3    H138978   1.354   0.541  12.506 -0.8405 -2.2361 -1.2841
 5829TIP3    H238979   1.388   0.403  12.557  2.0808 -1.4528 -0.9285
 5830TIP3   OH238980   4.925   2.471   2.739 -0.4076 -0.7923 -0.5319
 5830TIP3    H138981   5.002   2.528   2.735 -0.6712 -0.4674 -1.0666
 5830TIP3    H238982   4.859   2.523   2.786 -1.0019 -0.2212 -1.9502
 5831TIP3   OH238983   1.709   5.632   4.649 -0.5071  0.0203  0.1203
 5831TIP3    H138984   1.681   5.683   4.574  2.2919  2.3479  0.4550
 5831TIP3    H238985   1.662   5.670   4.723 -0.2735  0.4478  0.0495
 5832TIP3   OH238986   0.701   2.363   0.192  0.2696  0.0081  0.5343
 5832TIP3    H138987   0.728   2.421   0.263  0.0230  1.8408 -0.8245
 5832TIP3    H238988   0.605   2.370   0.190  0.2525 -0.2990  0.2203
 5833TIP3   OH238989   2.418   2.811   1.953 -0.7750  0.0629  0.1163
 5833TIP3    H138990   2.460   2.786   2.036  1.6686 -0.6689 -1.2585
 5833TIP3    H238991   2.393   2.728   1.913  0.2969  0.2481 -0.9714
 5834TIP3   OH238992   0.696   6.333  10.810  0.2077  0.0606 -0.1588
 5834TIP3    H138993   0.632   6.283  10.761  1.0754  0.0221 -1.2964
 5834TIP3    H238994   0.668   6.424  10.802  0.4507  0.0724 -0.8941
 5835TIP3   OH238995   5.978   4.756   1.728  0.1169 -0.6613 -0.1134
 5835TIP3    H138996   5.965   4.676   1.779 -0.0404 -1.2586 -1.0570
 5835TIP3    H238997   5.891   4.797   1.727  0.9045  1.5984  3.5900
 5836TIP3   OH238998   0.378   6.549   6.095  0.4471 -0.1784 -0.0681
 5836TIP3    H138999   0.442   6.597   6.148 -0.4538 -1.0876  1.9087
 5836TIP3    H239000   0.307   6.611   6.081  0.6088  0.0075 -0.0700
 5837TIP3   OH239001   1.983   1.708  15.657 -0.2080 -0.1563 -0.1618
 5837TIP3    H139002   2.018   1.767  15.723  2.1188 -0.6334 -0.8574
 5837TIP3    H239003   1.889   1.720  15.661 -0.1843 -0.1764  3.2298
 5838TIP3   OH239004   3.640   2.172   1.824 -0.2904 -0.0105  0.2619
 5838TIP3    H139005   3.571   2.161   1.890 -1.0202 -0.0449 -0.4914
 5838TIP3    H239006   3.715   2.126   1.861 -1.1792 -1.4630  0.3342
 5839TIP3   OH239007   3.094   0.593  16.967 -0.5673 -0.1721  0.3288
 5839TIP3    H139008   3.051   0.561  16.888  1.1354 -2.5871  0.2781
 5839TIP3    H239009   3.022   0.621  17.024 -1.9257 -0.2266 -1.2894
 5840TIP3   OH239010   5.441   4.856  13.521 -0.3828 -0.0095  0.5246
 5840TIP3    H139011   5.431   4.804  13.441  0.0557 -1.2450  1.2387
 5840TIP3    H239012   5.389   4.809  13.586 -0.4881  0.8102  1.0475
 5841TIP3   OH239013   6.625   1.798  13.173  0.2264  0.2006 -0.5530
 5841TIP3    H139014   6.648   1.716  13.130 -1.7290  0.5451 -2.4039
 5841TIP3    H239015   6.663   1.866  13.117  1.5648  0.6216  0.7992
 5842TIP3   OH239016   6.586   0.206   5.129  0.2503  0.2831 -0.0675
 5842TIP3    H139017   6.564   0.231   5.219  0.7063  3.0081 -0.6359
 5842TIP3    H239018   6.678   0.181   5.132  0.7026  1.8742 -0.0044
 5843TIP3   OH239019   5.744   3.488  14.337 -0.1798  0.0907  0.3826
 5843TIP3    H139020   5.676   3.422  14.352  0.1538 -1.2965 -3.3694
 5843TIP3    H239021   5.819   3.457  14.388 -0.5412 -1.6157 -0.0574
 5844TIP3   OH239022   4.071   1.568  13.803  0.1556 -0.6893 -0.0594
 5844TIP3    H139023   4.155   1.570  13.848  0.7940  1.1397 -1.2270
 5844TIP3    H239024   4.092   1.585  13.711 -1.6021  1.7317 -0.1087
 5845TIP3   OH239025   0.474   1.858   0.904 -0.3937  0.3477  0.1279
 5845TIP3    H139026   0.558   1.859   0.949 -0.0761 -0.5372 -0.4280
 5845TIP3    H239027   0.474   1.777   0.854 -1.1749  0.8022 -0.6423
 5846TIP3   OH239028   0.806   3.685  13.444 -0.2737 -0.1031  0.5142
 5846TIP3    H139029   0.813   3.678  13.539  1.6493 -1.6677  0.3256
 5846TIP3    H239030   0.837   3.601  13.411  3.1006  1.7130 -1.5703
 5847TIP3   OH239031   4.522   4.255   3.473 -0.0705 -0.2006 -0.4185
 5847TIP3    H139032   4.589   4.214   3.528  0.0530  0.4065 -0.1039
 5847TIP3    H239033   4.439   4.229   3.513 -0.0399 -1.1098 -0.9189
 5848TIP3   OH239034   4.424   4.581   5.180 -0.5721 -0.1524  0.4196
 5848TIP3    H139035   4.434   4.486   5.175 -0.3080 -0.2066  1.6802
 5848TIP3    H239036   4.331   4.596   5.162 -0.3227 -0.5053 -1.2712
 5849TIP3   OH239037   0.349   3.351   6.093  0.0365  0.3096 -0.1166
 5849TIP3    H139038   0.443   3.337   6.102 -0.1416  0.0737  1.6675
 5849TIP3    H239039   0.341   3.442   6.063  0.8223  0.3648 -0.1837
 5850TIP3   OH239040   4.774   4.479  16.700  0.4593 -0.3597 -0.4085
 5850TIP3    H139041   4.805   4.504  16.613  2.6688 -0.3509  0.3196
 5850TIP3    H239042   4.705   4.542  16.720  1.6536  1.2563 -1.1519
 5851TIP3   OH239043   2.568   1.211   2.830  0.1865  0.2842 -0.0011
 5851TIP3    H139044   2.646   1.267   2.835  0.5457  0.1508 -2.7127
 5851TIP3    H239045   2.592   1.141   2.770 -1.6278 -0.5015  0.1234
 5852TIP3   OH239046   3.071   6.280   0.126  0.5734  0.4092  0.1669
 5852TIP3    H139047   3.035   6.346   0.184 -0.3714  0.0436  0.0156
 5852TIP3    H239048   3.165   6.297   0.125  0.5450  0.7003  1.4287
 5853TIP3   OH239049   3.603   0.005   3.622  0.4260 -0.3200  0.3706
 5853TIP3    H139050   3.589  -0.090   3.628 -2.4969  0.0923  1.6653
 5853TIP3    H239051   3.579   0.027   3.532  0.1533 -0.6736  0.3556
 5854TIP3   OH239052   5.312   0.313  13.042 -0.3975 -0.0767  0.1181
 5854TIP3    H139053   5.335   0.232  12.996  1.2421 -0.4501  1.4757
 5854TIP3    H239054   5.247   0.285  13.107 -0.0864 -0.2630  0.3566
 5855TIP3   OH239055   5.513   2.573   2.211 -0.3725 -0.1656 -0.0971
 5855TIP3    H139056   5.608   2.587   2.211 -0.2774 -0.7841  0.1823
 5855TIP3    H239057   5.480   2.637   2.148  0.2224  0.0918 -0.1609
 5856TIP3   OH239058   6.328   0.334  15.057  0.5529  0.0827 -0.1877
 5856TIP3    H139059   6.298   0.377  15.137  2.0239 -1.6090  1.3603
 5856TIP3    H239060   6.323   0.403  14.990  1.8953  2.4153  1.9245
 5857TIP3   OH239061   5.706   6.036  16.199 -0.0217 -0.3773 -0.0896
 5857TIP3    H139062   5.731   5.944  16.204 -0.9949 -0.5982  0.9839
 5857TIP3    H239063   5.716   6.069  16.288 -0.8272  0.2402 -0.2112
 5858TIP3   OH239064   6.443   4.359   3.260  0.5016  0.1634  0.0100
 5858TIP3    H139065   6.395   4.440   3.278  0.0139  0.2966 -1.6876
 5858TIP3    H239066   6.406   4.295   3.320 -0.9126  0.5917 -0.3642
 5859TIP3   OH239067   6.058   2.649   3.609 -0.1247  0.4670 -0.0129
 5859TIP3    H139068   6.074   2.593   3.534 -1.8120 -0.0615 -0.0315
 5859TIP3    H239069   6.036   2.588   3.680  2.3306  0.8864  1.2299
 5860TIP3   OH239070   5.276   4.746  16.616 -0.4396 -0.4856 -0.2479
 5860TIP3    H139071   5.331   4.698  16.554 -1.3217 -2.1682  0.2304
 5860TIP3    H239072   5.286   4.700  16.699 -1.2877  0.1717  0.2450
 5861TIP3   OH239073   5.128   5.789   3.519 -0.0976  0.7846  0.1633
 5861TIP3    H139074   5.118   5.714   3.461  1.0376  0.4961  0.3242
 5861TIP3    H239075   5.200   5.765   3.577 -1.7580  0.6858  2.3008
 5862TIP3   OH239076   6.096   2.338   6.906 -0.2870  0.0452 -0.1056
 5862TIP3    H139077   6.185   2.301   6.900 -0.1895  0.1539  0.5528
 5862TIP3    H239078   6.105   2.428   6.874 -0.1736  0.0338 -0.1063
 5863TIP3   OH239079   0.253   3.767  12.026 -0.1016  0.2309  0.2821
 5863TIP3    H139080   0.163   3.749  12.052 -0.7014  2.3855 -0.1221
 5863TIP3    H239081   0.287   3.824  12.095  0.5495  0.4169 -0.1798
 5864TIP3   OH239082   3.059   1.729   1.791  0.1552 -0.1574  0.0333
 5864TIP3    H139083   2.997   1.744   1.720  0.3426 -1.5515 -0.4465
 5864TIP3    H239084   3.022   1.777   1.865  0.5121  2.2305 -1.2469
 5865TIP3   OH239085   1.203   3.692   1.515  0.4648 -0.4101  0.0420
 5865TIP3    H139086   1.252   3.753   1.571  0.3448 -0.2793  0.0041
 5865TIP3    H239087   1.198   3.735   1.430  1.4903 -1.0338 -0.3586
 5866TIP3   OH239088   6.077   3.994   0.456  0.1946  0.2990  0.5574
 5866TIP3    H139089   6.101   3.903   0.438  0.0526  0.1199  1.2306
 5866TIP3    H239090   6.139   4.046   0.405 -0.4188 -0.1768 -0.6997
 5867TIP3   OH239091   5.735   0.263   1.266  0.5522  0.3201  0.0914
 5867TIP3    H139092   5.645   0.235   1.284  1.1444 -0.0337  3.1710
 5867TIP3    H239093   5.725   0.342   1.214 -1.4058 -1.1958 -2.0720
 5868TIP3   OH239094   2.848   4.254   2.227 -0.0383 -0.7285  0.3513
 5868TIP3    H139095   2.844   4.345   2.254  0.9401 -0.2972 -0.8477
 5868TIP3    H239096   2.882   4.207   2.303  2.4133  0.4034  0.0597
 5869TIP3   OH239097   1.269   2.393   1.441  0.2894  0.0534 -0.2897
 5869TIP3    H139098   1.354   2.379   1.400  0.8703  0.2362  0.8052
 5869TIP3    H239099   1.283   2.373   1.533 -0.4651  1.4971  0.1786
 5870TIP3   OH239100   5.062   5.564  16.705  0.4331  0.8167 -0.0033
 5870TIP3    H139101   5.002   5.580  16.632 -0.1000 -0.7179  0.0680
 5870TIP3    H239102   5.104   5.481  16.683  0.6729  0.6145  1.1864
 5871TIP3   OH239103   2.179   1.639  14.069  0.1738  0.3320  0.2969
 5871TIP3    H139104   2.168   1.726  14.108 -0.9640  1.1563 -1.7192
 5871TIP3    H239105   2.143   1.648  13.981  2.0263 -1.6081 -0.7354
 5872TIP3   OH239106   4.321   1.054   3.162 -0.1645 -0.3118 -0.2569
 5872TIP3    H139107   4.275   0.977   3.129 -0.9307  0.7625 -1.8148
 5872TIP3    H239108   4.413   1.036   3.143 -0.1945 -1.3411  0.4885
 5873TIP3   OH239109   5.449   5.059  17.278 -0.1690  0.0171 -0.4472
 5873TIP3    H139110   5.398   5.085  17.355 -0.1596 -0.5762 -0.2417
 5873TIP3    H239111   5.411   5.111  17.207 -1.7303 -1.1284 -0.5037
 5874TIP3   OH239112   1.140   4.773  14.293 -0.6374 -0.5866 -0.1902
 5874TIP3    H139113   1.221   4.806  14.255  0.2760 -2.5511 -0.0976
 5874TIP3    H239114   1.157   4.770  14.388 -1.4273  0.4920  0.0057
 5875TIP3   OH239115   1.500   2.501  15.034 -0.7036 -0.8113  0.0199
 5875TIP3    H139116   1.513   2.447  15.112 -1.5526 -0.7654  0.2021
 5875TIP3    H239117   1.413   2.538  15.044  0.3504  1.7028  0.5466
 5876TIP3   OH239118   3.959   6.325   6.391  0.5092  0.3386 -0.3211
 5876TIP3    H139119   3.968   6.234   6.364 -0.5142  0.0783  0.1664
 5876TIP3    H239120   3.868   6.333   6.418  1.5875  0.2815  4.0340
 5877TIP3   OH239121   5.719   6.607  11.802 -0.0303  0.1200  0.2327
 5877TIP3    H139122   5.701   6.699  11.821  0.9573  0.1663  1.0032
 5877TIP3    H239123   5.790   6.609  11.738 -0.6147 -0.1020 -0.4332
 5878TIP3   OH239124   3.211   1.795  14.537  0.1134  0.3273  0.2186
 5878TIP3    H139125   3.248   1.763  14.454 -1.0790  0.7686 -0.5024
 5878TIP3    H239126   3.269   1.866  14.564  0.6378  0.0319 -0.1078
 5879TIP3   OH239127   5.129   3.624  11.934  0.2744 -0.2862  0.4991
 5879TIP3    H139128   5.102   3.566  11.863  1.1706  0.4065 -0.4532
 5879TIP3    H239129   5.122   3.571  12.013 -1.9641 -0.7162  0.0938
 5880TIP3   OH239130   5.301   4.491   4.352  0.0378  0.0416 -0.2212
 5880TIP3    H139131   5.315   4.535   4.268 -0.0176  0.2082 -0.1410
 5880TIP3    H239132   5.347   4.545   4.416 -0.3779  0.2096 -0.0623
 5881TIP3   OH239133   1.277   1.409  16.225 -0.1220 -0.7303  0.4433
 5881TIP3    H139134   1.277   1.471  16.152  1.8081 -0.7125  0.3846
 5881TIP3    H239135   1.194   1.362  16.218 -0.6709  0.3590 -0.8002
 5882TIP3   OH239136   2.193   4.121  13.995  0.5100  0.0594  0.1507
 5882TIP3    H139137   2.186   4.049  14.058  0.4352 -1.1064 -1.1414
 5882TIP3    H239138   2.103   4.148  13.979  0.4486 -0.3121 -0.1688
 5883TIP3   OH239139   6.035   2.583  14.192 -0.2593  0.3121  0.3038
 5883TIP3    H139140   6.003   2.582  14.282 -1.0826 -0.7498  0.0190
 5883TIP3    H239141   5.962   2.615  14.140  0.1103  0.6353 -0.0228
 5884TIP3   OH239142   3.080   0.861   2.997  0.4063  0.1293 -0.1296
 5884TIP3    H139143   3.036   0.787   2.955  2.8920 -0.6260 -1.5905
 5884TIP3    H239144   3.024   0.936   2.978 -1.8844 -1.2161  0.8930
 5885TIP3   OH239145   2.995   3.780  14.843 -0.5409 -1.3474  0.4969
 5885TIP3    H139146   2.958   3.721  14.778  1.1203  0.3473 -2.2169
 5885TIP3    H239147   2.923   3.839  14.865 -0.3375  0.4623 -2.9103
 5886TIP3   OH239148   2.705   1.133  12.166  0.1729 -0.2799  0.2197
 5886TIP3    H139149   2.649   1.055  12.164  1.0959 -0.9586 -0.1257
 5886TIP3    H239150   2.766   1.118  12.239 -2.4130  2.1898  3.1464
 5887TIP3   OH239151   6.515   6.724   0.532 -0.6244 -0.6008  0.4323
 5887TIP3    H139152   6.530   6.815   0.561 -0.3204 -0.0744 -1.2652
 5887TIP3    H239153   6.436   6.729   0.478 -1.0474 -1.5118  0.9483
 5888TIP3   OH239154   6.515   0.795  14.329  0.0613 -0.0839 -0.1403
 5888TIP3    H139155   6.568   0.715  14.324 -0.8592 -0.7039 -0.3856
 5888TIP3    H239156   6.553   0.845  14.401  1.7732  0.1014 -1.1351
 5889TIP3   OH239157   2.519   3.978   4.184 -0.2889  0.9882 -0.2838
 5889TIP3    H139158   2.562   4.048   4.135  3.7401  0.6279  2.2930
 5889TIP3    H239159   2.534   4.000   4.276 -1.5911 -1.6902  0.6823
 5890TIP3   OH239160   3.228   3.640   0.532 -0.1761  0.3009  0.1895
 5890TIP3    H139161   3.246   3.608   0.620 -1.1433 -0.3382  0.1737
 5890TIP3    H239162   3.297   3.703   0.515  0.4683 -0.1287  1.1088
 5891TIP3   OH239163   3.303   4.125  14.377 -0.3606 -0.1508  0.2433
 5891TIP3    H139164   3.377   4.151  14.323 -0.8216 -0.6016 -0.6364
 5891TIP3    H239165   3.306   4.029  14.377  0.8158 -0.2121  2.7213
 5892TIP3   OH239166   4.247   2.545   4.657  0.6382  0.1654 -0.7226
 5892TIP3    H139167   4.180   2.495   4.611  1.1503 -0.1969 -1.0822
 5892TIP3    H239168   4.203   2.625   4.684 -0.0078 -0.1893 -0.7229
 5893TIP3   OH239169   1.754   1.715  16.565 -0.3287 -0.2193 -0.1665
 5893TIP3    H139170   1.662   1.707  16.540 -0.4566  0.1360  0.1933
 5893TIP3    H239171   1.759   1.797  16.614  0.2436 -0.0735 -0.4645
 5894TIP3   OH239172   3.609   0.358  10.566  0.0096  0.1506  0.0146
 5894TIP3    H139173   3.682   0.373  10.626  0.5376 -3.6960  0.5479
 5894TIP3    H239174   3.536   0.406  10.606  1.7399  2.6947  0.3555
 5895TIP3   OH239175   3.003   0.929  16.702  0.1953  0.3315 -0.2956
 5895TIP3    H139176   2.985   1.019  16.674 -2.7566  0.5757  1.9136
 5895TIP3    H239177   3.098   0.923  16.704  0.4829  2.9644 -1.7437
 5896TIP3   OH239178   4.489   5.248   6.151  0.3990 -0.3625 -0.0729
 5896TIP3    H139179   4.408   5.201   6.133 -0.7582  0.4054  2.6097
 5896TIP3    H239180   4.460   5.333   6.182  2.3236  0.5033 -0.5462
 5897TIP3   OH239181   0.393   2.588   5.722 -0.8209 -0.7621 -0.7540
 5897TIP3    H139182   0.379   2.538   5.802 -0.4827 -0.0660 -0.2441
 5897TIP3    H239183   0.395   2.679   5.751  1.6907 -0.6134 -1.1671
 5898TIP3   OH239184   2.963   0.570   2.918  0.0256  0.0419 -0.2243
 5898TIP3    H139185   2.893   0.589   2.854  1.4800  0.5879 -1.7352
 5898TIP3    H239186   2.960   0.475   2.929 -0.7918  0.0270 -0.4533
 5899TIP3   OH239187   6.768   1.878  16.898 -0.3619 -0.3165 -0.4403
 5899TIP3    H139188   6.807   1.857  16.812  0.4863  0.9562 -0.3859
 5899TIP3    H239189   6.796   1.806  16.954  0.5380 -0.2724 -0.8145
 5900TIP3   OH239190   3.814   0.784  13.323  0.4667  0.2628  0.3802
 5900TIP3    H139191   3.779   0.706  13.278  1.6807  0.1433 -0.4041
 5900TIP3    H239192   3.899   0.756  13.356  1.4674  1.5701 -0.9479
 5901TIP3   OH239193   4.558   5.075   1.001 -0.2490  0.0448  0.0603
 5901TIP3    H139194   4.509   5.049   0.923  0.1571 -0.1944 -0.1181
 5901TIP3    H239195   4.648   5.051   0.982  0.2073  1.8215 -0.2426
 5902TIP3   OH239196   4.208   6.164   0.872  0.3345  0.5757 -0.7533
 5902TIP3    H139197   4.254   6.161   0.789  1.2588 -0.0569 -0.2304
 5902TIP3    H239198   4.172   6.076   0.884  3.0558 -0.4389  1.0455
 5903TIP3   OH239199   2.047   4.669   5.673  0.3433  0.4451  0.8632
 5903TIP3    H139200   2.009   4.582   5.667 -0.9204  1.0401 -0.7764
 5903TIP3    H239201   2.087   4.684   5.587 -2.0349  2.5206 -0.0089
 5904TIP3   OH239202   1.018   6.188  15.325 -0.0533 -0.6019  0.3727
 5904TIP3    H139203   0.944   6.249  15.321  1.3057  1.1047 -0.4359
 5904TIP3    H239204   1.036   6.165  15.234 -0.8435 -2.6833  0.6873
 5905TIP3   OH239205   1.039   0.780  15.685  0.1792 -0.6353 -0.1386
 5905TIP3    H139206   1.036   0.876  15.679  1.4855 -0.5929 -0.4454
 5905TIP3    H239207   0.994   0.750  15.606 -0.2236 -0.2844 -0.0492
 5906TIP3   OH239208   2.337   2.291   3.925  0.6029 -0.3094 -0.5217
 5906TIP3    H139209   2.303   2.212   3.884 -2.0118 -0.0819  1.0114
 5906TIP3    H239210   2.317   2.361   3.863 -2.8629 -0.0443  0.6660
 5907TIP3   OH239211   5.517   4.005  14.286 -0.4336  0.1001  0.0547
 5907TIP3    H139212   5.581   3.960  14.230  1.0880  1.8122  0.3311
 5907TIP3    H239213   5.534   3.970  14.374  0.6483  1.0426  0.2445
 5908TIP3   OH239214   1.376   2.332  13.984 -0.3196 -0.2494  0.5776
 5908TIP3    H139215   1.340   2.243  13.987 -0.8686 -0.0046  2.4869
 5908TIP3    H239216   1.467   2.321  14.013  0.1381 -0.3841 -0.8269
 5909TIP3   OH239217   2.528   2.585   4.310  0.0589 -0.4246 -0.4642
 5909TIP3    H139218   2.475   2.657   4.275  0.0399 -1.0735 -1.8597
 5909TIP3    H239219   2.571   2.548   4.232  2.2011 -0.2164  0.5579
 5910TIP3   OH239220   1.493   4.556  13.206 -0.3678  0.6650  0.1683
 5910TIP3    H139221   1.539   4.634  13.175 -0.3185  0.6110  0.1055
 5910TIP3    H239222   1.557   4.511  13.260 -1.2483  2.1023  2.5729
 5911TIP3   OH239223   6.742   2.985  16.415 -0.4848  0.0888 -0.2218
 5911TIP3    H139224   6.750   2.984  16.319 -1.5816  0.2966 -0.3322
 5911TIP3    H239225   6.647   2.982  16.431 -0.2904 -0.7239  0.8757
 5912TIP3   OH239226   5.394   0.483   4.317 -0.1285  0.3750 -0.5415
 5912TIP3    H139227   5.450   0.495   4.394  0.0405 -2.1947 -0.1577
 5912TIP3    H239228   5.443   0.423   4.261 -1.5811 -0.2539 -1.1807
 5913TIP3   OH239229   2.449   1.506   0.905 -0.0747  0.2214 -0.2480
 5913TIP3    H139230   2.388   1.476   0.837 -0.3288 -0.7219  0.3789
 5913TIP3    H239231   2.410   1.477   0.987  0.2985  1.2385  0.3064
 5914TIP3   OH239232   2.490   0.445   2.597 -0.1797 -0.8362 -0.0418
 5914TIP3    H139233   2.522   0.396   2.522  1.3330 -2.5310  1.6139
 5914TIP3    H239234   2.423   0.390   2.636 -0.0380 -0.5809  0.5822
 5915TIP3   OH239235   3.546   0.744   0.010  0.4114  0.2237 -0.3609
 5915TIP3    H139236   3.552   0.831   0.050  0.7916  0.4107 -0.8106
 5915TIP3    H239237   3.478   0.699   0.060  1.5567  0.0969  1.1843
 5916TIP3   OH239238   6.037   4.170  10.677  0.3471 -0.3843 -0.2669
 5916TIP3    H139239   5.966   4.146  10.736  0.0570  0.2679 -0.3408
 5916TIP3    H239240   6.002   4.243  10.626  1.2757  0.3395  0.1074
 5917TIP3   OH239241   2.899   6.122   3.654  0.0185  0.0033 -0.2009
 5917TIP3    H139242   2.919   6.028   3.650  2.1725  0.4537 -1.3958
 5917TIP3    H239243   2.962   6.156   3.717 -0.1623  0.7850 -0.4383
 5918TIP3   OH239244   6.348   1.824  13.211 -0.2120  0.1833  0.4831
 5918TIP3    H139245   6.334   1.797  13.302  1.8036 -0.6354  0.5983
 5918TIP3    H239246   6.443   1.833  13.202 -0.4112  1.0050 -1.3470
 5919TIP3   OH239247   5.321   1.039   5.944  0.5065 -0.2344  0.0645
 5919TIP3    H139248   5.369   1.044   6.027  0.3296 -1.4948  0.2535
 5919TIP3    H239249   5.229   1.038   5.970  0.4631 -2.4287  0.0026
 5920TIP3   OH239250   5.026   5.501  12.398 -0.1056  0.3741 -0.4389
 5920TIP3    H139251   4.946   5.456  12.371 -0.3223  0.2912  0.3155
 5920TIP3    H239252   4.996   5.585  12.432 -0.0539 -0.2202  1.2092
 5921TIP3   OH239253   4.036   4.887   4.776  0.9330 -0.4151 -0.1292
 5921TIP3    H139254   4.010   4.951   4.710  0.3574  0.4793  0.9222
 5921TIP3    H239255   4.130   4.902   4.789  0.6731  0.7750  0.6316
 5922TIP3   OH239256   4.908   3.829  17.061 -0.4605  0.1234 -0.5835
 5922TIP3    H139257   4.892   3.914  17.102  2.1693 -0.0423  1.0595
 5922TIP3    H239258   4.882   3.840  16.970 -2.3894  1.9204  0.1092
 5923TIP3   OH239259   2.942   3.326  15.437  0.4539 -0.9172 -0.4702
 5923TIP3    H139260   2.972   3.401  15.487  0.3131 -0.5980 -0.8498
 5923TIP3    H239261   2.883   3.364  15.371  0.7594 -1.3064 -0.9716
 5924TIP3   OH239262   5.956   1.300  11.729 -0.6017 -0.1475 -0.3028
 5924TIP3    H139263   6.014   1.228  11.757 -1.5745 -1.0840 -0.6368
 5924TIP3    H239264   5.916   1.268  11.648 -1.9986  0.2433  0.2085
 5925TIP3   OH239265   6.075   2.013   2.145  0.2102 -0.1869  0.2854
 5925TIP3    H139266   6.079   2.020   2.050 -0.6268  2.6918  0.3517
 5925TIP3    H239267   6.146   2.070   2.176 -1.5984  1.6565  1.3009
 5926TIP3   OH239268   2.762   1.199  15.923  0.6208  0.2618 -0.1163
 5926TIP3    H139269   2.780   1.106  15.939  1.4573  0.5214  0.5079
 5926TIP3    H239270   2.673   1.200  15.887  0.7933 -0.8233 -0.6244
 5927TIP3   OH239271   6.499   3.599   3.177  0.0054  0.5529  0.4790
 5927TIP3    H139272   6.426   3.589   3.116 -0.2708 -0.6704  0.9749
 5927TIP3    H239273   6.459   3.630   3.258  0.1395  0.6180  0.5202
 5928TIP3   OH239274   0.680   3.671   5.296 -0.0420 -0.1434 -0.2319
 5928TIP3    H139275   0.718   3.587   5.322 -0.6938 -0.0437  1.1417
 5928TIP3    H239276   0.719   3.735   5.356 -1.2410  0.1790  0.2385
 5929TIP3   OH239277   5.008   4.634  13.473 -0.0706  0.2002 -0.5627
 5929TIP3    H139278   5.077   4.570  13.490  0.5966  1.0803  0.1308
 5929TIP3    H239279   4.961   4.643  13.556  0.8514  1.7638 -0.1702
 5930TIP3   OH239280   2.215   6.130   4.631  0.8895  0.3808 -0.2813
 5930TIP3    H139281   2.173   6.127   4.716  2.2563  0.9354  0.4458
 5930TIP3    H239282   2.302   6.093   4.645  1.0899  0.3397 -1.4641
 5931TIP3   OH239283   5.201   2.635   6.005 -0.4071  0.3968  0.0623
 5931TIP3    H139284   5.223   2.571   5.937 -0.7086 -0.6411  0.9175
 5931TIP3    H239285   5.281   2.687   6.016  0.8894 -1.7123  1.3666
 5932TIP3   OH239286   2.630   5.312  13.229 -0.6228  0.2746  0.1550
 5932TIP3    H139287   2.621   5.400  13.191  0.2224 -0.1228 -1.0544
 5932TIP3    H239288   2.711   5.317  13.280 -0.0965 -0.0060 -0.6202
 5933TIP3   OH239289   6.357   1.593   4.672  0.2987 -0.1233  0.2090
 5933TIP3    H139290   6.338   1.683   4.645  0.1424  0.1927  1.3346
 5933TIP3    H239291   6.275   1.562   4.711  0.5600 -0.5269  0.4459
 5934TIP3   OH239292   6.524   2.589  17.085  0.3501 -0.0878  0.7294
 5934TIP3    H139293   6.602   2.611  17.032  0.6861 -2.7046 -0.0117
 5934TIP3    H239294   6.454   2.578  17.021  0.2355 -1.1370  1.0067
 5935TIP3   OH239295   0.972   2.676   3.269  0.2043  0.2423  0.0707
 5935TIP3    H139296   0.930   2.626   3.340 -0.6089  0.4869 -0.2257
 5935TIP3    H239297   0.993   2.610   3.203  0.1133  0.1387  0.1432
 5936TIP3   OH239298   3.803   0.986   4.064  0.1991 -0.1239 -0.2331
 5936TIP3    H139299   3.815   1.081   4.065  0.1864 -0.1096 -0.9600
 5936TIP3    H239300   3.891   0.951   4.051  0.2483 -0.2281  0.3550
 5937TIP3   OH239301   6.736   3.371   2.930  0.0824  0.1110  0.4993
 5937TIP3    H139302   6.650   3.334   2.908  0.9688 -1.7017 -0.0987
 5937TIP3    H239303   6.799   3.310   2.893  1.7397  2.9213 -1.8119
 5938TIP3   OH239304   0.449   4.812   3.043 -0.1448  0.0940  0.2618
 5938TIP3    H139305   0.408   4.797   3.129  1.6979 -0.1818  1.1469
 5938TIP3    H239306   0.395   4.880   3.002 -2.4108 -1.3671  0.6529
 5939TIP3   OH239307   6.706   1.109  10.973 -0.4366 -0.0153 -0.2740
 5939TIP3    H139308   6.711   1.190  11.024  2.8157 -1.1716  1.5858
 5939TIP3    H239309   6.749   1.130  10.890 -1.0006  0.5483 -0.4288
 5940TIP3   OH239310   3.756   0.270   4.587  0.2724 -0.3807 -0.2140
 5940TIP3    H139311   3.678   0.303   4.632  1.2039 -0.4494  1.5150
 5940TIP3    H239312   3.806   0.225   4.655  2.1712  0.2634 -1.1198
 5941TIP3   OH239313   2.579   3.721  11.914 -0.0136 -0.0425 -0.1300
 5941TIP3    H139314   2.574   3.691  11.824  0.6221 -0.9640  0.1279
 5941TIP3    H239315   2.514   3.670  11.961 -1.8022  1.8484 -0.3909
 5942TIP3   OH239316   0.722   3.396   5.291  0.3135 -0.2761 -0.2092
 5942TIP3    H139317   0.815   3.404   5.269  0.0846 -0.6764 -1.4490
 5942TIP3    H239318   0.701   3.305   5.272 -0.8525  0.3578 -2.2721
 5943TIP3   OH239319   2.213   4.703   1.802 -0.1227  0.7563 -0.2442
 5943TIP3    H139320   2.177   4.738   1.720  0.8718  0.0060 -1.0349
 5943TIP3    H239321   2.188   4.611   1.801  1.0508  0.4283 -0.3886
 5944TIP3   OH239322   4.336   2.444   3.492 -0.1805 -0.1555 -0.4698
 5944TIP3    H139323   4.342   2.511   3.560 -0.2414 -1.2936  0.6944
 5944TIP3    H239324   4.261   2.470   3.439 -0.5638  0.3786  0.3156
 5945TIP3   OH239325   4.641   0.899   2.128  0.1949  0.0796 -0.2256
 5945TIP3    H139326   4.672   0.970   2.184  0.2929  0.3783 -0.6460
 5945TIP3    H239327   4.679   0.820   2.165  0.0262  0.2351  0.2932
 5946TIP3   OH239328   5.537   5.350  14.232  0.2672 -0.2172  0.5012
 5946TIP3    H139329   5.578   5.301  14.161  0.2542  0.0671  0.2946
 5946TIP3    H239330   5.602   5.417  14.255 -0.2642  0.5381 -0.1441
 5947TIP3   OH239331   6.582   1.661   0.258 -0.6886 -0.2399  0.6610
 5947TIP3    H139332   6.587   1.568   0.280 -3.3079 -1.1570 -1.8785
 5947TIP3    H239333   6.544   1.702   0.336  0.0056 -1.3697  1.6256
 5948TIP3   OH239334   3.405   5.944   6.670 -0.1836  0.0151  0.1565
 5948TIP3    H139335   3.349   5.873   6.637 -0.7155  1.0065 -1.1966
 5948TIP3    H239336   3.432   5.915   6.757  0.7032 -2.4320 -0.8526
 5949TIP3   OH239337   3.920   4.848   3.709 -0.3541 -0.6952  0.4404
 5949TIP3    H139338   3.988   4.846   3.777 -0.7001 -0.3069  0.8047
 5949TIP3    H239339   3.852   4.906   3.744 -0.1315  0.2540 -0.6065
 5950TIP3   OH239340   6.023   0.937  12.695 -0.6920  0.3831 -0.0397
 5950TIP3    H139341   6.020   1.027  12.726 -0.5255  0.3132  0.1816
 5950TIP3    H239342   6.087   0.894  12.752 -0.1888  0.3201 -0.6381
 5951TIP3   OH239343   1.723   5.981   3.141 -0.9048  0.2658 -0.1093
 5951TIP3    H139344   1.746   6.073   3.128  1.9519 -0.3320  0.0941
 5951TIP3    H239345   1.721   5.944   3.052  2.6609 -0.3771 -0.0720
 5952TIP3   OH239346   4.806   4.072   4.353  0.4414 -0.3855 -0.0573
 5952TIP3    H139347   4.757   4.021   4.419  0.4878  0.6141  0.7702
 5952TIP3    H239348   4.898   4.050   4.369  0.3726 -1.1528 -0.6652
 5953TIP3   OH239349   5.918   2.218  13.374 -0.3377 -0.1380  0.4025
 5953TIP3    H139350   5.966   2.137  13.360  0.9563  0.3780  1.6046
 5953TIP3    H239351   5.966   2.284  13.323 -1.1269 -0.0366 -0.2269
 5954TIP3   OH239352   3.171   3.795   4.520 -0.5152  0.4396 -0.3583
 5954TIP3    H139353   3.166   3.830   4.609  1.8776  1.0145 -0.3831
 5954TIP3    H239354   3.166   3.872   4.463  3.1219  0.7586 -0.4639
 5955TIP3   OH239355   2.367   1.464  16.457 -0.6906  0.4080  0.0040
 5955TIP3    H139356   2.456   1.439  16.480  0.4336  2.6055 -1.5943
 5955TIP3    H239357   2.354   1.549  16.499 -1.6624  0.5689 -0.5852
 5956TIP3   OH239358   5.310   5.033  12.340  0.1526 -0.0208  0.1031
 5956TIP3    H139359   5.333   5.090  12.267  1.8666 -1.1592 -0.3009
 5956TIP3    H239360   5.236   4.982  12.307  1.2045 -0.8551 -1.0526
 5957TIP3   OH239361   4.664   5.141   4.754 -0.2795  0.3946 -0.0251
 5957TIP3    H139362   4.709   5.171   4.833 -0.0705  1.2695 -0.4618
 5957TIP3    H239363   4.613   5.065   4.783 -0.3690  0.8240  0.9840
 5958TIP3   OH239364   1.990   5.261   3.514  0.3197  0.4535 -0.4483
 5958TIP3    H139365   2.006   5.334   3.574  0.6775  0.3925 -0.4701
 5958TIP3    H239366   1.923   5.208   3.558  2.1497 -0.8151  0.9574
 5959TIP3   OH239367   4.344   6.733  16.746 -0.0945 -0.1722 -0.1907
 5959TIP3    H139368   4.358   6.703  16.835 -0.6902 -1.0053 -0.3641
 5959TIP3    H239369   4.254   6.706  16.726  0.1493 -0.3021 -1.1599
 5960TIP3   OH239370   3.638   6.266  13.809  0.0893 -0.3543  0.2252
 5960TIP3    H139371   3.648   6.343  13.865  0.2156 -0.0673 -0.1838
 5960TIP3    H239372   3.544   6.248  13.810 -0.3408  1.3735 -1.6954
 5961TIP3   OH239373   1.874   1.278  11.095  0.0680 -0.0965 -0.0310
 5961TIP3    H139374   1.898   1.356  11.045  0.8893  0.3286  0.9976
 5961TIP3    H239375   1.910   1.205  11.044  1.3065  0.3561  0.1538
 5962TIP3   OH239376   3.509   4.861   4.041  0.8920  0.3500  0.0895
 5962TIP3    H139377   3.548   4.775   4.057 -1.6543 -0.7306  0.9516
 5962TIP3    H239378   3.443   4.845   3.974 -0.5844  1.3001  1.2635
 5963TIP3   OH239379   3.164   4.669   6.793 -0.8196 -0.5596  0.0170
 5963TIP3    H139380   3.164   4.755   6.833 -2.1893 -0.5114 -0.0173
 5963TIP3    H239381   3.241   4.668   6.735 -0.4676  0.4107  0.4601
 5964TIP3   OH239382   6.606   3.734  14.878  0.0129 -0.0431  0.4791
 5964TIP3    H139383   6.695   3.704  14.897 -0.7631 -1.1149  2.7163
 5964TIP3    H239384   6.575   3.673  14.810  0.6460 -0.2911  0.4082
 5965TIP3   OH239385   5.706   0.541  13.329  0.1634  0.3472 -0.2241
 5965TIP3    H139386   5.761   0.548  13.251 -0.8549  0.6599 -0.9478
 5965TIP3    H239387   5.634   0.483  13.303  0.0590  0.0710  0.6395
 5966TIP3   OH239388   6.114   4.835  16.265 -0.8184  0.3730 -0.1713
 5966TIP3    H139389   6.089   4.853  16.174 -2.9768 -0.9615  0.0767
 5966TIP3    H239390   6.043   4.779  16.299  0.4220  0.0063  2.0405
 5967TIP3   OH239391   4.456   3.545  16.490  0.4832  0.5320  0.2316
 5967TIP3    H139392   4.383   3.485  16.476  1.0201  0.0714 -0.6877
 5967TIP3    H239393   4.431   3.596  16.567 -0.7418  0.2958  0.0061
 5968TIP3   OH239394   3.511   2.467  14.801  0.0984  0.2460 -0.3570
 5968TIP3    H139395   3.489   2.456  14.894 -0.9005 -0.9044 -0.7054
 5968TIP3    H239396   3.561   2.388  14.779  0.3212  0.5081 -0.8048
 5969TIP3   OH239397   1.406   0.073  15.689  0.2275  0.4976 -0.0033
 5969TIP3    H139398   1.350   0.039  15.618  1.1157  1.3072 -1.1281
 5969TIP3    H239399   1.350   0.137  15.734  0.3784  1.7111 -1.4651
 5970TIP3   OH239400   0.629   2.133   1.216 -0.3466  0.2149 -0.2809
 5970TIP3    H139401   0.540   2.137   1.250  0.1118  0.6328  0.9667
 5970TIP3    H239402   0.620   2.134   1.121 -1.6597  0.3475 -0.1648
 5971TIP3   OH239403   6.616   4.446   1.386  0.0394  0.1399 -0.1616
 5971TIP3    H139404   6.521   4.442   1.395  0.1274 -0.4104  0.6166
 5971TIP3    H239405   6.643   4.513   1.448  0.1118  0.7239 -0.8164
 5972TIP3   OH239406   5.265   5.166   4.034  0.1051 -0.5871 -0.1633
 5972TIP3    H139407   5.344   5.204   4.072  1.4094 -0.7482 -2.5364
 5972TIP3    H239408   5.293   5.082   3.999 -1.1711 -0.7384 -0.8997
 5973TIP3   OH239409   4.347   1.994   2.024  0.5767 -1.1144  0.0379
 5973TIP3    H139410   4.419   1.950   2.069 -0.8919 -1.9191  1.7488
 5973TIP3    H239411   4.269   1.968   2.074 -0.6720  1.3350 -0.5032
 5974TIP3   OH239412   2.643   6.493   2.121  0.0024 -0.3712  0.9790
 5974TIP3    H139413   2.680   6.553   2.056  0.0744 -0.9314  0.4891
 5974TIP3    H239414   2.672   6.527   2.205 -1.4084  1.2980  0.8441
 5975TIP3   OH239415   0.429   4.676   5.416  0.1317 -0.3774 -0.0898
 5975TIP3    H139416   0.480   4.681   5.335 -0.2192 -0.9788 -0.3493
 5975TIP3    H239417   0.354   4.734   5.401  0.2188 -0.2641 -0.0856
 5976TIP3   OH239418   1.433   5.519  11.523 -0.3784  0.4484  0.4062
 5976TIP3    H139419   1.426   5.574  11.600 -1.5585  1.8772 -0.6569
 5976TIP3    H239420   1.494   5.566  11.465 -0.4114  0.0031  0.0032
 5977TIP3   OH239421   4.091   5.929  14.425 -0.0707  0.3501  0.0851
 5977TIP3    H139422   4.002   5.938  14.458 -0.0979  0.1535  0.0640
 5977TIP3    H239423   4.080   5.906  14.333 -0.0150 -1.2070  0.4458
 5978TIP3   OH239424   4.673   0.159  16.960  0.0044  0.5454 -0.8736
 5978TIP3    H139425   4.704   0.071  16.980 -1.7711 -0.1463 -1.0117
 5978TIP3    H239426   4.584   0.162  16.994  0.3924  2.6959  0.1748
 5979TIP3   OH239427   3.120   3.597   5.151  0.0130 -0.8169  0.0445
 5979TIP3    H139428   3.200   3.648   5.138 -0.3372  0.3985  2.0399
 5979TIP3    H239429   3.089   3.577   5.063  1.7324 -0.0472 -0.7803
 5980TIP3   OH239430   1.351   4.557   0.585 -0.9635 -0.1062  0.5351
 5980TIP3    H139431   1.296   4.541   0.662 -0.0203 -0.9422  1.0700
 5980TIP3    H239432   1.297   4.532   0.511 -0.4800 -3.6188  1.1777
 5981TIP3   OH239433   2.800   1.798  14.643 -0.0116 -0.3794  0.3749
 5981TIP3    H139434   2.726   1.753  14.603  0.4231 -0.6069 -0.1895
 5981TIP3    H239435   2.764   1.839  14.722 -0.9624  0.4296 -0.4622
 5982TIP3   OH239436   4.988   4.727  16.082  0.0490 -0.5671 -0.0825
 5982TIP3    H139437   5.027   4.691  16.161 -1.5234 -0.7133  0.6606
 5982TIP3    H239438   5.063   4.754  16.028  1.1368 -0.3712  1.4792
 5983TIP3   OH239439   5.590   1.720  14.061  0.1761 -0.5627 -0.0468
 5983TIP3    H139440   5.644   1.687  14.134  1.0922  1.2950  0.1615
 5983TIP3    H239441   5.524   1.775  14.103  0.9653  0.8620 -0.5984
 5984TIP3   OH239442   6.624   0.246  16.737  0.3297 -0.1137 -0.0036
 5984TIP3    H139443   6.578   0.266  16.655  0.9062 -0.1251 -0.3316
 5984TIP3    H239444   6.555   0.247  16.804 -0.5724 -2.3674 -0.8095
 5985TIP3   OH239445   3.662   4.193  17.137 -0.3682  0.2829 -0.2510
 5985TIP3    H139446   3.629   4.127  17.198 -1.2503  1.7832  0.9863
 5985TIP3    H239447   3.631   4.276  17.173  1.4022  1.4561 -1.2859
 5986TIP3   OH239448   0.680   1.396  14.724 -0.1457 -0.2537  0.2628
 5986TIP3    H139449   0.741   1.391  14.651 -1.2369  0.3956 -0.7341
 5986TIP3    H239450   0.630   1.314  14.718 -2.1440  0.9512 -1.5541
 5987TIP3   OH239451   5.561   6.741   0.628  0.6975  0.7312  0.2249
 5987TIP3    H139452   5.508   6.820   0.642  0.8031  0.6371  1.2220
 5987TIP3    H239453   5.573   6.737   0.534 -1.5110  0.4708 -0.1170
 5988TIP3   OH239454   5.164   1.791   2.756  0.3963 -0.3981 -0.4254
 5988TIP3    H139455   5.234   1.736   2.721  1.4194  0.2076  0.5870
 5988TIP3    H239456   5.209   1.865   2.797 -0.7749 -0.3988  0.9671
 5989TIP3   OH239457   5.339   3.539   2.972  0.1186 -0.3370  0.0086
 5989TIP3    H139458   5.272   3.525   2.906 -0.1715 -0.1737  0.2663
 5989TIP3    H239459   5.408   3.589   2.926 -0.6143  0.8317  0.1294
 5990TIP3   OH239460   4.526   5.807  15.528 -0.0900 -0.6171 -0.0870
 5990TIP3    H139461   4.524   5.740  15.461 -2.4916  0.5773 -1.3375
 5990TIP3    H239462   4.580   5.877  15.491  1.2906 -1.2325  0.6604
 5991TIP3   OH239463   5.113   0.444   5.393 -0.2317 -0.1633 -0.3124
 5991TIP3    H139464   5.194   0.493   5.373  2.8105 -3.9137  1.4965
 5991TIP3    H239465   5.095   0.466   5.484 -0.7490 -0.0593 -0.4381
 5992TIP3   OH239466   1.425   6.522  14.288  0.3167 -0.2888 -0.4771
 5992TIP3    H139467   1.502   6.466  14.283  0.1178 -0.4683 -1.7379
 5992TIP3    H239468   1.351   6.461  14.293  0.2027 -0.1264 -0.1577
 5993TIP3   OH239469   3.164   5.699  14.561  0.5224  0.1841 -0.1053
 5993TIP3    H139470   3.156   5.794  14.554 -1.2292 -0.0534 -2.3941
 5993TIP3    H239471   3.258   5.682  14.556  0.9356  1.8155  1.3435
 5994TIP3   OH239472   4.703   5.249  13.307  0.4957  0.1759 -0.1534
 5994TIP3    H139473   4.642   5.182  13.336 -0.7184  1.2831 -0.0330
 5994TIP3    H239474   4.702   5.315  13.377  1.3765  0.4928 -0.4235
 5995TIP3   OH239475   0.667   1.115   4.407  0.1183  0.4817 -0.3378
 5995TIP3    H139476   0.745   1.169   4.391  0.8772 -0.0717  1.3446
 5995TIP3    H239477   0.594   1.177   4.401  0.9101  1.5716  0.7421
 5996TIP3   OH239478   1.788   0.645   4.920  0.8236  0.4484 -0.1373
 5996TIP3    H139479   1.769   0.711   4.853  0.1419  1.7064  1.2433
 5996TIP3    H239480   1.708   0.593   4.926  1.2970 -0.4269 -1.0960
 5997TIP3   OH239481   5.441   5.599  11.227 -0.0063  0.2437  0.1867
 5997TIP3    H139482   5.440   5.677  11.283 -0.7025  0.0679  0.4263
 5997TIP3    H239483   5.528   5.599  11.188  0.4018  0.5029  1.0781
 5998TIP3   OH239484   1.510   4.131   3.088  0.5985 -0.6852 -0.4776
 5998TIP3    H139485   1.535   4.163   3.175  0.4178 -0.4064 -0.5305
 5998TIP3    H239486   1.479   4.041   3.104 -0.1053 -0.3890 -0.1538
 5999TIP3   OH239487   1.340   2.034  11.846  0.6443 -0.1424  0.1363
 5999TIP3    H139488   1.354   1.978  11.923 -0.1531 -0.3682  0.1230
 5999TIP3    H239489   1.425   2.034  11.801  1.5252  1.0062  1.6721
 6000TIP3   OH239490   6.767   2.211   0.515 -0.2124 -0.3338 -0.1986
 6000TIP3    H139491   6.808   2.291   0.483 -0.0127 -0.3281  0.0730
 6000TIP3    H239492   6.801   2.143   0.457  0.4905 -0.3887  0.2626
 6001TIP3   OH239493   4.492   3.706   6.030 -0.1656  0.1084  0.0362
 6001TIP3    H139494   4.468   3.710   6.122  0.3259 -0.7925  0.2115
 6001TIP3    H239495   4.523   3.795   6.009 -2.1502  0.8715  0.1904
 6002TIP3   OH239496   5.094   2.189   3.376 -0.1604 -0.0791 -0.2892
 6002TIP3    H139497   5.069   2.174   3.285  0.1641  0.5389 -0.4838
 6002TIP3    H239498   5.055   2.116   3.424 -0.5166 -0.2884 -0.8921
 6003TIP3   OH239499   2.217   5.163   6.313 -0.3599 -0.4262  0.4786
 6003TIP3    H139500   2.216   5.070   6.292  0.4566 -0.3457  0.0343
 6003TIP3    H239501   2.248   5.205   6.232 -1.9172  0.3541  0.2516
 6004TIP3   OH239502   2.936   4.376   3.005 -0.3120 -0.0372 -0.2337
 6004TIP3    H139503   2.855   4.355   3.051  0.8381  0.2626  2.0590
 6004TIP3    H239504   2.980   4.291   2.996 -0.7533 -0.1697 -1.2975
 6005TIP3   OH239505   0.546   2.129  13.282  0.0928  0.3143  0.2148
 6005TIP3    H139506   0.631   2.088  13.269 -0.8637 -1.2054 -1.8929
 6005TIP3    H239507   0.499   2.113  13.200 -0.9631  4.2891 -0.1720
 6006TIP3   OH239508   6.757   3.660  12.416 -0.1935  0.0569 -0.6557
 6006TIP3    H139509   6.790   3.661  12.326  0.9261 -1.0966 -0.2917
 6006TIP3    H239510   6.663   3.670  12.408 -0.3183 -1.7894 -2.0887
 6007TIP3   OH239511   1.229   3.723  14.655 -0.2637 -0.4678  0.0586
 6007TIP3    H139512   1.167   3.729  14.582 -0.1237 -2.1348 -0.2384
 6007TIP3    H239513   1.182   3.675  14.723  0.2967 -0.7253  0.2713
 6008TIP3   OH239514   4.094   6.059   3.851  0.1796 -0.3729 -0.2160
 6008TIP3    H139515   4.083   6.066   3.756 -0.5191  0.0052 -0.1210
 6008TIP3    H239516   4.184   6.085   3.867 -0.1168  0.9817 -0.6452
 6009TIP3   OH239517   6.294   2.903  14.760  0.0277 -0.6219 -0.4107
 6009TIP3    H139518   6.324   2.824  14.715 -0.4915 -0.4832 -1.0076
 6009TIP3    H239519   6.364   2.967  14.746 -0.0487 -0.6365 -0.8670
 6010TIP3   OH239520   4.555   3.626   3.196 -0.0705 -0.1685  0.1322
 6010TIP3    H139521   4.472   3.667   3.218 -1.7361 -3.0669 -0.2377
 6010TIP3    H239522   4.584   3.671   3.117 -0.1560  2.2564  1.3862
 6011TIP3   OH239523   3.112   1.297   1.605 -0.1254  0.2335  0.6148
 6011TIP3    H139524   3.204   1.321   1.597  0.6207 -2.4532  0.0433
 6011TIP3    H239525   3.067   1.350   1.539  1.5032 -0.4646 -1.1518
 6012TIP3   OH239526   6.452   1.753  15.797  0.5108 -0.4961  0.0454
 6012TIP3    H139527   6.407   1.780  15.717  0.7155 -0.7763 -0.1658
 6012TIP3    H239528   6.382   1.749  15.863  0.1997 -1.0398 -0.3079
 6013TIP3   OH239529   0.421   3.514   0.165 -0.4240  0.5126  0.2763
 6013TIP3    H139530   0.382   3.559   0.239 -0.2697  1.3713 -0.1594
 6013TIP3    H239531   0.353   3.514   0.097 -0.9199 -1.1229  0.7199
 6014TIP3   OH239532   2.749   5.692  10.541 -0.1909 -0.5755  0.3387
 6014TIP3    H139533   2.819   5.629  10.551  0.0253 -0.3321  0.3674
 6014TIP3    H239534   2.736   5.728  10.628  1.0595  0.8678 -0.0264
 6015TIP3   OH239535   2.719   5.121  15.489  0.1154  0.6312  0.3840
 6015TIP3    H139536   2.710   5.033  15.526 -1.9290  1.0614  1.0222
 6015TIP3    H239537   2.675   5.116  15.404  0.2508  0.9667  0.2921
 6016TIP3   OH239538   1.148   4.619   4.425 -0.3302  0.0378  0.2151
 6016TIP3    H139539   1.152   4.554   4.355  1.6918  1.6317 -1.2763
 6016TIP3    H239540   1.147   4.703   4.380  0.1856  1.1198  2.1026
 6017TIP3   OH239541   4.743   6.601  13.088  0.1799  0.1513  0.2893
 6017TIP3    H139542   4.720   6.625  13.178  0.8465 -1.9813  1.0816
 6017TIP3    H239543   4.697   6.518  13.073 -0.9427  1.0710 -1.8306
 6018TIP3   OH239544   0.570   6.101   5.638 -0.7138 -0.5654  0.2241
 6018TIP3    H139545   0.624   6.122   5.562  1.3312 -1.5029  1.3685
 6018TIP3    H239546   0.509   6.175   5.644  1.1015  1.0938 -0.5214
 6019TIP3   OH239547   1.065   2.949  17.137 -0.7707  0.2895 -0.4749
 6019TIP3    H139548   1.144   2.980  17.093  0.8424 -1.8906  0.6855
 6019TIP3    H239549   0.999   3.014  17.116  1.4897  2.6037 -0.9252
 6020TIP3   OH239550   3.880   3.432   5.169  0.3904 -0.4612  0.6294
 6020TIP3    H139551   3.872   3.485   5.090 -0.2974 -1.2365  0.1548
 6020TIP3    H239552   3.896   3.495   5.240 -2.5000  0.6370  0.4353
 6021TIP3   OH239553   0.250   2.743  13.409  0.1810  0.2854 -0.4780
 6021TIP3    H139554   0.168   2.727  13.363 -0.8700 -1.4518  1.8734
 6021TIP3    H239555   0.317   2.706  13.351 -0.9763 -0.8069 -1.1699
 6022TIP3   OH239556   2.509   4.262   5.654  0.2253 -0.3569 -0.5788
 6022TIP3    H139557   2.462   4.236   5.575  0.6401  0.2951 -1.0554
 6022TIP3    H239558   2.485   4.354   5.667  1.3462 -0.0058 -0.8416
 6023TIP3   OH239559   2.290   0.244  15.618 -0.2437  0.5125  0.6052
 6023TIP3    H139560   2.195   0.251  15.616 -0.2213  1.0245  1.2077
 6023TIP3    H239561   2.311   0.189  15.543 -1.0726 -0.2161  0.8830
 6024TIP3   OH239562   3.764   0.501  13.306 -0.4659  0.5654 -0.3974
 6024TIP3    H139563   3.795   0.456  13.384  1.1315 -0.4338 -1.5367
 6024TIP3    H239564   3.687   0.452  13.279 -1.4564  1.3484  0.9017
 6025TIP3   OH239565   6.523   6.268  12.012 -0.4571 -0.2788 -0.1164
 6025TIP3    H139566   6.497   6.245  12.101 -1.5105 -1.7935 -0.7692
 6025TIP3    H239567   6.446   6.311  11.976 -0.4895 -0.7932 -0.6734
 6026TIP3   OH239568   4.377   0.578   5.332 -0.5646 -0.5156  0.2165
 6026TIP3    H139569   4.293   0.604   5.294  0.4984  2.0032 -0.6520
 6026TIP3    H239570   4.407   0.657   5.378  1.6913 -1.0595 -0.2155
 6027TIP3   OH239571   3.867   1.276   0.537  0.2480 -0.5494  0.4814
 6027TIP3    H139572   3.947   1.227   0.557  0.9883  0.6703  0.6552
 6027TIP3    H239573   3.811   1.264   0.613  0.6930 -0.5913  0.8059
 6028TIP3   OH239574   6.387   1.838  14.399 -0.3048 -0.3453 -0.5038
 6028TIP3    H139575   6.296   1.842  14.431 -0.8773  1.6705 -2.2180
 6028TIP3    H239576   6.389   1.758  14.346 -1.2380 -0.1335 -0.8841
 6029TIP3   OH239577   6.077   0.667   6.395  0.1382 -0.4463  0.3682
 6029TIP3    H139578   6.164   0.649   6.432 -0.0320 -1.3720  0.3383
 6029TIP3    H239579   6.018   0.664   6.470 -0.2288 -2.4722  0.0442
 6030TIP3   OH239580   2.901   2.821  14.290  0.0995  0.3442  0.3189
 6030TIP3    H139581   2.839   2.776  14.233  0.0415  0.3303  0.3918
 6030TIP3    H239582   2.903   2.769  14.370  0.4600  0.1620  0.1903
 6031TIP3   OH239583   3.828   2.638   4.392 -0.0157  0.2149 -0.0859
 6031TIP3    H139584   3.746   2.643   4.344 -0.4282 -0.2270  0.5535
 6031TIP3    H239585   3.806   2.666   4.481  0.0370 -1.9068  0.6599
 6032TIP3   OH239586   5.839   2.248   3.543  0.0620 -0.1981 -0.4592
 6032TIP3    H139587   5.767   2.235   3.481 -0.1926  0.1585 -0.2440
 6032TIP3    H239588   5.916   2.214   3.498 -0.3109 -0.9731 -0.5337
 6033TIP3   OH239589   3.283   0.403  12.183  0.5774  0.0326  0.7759
 6033TIP3    H139590   3.294   0.316  12.221 -0.4489 -1.2412 -1.6122
 6033TIP3    H239591   3.190   0.407  12.161  0.7839  1.3758  0.0634
 6034TIP3   OH239592   0.049   0.694  11.488  0.0021 -0.1654 -0.1870
 6034TIP3    H139593  -0.038   0.721  11.518  0.7624  0.9389  1.1078
 6034TIP3    H239594   0.109   0.723  11.556  1.5058 -0.0796 -1.4793
 6035TIP3   OH239595   1.343   4.904  16.224 -0.1247  0.0640 -0.0024
 6035TIP3    H139596   1.337   4.810  16.241 -0.9775  0.1901  0.4302
 6035TIP3    H239597   1.284   4.919  16.151  1.1245  0.0398 -1.0386
 6036TIP3   OH239598   2.454   3.065  16.057  0.4343  0.4748 -0.2030
 6036TIP3    H139599   2.535   3.105  16.090  1.4394  0.8397 -2.8668
 6036TIP3    H239600   2.462   2.973  16.082  1.1260  0.7126  0.5326
 6037TIP3   OH239601   1.820   2.069   2.821  0.7404  0.0614 -0.2945
 6037TIP3    H139602   1.820   2.142   2.759  0.5718 -0.4240 -0.8802
 6037TIP3    H239603   1.906   2.073   2.863  1.0525  0.1021 -0.9242
 6038TIP3   OH239604   0.717   2.908  11.710 -0.4092  0.0325  0.6723
 6038TIP3    H139605   0.633   2.953  11.718 -0.7578 -0.7064  1.3279
 6038TIP3    H239606   0.696   2.815  11.724  0.3848 -0.2586 -0.0136
 6039TIP3   OH239607   2.081   4.011   0.560  0.0923 -0.7771  0.1963
 6039TIP3    H139608   2.081   3.944   0.627 -0.9950 -0.0227  0.9766
 6039TIP3    H239609   1.994   4.051   0.565 -0.1021 -0.8500 -1.8102
 6040TIP3   OH239610   1.864   3.729  13.566  0.1001 -0.0821  0.5896
 6040TIP3    H139611   1.821   3.815  13.571  0.3010  0.0269  0.4544
 6040TIP3    H239612   1.880   3.706  13.658  0.2694  0.1394  0.6179
 6041TIP3   OH239613   2.512   3.374  17.177  0.1888 -0.2533  0.3524
 6041TIP3    H139614   2.602   3.408  17.177 -0.1024  0.8659 -2.9266
 6041TIP3    H239615   2.467   3.426  17.244  1.4277  0.8636  0.3634
 6042TIP3   OH239616   2.534   0.020  13.629  0.4738  0.2012 -0.0809
 6042TIP3    H139617   2.449  -0.017  13.605 -0.0031  0.3880  1.2545
 6042TIP3    H239618   2.598  -0.042  13.594 -0.1415  0.6767 -2.1626
 6043TIP3   OH239619   1.685   5.465  12.532 -0.1132 -0.1727  0.0515
 6043TIP3    H139620   1.636   5.512  12.465  0.0426  0.6268  0.4841
 6043TIP3    H239621   1.763   5.433  12.487 -0.9024 -1.2413 -0.5783
 6044TIP3   OH239622   0.722   4.413  14.090  0.0209  0.0501 -0.3573
 6044TIP3    H139623   0.813   4.385  14.099 -0.2775 -1.2531 -1.1447
 6044TIP3    H239624   0.674   4.358  14.152 -0.8196 -2.6176 -3.1252
 6045TIP3   OH239625   2.981   3.179  14.498  0.3327  0.1437  0.1285
 6045TIP3    H139626   2.938   3.203  14.580  0.2759  2.1167 -0.4248
 6045TIP3    H239627   3.052   3.120  14.523  0.7643  1.2770  1.6914
 6046TIP3   OH239628   3.544   3.634   5.385  0.4470 -0.3180  0.5989
 6046TIP3    H139629   3.518   3.713   5.434  0.6493 -0.4043  0.8487
 6046TIP3    H239630   3.504   3.645   5.299 -2.2750 -1.4598  1.6010
 6047TIP3   OH239631   5.447   3.141   4.632  0.0371 -0.2271  0.6999
 6047TIP3    H139632   5.369   3.193   4.610 -1.0501 -1.9599  0.2064
 6047TIP3    H239633   5.510   3.205   4.664 -2.3875  1.0416  3.4203
 6048TIP3   OH239634   0.717   5.321   1.323 -0.3378 -0.9249  0.1339
 6048TIP3    H139635   0.679   5.282   1.402 -1.4906 -0.5123 -0.2050
 6048TIP3    H239636   0.648   5.315   1.258 -0.1795  0.7616 -0.2194
 6049TIP3   OH239637   5.753   1.327   0.798  0.2291 -0.0691  0.2387
 6049TIP3    H139638   5.784   1.404   0.844  0.0552 -0.1797  0.5436
 6049TIP3    H239639   5.828   1.269   0.794  0.5406  0.3729 -0.5529
 6050TIP3   OH239640   4.593   0.469  12.307 -0.0097  0.3587  0.3410
 6050TIP3    H139641   4.542   0.445  12.385  0.2475  1.0896  0.7407
 6050TIP3    H239642   4.594   0.564  12.307  0.3788  0.3616 -0.3145
 6051TIP3   OH239643   4.535   4.149   5.232  0.4252  0.7633 -0.0655
 6051TIP3    H139644   4.544   4.211   5.304 -0.8672  0.0311  0.7687
 6051TIP3    H239645   4.616   4.099   5.233 -0.6470 -1.1412  2.7793
 6052TIP3   OH239646   2.324   0.173   3.921  0.4421  0.0540  0.5577
 6052TIP3    H139647   2.414   0.150   3.895  0.4954  0.4485  0.3778
 6052TIP3    H239648   2.278   0.090   3.924  0.2003  0.0161 -1.7275
 6053TIP3   OH239649   3.729   6.108   0.126  0.4513 -0.3901  0.0814
 6053TIP3    H139650   3.680   6.160   0.190  0.3184 -0.7220  0.2510
 6053TIP3    H239651   3.815   6.094   0.166  0.6214  0.0216 -0.1301
 6054TIP3   OH239652   1.488   5.954  14.763 -0.2538  0.3805  0.0412
 6054TIP3    H139653   1.419   5.992  14.817  1.0717  1.2515  1.2142
 6054TIP3    H239654   1.536   5.897  14.824 -0.8632 -1.5054 -1.1421
 6055TIP3   OH239655   2.519   2.921   1.705  0.7701 -0.3498 -0.0839
 6055TIP3    H139656   2.491   2.879   1.785  1.9873 -0.6393  0.2103
 6055TIP3    H239657   2.585   2.862   1.668  1.4923  0.6135 -0.3779
 6056TIP3   OH239658   3.181   3.250  12.323  0.2251 -0.1538 -0.0889
 6056TIP3    H139659   3.100   3.301  12.325 -0.4475 -1.2126  1.0510
 6056TIP3    H239660   3.177   3.203  12.239 -0.6212 -0.6222  0.2000
 6057TIP3   OH239661   1.713   2.631  16.527 -0.1278  0.3230 -0.0366
 6057TIP3    H139662   1.644   2.665  16.584  1.5326  4.1618 -0.0211
 6057TIP3    H239663   1.787   2.614  16.586 -0.1348 -1.0948 -0.4017
 6058TIP3   OH239664   4.297   1.701   4.539  0.9601  0.1838  0.6631
 6058TIP3    H139665   4.256   1.784   4.565  0.3383 -0.7761  3.0702
 6058TIP3    H239666   4.378   1.697   4.590  0.9070 -0.7435  0.6946
 6059TIP3   OH239667   5.847   6.112  16.722  0.2692  0.0427  0.1519
 6059TIP3    H139668   5.925   6.071  16.760  1.0483  0.6013 -0.8098
 6059TIP3    H239669   5.866   6.205  16.721 -0.6737  0.2542  0.4630
 6060TIP3   OH239670   5.341   3.442   4.801  0.1472  0.6645  0.0495
 6060TIP3    H139671   5.292   3.397   4.870  1.3049  0.0668  0.5207
 6060TIP3    H239672   5.312   3.401   4.720  0.8893 -0.6958  0.4398
 6061TIP3   OH239673   2.278   2.234  12.351 -0.2061  0.5835 -0.7304
 6061TIP3    H139674   2.349   2.188  12.396 -0.2198  2.1133  0.9742
 6061TIP3    H239675   2.289   2.325  12.377 -2.2997  0.9891 -1.1137
 6062TIP3   OH239676   4.935   6.753  14.918 -0.3801  0.4216 -0.2352
 6062TIP3    H139677   5.029   6.759  14.936 -0.3780 -2.2366  1.1293
 6062TIP3    H239678   4.894   6.812  14.981  0.2276 -1.3306  1.9175
 6063TIP3   OH239679   4.438   5.165  12.961 -0.4849 -0.0930 -0.2131
 6063TIP3    H139680   4.421   5.191  12.870 -0.3238  0.0210 -0.2123
 6063TIP3    H239681   4.379   5.220  13.013 -1.3232 -0.8797 -0.3035
 6064TIP3   OH239682   3.777   0.149  16.077  0.3442  0.0212 -0.0944
 6064TIP3    H139683   3.864   0.172  16.043  0.7393 -0.2535  0.6988
 6064TIP3    H239684   3.775   0.053  16.074  0.0556  0.0277 -0.1326
 6065TIP3   OH239685   2.700   1.666  14.933  0.9715  0.2301 -0.5519
 6065TIP3    H139686   2.730   1.588  14.888  1.4780  0.0049  0.1582
 6065TIP3    H239687   2.719   1.738  14.872  0.0283 -0.2390 -1.4190
 6066TIP3   OH239688   0.897   0.754  14.394  0.1774 -0.0905  0.0361
 6066TIP3    H139689   0.818   0.771  14.445 -0.3143  0.7638 -0.9847
 6066TIP3    H239690   0.871   0.687  14.331 -0.7621  2.4908 -2.5159
 6067TIP3   OH239691   4.499   1.713   4.710 -0.3365 -0.3139 -0.2945
 6067TIP3    H139692   4.559   1.781   4.739 -0.2287 -0.3700 -0.3862
 6067TIP3    H239693   4.465   1.675   4.791 -0.4120 -0.1391 -0.2428
 6068TIP3   OH239694   5.679   1.473  13.911 -0.1854  0.1517 -0.2979
 6068TIP3    H139695   5.627   1.553  13.917 -0.7307 -0.1544 -0.8235
 6068TIP3    H239696   5.640   1.425  13.838  0.6532 -0.2200 -0.5060
 6069TIP3   OH239697   3.391   5.504  14.730  0.1504  0.6061 -0.2995
 6069TIP3    H139698   3.474   5.469  14.764  0.6053  1.0285 -0.9593
 6069TIP3    H239699   3.349   5.544  14.806  0.4129  0.1259  0.1040
 6070TIP3   OH239700   6.046   6.726   6.124 -0.4132  0.3799  0.2279
 6070TIP3    H139701   6.106   6.734   6.198 -0.5731  0.3396  0.3639
 6070TIP3    H239702   6.020   6.633   6.124 -0.2627  0.3378  0.0019
 6071TIP3   OH239703   2.022   2.263  15.780 -0.1271 -0.3742  0.0157
 6071TIP3    H139704   2.081   2.254  15.855 -0.5023  0.0671  0.3711
 6071TIP3    H239705   2.036   2.183  15.728  2.5642  0.7621 -1.2016
 6072TIP3   OH239706   0.908   4.873  12.111  0.3052 -0.9671  0.1262
 6072TIP3    H139707   0.876   4.817  12.040  2.1855 -1.2836 -0.5399
 6072TIP3    H239708   0.931   4.955  12.067  2.2427 -1.4351  0.1384
 6073TIP3   OH239709   3.250   6.697   5.834  0.1041  0.5936  0.0459
 6073TIP3    H139710   3.175   6.663   5.883 -1.4257  1.2323 -1.7079
 6073TIP3    H239711   3.256   6.789   5.861  0.7279  0.3698  0.7004
 6074TIP3   OH239712   5.921   1.918   0.722  0.4252 -0.4181 -0.3767
 6074TIP3    H139713   5.934   1.986   0.787 -0.3975  0.2152 -0.8579
 6074TIP3    H239714   5.866   1.959   0.655  0.5313 -1.3243 -1.0375
 6075TIP3   OH239715   6.719   2.501   4.519 -0.0625 -0.1206 -0.2609
 6075TIP3    H139716   6.713   2.535   4.430  0.8229  0.6938 -0.0273
 6075TIP3    H239717   6.658   2.427   4.521 -0.3095  0.0352 -1.4488
 6076TIP3   OH239718   1.456   1.119  15.709 -0.4595  0.2275 -0.0594
 6076TIP3    H139719   1.385   1.136  15.771 -0.4863  0.1865 -0.0795
 6076TIP3    H239720   1.450   1.026  15.690  0.5779 -0.1270  1.1598
 6077TIP3   OH239721   5.585   2.648   0.789 -0.0915  0.4128  0.1214
 6077TIP3    H139722   5.557   2.592   0.860 -0.5846  1.9334  1.1756
 6077TIP3    H239723   5.680   2.635   0.783 -0.4856 -2.8052 -1.7511
 6078TIP3   OH239724   4.994   0.184   4.160  0.1149 -0.4945 -0.5653
 6078TIP3    H139725   4.922   0.147   4.109 -0.1178 -0.4891 -0.2362
 6078TIP3    H239726   5.065   0.193   4.096  0.2152 -1.6039 -0.6280
 6079TIP3   OH239727   0.348   0.151   3.637 -0.1973 -0.1736  0.1371
 6079TIP3    H139728   0.410   0.086   3.669 -0.7553 -0.6417  0.2837
 6079TIP3    H239729   0.305   0.184   3.716 -0.8567 -0.5981 -0.0368
 6080TIP3   OH239730   4.585   4.428  11.552 -0.2360 -0.3128 -0.1328
 6080TIP3    H139731   4.544   4.414  11.467 -2.1839  1.3033  0.4388
 6080TIP3    H239732   4.600   4.522  11.556  1.2917 -0.5619  0.7209
 6081TIP3   OH239733   4.458   1.922  16.675 -0.0745 -0.1631  0.5508
 6081TIP3    H139734   4.442   1.915  16.769  1.0385  0.2663  0.7836
 6081TIP3    H239735   4.502   1.841  16.651 -0.7726 -0.4765  0.2967
 6082TIP3   OH239736   1.597   3.392  12.335 -0.3776  0.2924  0.3742
 6082TIP3    H139737   1.598   3.485  12.312  0.8225  0.1612 -0.1650
 6082TIP3    H239738   1.567   3.390  12.426  2.2509  1.4679  1.3822
 6083TIP3   OH239739   4.365   1.688  10.544  0.5806 -0.4967 -0.5042
 6083TIP3    H139740   4.337   1.608  10.589 -0.5040 -0.0847 -0.4001
 6083TIP3    H239741   4.410   1.658  10.466  1.2331 -1.2107  0.1321
 6084TIP3   OH239742   0.360   4.795   5.800 -0.2038 -0.0824 -0.0869
 6084TIP3    H139743   0.273   4.819   5.766 -0.4959 -1.1461 -0.1350
 6084TIP3    H239744   0.414   4.872   5.783 -0.5913 -0.1819 -2.0559
 6085TIP3   OH239745   5.507   1.380   1.835  0.2347  0.2929 -0.1220
 6085TIP3    H139746   5.416   1.406   1.851 -0.1031 -1.0113  0.1570
 6085TIP3    H239747   5.551   1.462   1.814 -1.3625  0.7623 -1.9882
 6086TIP3   OH239748   2.708   1.652   4.977  0.5279  0.3281 -0.2270
 6086TIP3    H139749   2.651   1.638   4.902  0.6106 -0.3973 -0.1659
 6086TIP3    H239750   2.797   1.638   4.942  0.5087 -1.1187  0.2199
 6087TIP3   OH239751   5.418   5.466   1.823  0.3091 -0.1068  0.4761
 6087TIP3    H139752   5.462   5.451   1.907  0.3431  0.9359  0.6608
 6087TIP3    H239753   5.334   5.422   1.832 -0.4399  1.4893  1.7653
 6088TIP3   OH239754   3.021   1.211  16.635  0.4020 -0.6063  0.1904
 6088TIP3    H139755   2.987   1.210  16.546 -0.3418 -0.4855  0.4635
 6088TIP3    H239756   2.944   1.226  16.690  0.9583  0.0575  0.8077
 6089TIP3   OH239757   1.368   4.868  14.195  0.3634  0.3970 -0.4658
 6089TIP3    H139758   1.344   4.961  14.190 -0.0457  0.2698 -0.9237
 6089TIP3    H239759   1.463   4.867  14.183  0.7735  0.9820  2.1279
 6090TIP3   OH239760   3.055   5.520   2.569  0.7762 -0.3416  0.1006
 6090TIP3    H139761   3.142   5.504   2.534  1.6039 -1.6001  2.4560
 6090TIP3    H239762   3.009   5.437   2.558 -0.0101  0.1998 -0.7840
 6091TIP3   OH239763   6.498   6.538   2.995 -0.6369  0.9365  0.5148
 6091TIP3    H139764   6.409   6.551   3.028 -1.5872  0.0821 -1.5548
 6091TIP3    H239765   6.537   6.474   3.055 -1.7439  0.6176  0.9137
 6092TIP3   OH239766   0.604   2.741   3.770  0.5832 -0.2720 -0.3490
 6092TIP3    H139767   0.566   2.678   3.832  1.4507 -1.0662 -0.6035
 6092TIP3    H239768   0.661   2.688   3.714  0.2090  0.5144 -1.5082
 6093TIP3   OH239769   1.826   1.936  15.352  0.4120 -0.1149 -0.1838
 6093TIP3    H139770   1.805   2.029  15.342  0.6709 -0.1338 -0.9820
 6093TIP3    H239771   1.750   1.899  15.396 -1.0754 -0.0851 -2.5050
 6094TIP3   OH239772   3.327   1.962  12.798  0.7949 -0.4316 -0.1329
 6094TIP3    H139773   3.247   1.991  12.841  0.0171 -1.4214 -0.8886
 6094TIP3    H239774   3.390   1.953  12.870 -0.1237 -0.8444  0.6371
 6095TIP3   OH239775   0.109   5.015  12.338 -0.3628 -0.4184  0.5408
 6095TIP3    H139776   0.153   5.094  12.367 -0.7605 -0.4061  1.1250
 6095TIP3    H239777   0.105   5.023  12.243  0.9998 -0.4849  0.4682
 6096TIP3   OH239778   2.123   2.705  13.946  0.1563  0.0775  0.1238
 6096TIP3    H139779   2.061   2.776  13.963  1.0100  0.3194  2.6484
 6096TIP3    H239780   2.209   2.748  13.943  0.3670 -0.3891 -2.2878
 6097TIP3   OH239781   1.776   6.365   2.850  0.2324 -0.2158  0.0176
 6097TIP3    H139782   1.863   6.372   2.813  0.2337 -2.1064 -0.4294
 6097TIP3    H239783   1.717   6.388   2.778  0.3235 -1.0353 -0.3340
 6098TIP3   OH239784   3.589   1.309  12.078  0.0162 -0.5252  0.3225
 6098TIP3    H139785   3.502   1.286  12.044 -0.6746 -2.5045  3.1252
 6098TIP3    H239786   3.645   1.236  12.050  0.7459  0.5123 -1.0627
 6099TIP3   OH239787   2.124   5.217   4.940  0.2751 -0.5673  0.0303
 6099TIP3    H139788   2.214   5.224   4.970 -0.1453 -0.7591  1.4601
 6099TIP3    H239789   2.072   5.245   5.016 -0.8808 -1.6342 -0.3265
 6100TIP3   OH239790   0.876   4.463   0.272  0.0352 -0.0080 -0.7845
 6100TIP3    H139791   0.903   4.414   0.194 -1.4019  1.7164 -2.4418
 6100TIP3    H239792   0.959   4.491   0.311  0.7890  0.1280 -2.3878
 6101TIP3   OH239793   3.079   5.391  12.862 -0.6382 -0.1534 -1.1848
 6101TIP3    H139794   3.163   5.429  12.888 -1.7343  0.6216  1.5898
 6101TIP3    H239795   3.077   5.305  12.905 -0.9935 -0.4579 -1.7940
 6102TIP3   OH239796   2.063   1.748  14.384  0.3074 -0.0908  0.3413
 6102TIP3    H139797   2.144   1.698  14.375  0.2335  0.0584 -1.5697
 6102TIP3    H239798   2.055   1.796  14.301 -2.6414 -1.5015 -0.3328
 6103TIP3   OH239799   6.032   2.077   3.434  0.2163  0.2987  0.0451
 6103TIP3    H139800   5.971   2.094   3.362  0.0319  1.3988  0.4431
 6103TIP3    H239801   6.011   1.988   3.463 -1.2805  0.6797  0.2417
 6104TIP3   OH239802   5.030   2.724   4.841  0.0501 -0.1442  0.0823
 6104TIP3    H139803   5.058   2.771   4.762  0.1506 -0.6474 -0.1805
 6104TIP3    H239804   5.100   2.741   4.904 -0.0832  0.3507  0.1079
 6105TIP3   OH239805   3.986   2.669   4.022  0.0293  0.5101 -0.1788
 6105TIP3    H139806   4.018   2.725   4.093  0.1353  0.4575 -0.1841
 6105TIP3    H239807   4.039   2.695   3.946 -0.0059  0.4881 -0.2107
 6106TIP3   OH239808   1.615   5.891  13.889 -0.5979 -0.0225  0.0799
 6106TIP3    H139809   1.698   5.873  13.845 -0.6113  1.9336 -0.8281
 6106TIP3    H239810   1.636   5.883  13.983  0.3515 -0.5337 -0.1544
 6107TIP3   OH239811   0.317   2.014  16.304  0.0665 -0.2910 -0.4759
 6107TIP3    H139812   0.283   2.071  16.235  0.1559  1.2275  0.6969
 6107TIP3    H239813   0.272   1.931  16.291 -0.2019  0.0843 -2.1163
 6108TIP3   OH239814   4.493   6.438  16.054 -0.1962 -1.0119  0.2814
 6108TIP3    H139815   4.483   6.491  16.134 -1.0802  0.0440 -0.5099
 6108TIP3    H239816   4.445   6.357  16.073 -1.4228 -0.2799  0.4065
 6109TIP3   OH239817   4.253   5.011  12.447 -0.1106 -0.4882 -0.5074
 6109TIP3    H139818   4.162   4.982  12.443 -0.6656  0.8121  1.4866
 6109TIP3    H239819   4.251   5.102  12.417  0.0476  0.3777  1.9115
 6110TIP3   OH239820   6.601   2.757   3.358  0.0287  0.0054  0.3938
 6110TIP3    H139821   6.604   2.849   3.382 -0.7158 -0.0757  0.8024
 6110TIP3    H239822   6.691   2.727   3.369 -0.0127  0.3143  1.7197
 6111TIP3   OH239823   5.825   3.291   3.162  0.4305 -0.4205  0.0278
 6111TIP3    H139824   5.882   3.231   3.210 -0.0581 -0.6410  0.3267
 6111TIP3    H239825   5.873   3.374   3.162 -0.6430  0.3182  3.1118
 6112TIP3   OH239826   4.927   2.404  13.712  0.2300 -0.4224 -0.2392
 6112TIP3    H139827   5.004   2.397  13.768 -0.3453  0.6428  0.7205
 6112TIP3    H239828   4.920   2.319  13.669  1.8083 -0.6003 -0.1822
 6113TIP3   OH239829   1.932   1.457   1.694 -0.1732  0.0345 -0.1540
 6113TIP3    H139830   1.841   1.482   1.711 -0.5604 -1.0807 -0.5102
 6113TIP3    H239831   1.957   1.511   1.619 -1.0410 -0.6829 -0.9957
 6114TIP3   OH239832   3.246   1.435  16.363  0.3848 -0.1824 -0.4457
 6114TIP3    H139833   3.172   1.410  16.308  0.4518  1.1238 -1.1647
 6114TIP3    H239834   3.211   1.433  16.453 -0.1341 -0.8967 -0.6591
 6115TIP3   OH239835   3.309   6.352   0.787 -0.2162  0.4215  0.2331
 6115TIP3    H139836   3.222   6.385   0.765 -0.8005 -1.2029 -0.0620
 6115TIP3    H239837   3.365   6.381   0.715 -0.9284 -0.0761 -0.5474
 6116TIP3   OH239838   4.298   3.381  12.688 -0.3341  0.1286 -0.0695
 6116TIP3    H139839   4.352   3.459  12.679 -0.7306  0.5088  0.7363
 6116TIP3    H239840   4.267   3.383  12.779 -1.3320 -0.3133 -0.3767
 6117TIP3   OH239841   2.958   4.515  12.819  0.0028 -0.1230  0.4891
 6117TIP3    H139842   2.930   4.509  12.911 -1.4811 -1.6387 -0.0043
 6117TIP3    H239843   2.889   4.566  12.776 -0.3749 -1.1570 -0.1560
 6118TIP3   OH239844   5.641   6.297   5.365 -0.4459  0.1961 -0.1010
 6118TIP3    H139845   5.646   6.387   5.396 -0.3761  0.7021 -1.5330
 6118TIP3    H239846   5.732   6.268   5.361 -0.4971 -0.1051  0.8108
 6119TIP3   OH239847   6.763   6.615   0.171  0.2014 -0.4731 -0.1423
 6119TIP3    H139848   6.783   6.626   0.264  0.0750  1.0996 -0.2711
 6119TIP3    H239849   6.674   6.579   0.170  0.6917 -1.7475  0.3431
 6120TIP3   OH239850   1.034   2.119   1.117  0.3072  0.2060  0.1434
 6120TIP3    H139851   1.062   2.117   1.025 -0.5061 -0.1123 -0.1067
 6120TIP3    H239852   1.100   2.067   1.163 -0.2459 -1.1825 -0.5612
 6121TIP3   OH239853   0.627   5.943  17.293  0.4457 -0.0114 -0.2290
 6121TIP3    H139854   0.694   5.878  17.272  0.0167 -0.8148  0.7978
 6121TIP3    H239855   0.544   5.895  17.288  0.2140  0.0232  1.9443
 6122TIP3   OH239856   3.826   6.318  16.913  0.0208 -0.2825 -0.4914
 6122TIP3    H139857   3.732   6.299  16.907 -0.2477  1.1656 -1.4747
 6122TIP3    H239858   3.840   6.337  17.006 -0.3283 -1.9650 -0.0641
 6123TIP3   OH239859   2.800   0.466   3.756  0.3527  0.5383  0.4192
 6123TIP3    H139860   2.863   0.499   3.692 -1.1986  1.3840 -0.7379
 6123TIP3    H239861   2.750   0.543   3.783 -0.4908 -0.1760  0.9500
 6124TIP3   OH239862   3.167   0.260  16.521  0.3438  0.7517  0.3493
 6124TIP3    H139863   3.118   0.298  16.448 -0.2689 -0.6432 -0.0051
 6124TIP3    H239864   3.231   0.202  16.479  0.1203  0.0973  0.8902
 6125TIP3   OH239865   1.043   0.496  12.916 -0.3847  0.0750 -0.3849
 6125TIP3    H139866   1.022   0.589  12.930  1.4184  1.0110 -2.9878
 6125TIP3    H239867   1.088   0.469  12.996  0.4543  1.9385 -0.1793
 6126TIP3   OH239868   5.468   2.456  12.630  0.6779  0.1571 -0.1195
 6126TIP3    H139869   5.508   2.370  12.617 -2.4996 -1.2496 -1.4978
 6126TIP3    H239870   5.385   2.452  12.583  0.8193  4.3698 -1.1268
 6127TIP3   OH239871   4.189   5.480  12.646  0.1878  0.8769  0.5365
 6127TIP3    H139872   4.188   5.570  12.613 -0.4142  0.6195 -0.1843
 6127TIP3    H239873   4.107   5.442  12.614 -0.2727  0.5076  2.0780
 6128TIP3   OH239874   4.183   3.634   0.308  0.2758  0.3439 -0.3061
 6128TIP3    H139875   4.199   3.671   0.394  1.4724  1.9248 -1.1560
 6128TIP3    H239876   4.157   3.708   0.254 -0.9896 -0.7026 -1.2070
 6129TIP3   OH239877   0.797   1.255   4.118  0.2119  0.1427 -0.2759
 6129TIP3    H139878   0.736   1.236   4.047  0.5224  1.0452 -0.8101
 6129TIP3    H239879   0.880   1.276   4.073  1.2883 -2.2530  0.4675
 6130TIP3   OH239880   0.630   1.681   3.756  0.8413  0.3399 -0.4020
 6130TIP3    H139881   0.648   1.609   3.695  0.4030  0.6021 -0.8517
 6130TIP3    H239882   0.542   1.710   3.733  1.4836  1.8573 -1.0884
 6131TIP3   OH239883   6.278   1.763  13.465 -0.1742  0.1971 -0.6037
 6131TIP3    H139884   6.237   1.686  13.504  0.8687 -0.8983 -1.6112
 6131TIP3    H239885   6.248   1.836  13.519 -0.3113 -1.0327  1.0401
 6132TIP3   OH239886   0.061   5.966  14.781  0.0447 -0.0402  0.5510
 6132TIP3    H139887   0.015   5.900  14.832 -0.9773 -0.0645 -0.3692
 6132TIP3    H239888  -0.008   6.016  14.737  0.7416  2.0121  1.6329
 6133TIP3   OH239889   4.401   3.758  16.676 -0.2290 -0.2325  0.7965
 6133TIP3    H139890   4.341   3.771  16.750 -0.0235  0.3716  0.8582
 6133TIP3    H239891   4.485   3.793  16.707  1.0958 -3.8908  1.9643
 6134TIP3   OH239892   2.976   0.315  13.676 -0.3232 -0.4530 -0.0600
 6134TIP3    H139893   2.904   0.343  13.620  1.5103  0.3964 -2.1261
 6134TIP3    H239894   3.054   0.353  13.636  1.5365 -2.9567  0.9265
 6135TIP3   OH239895   5.681   4.977   4.378 -0.3072 -0.4080 -0.0257
 6135TIP3    H139896   5.610   4.952   4.437 -1.2604  1.0770 -0.4901
 6135TIP3    H239897   5.730   5.044   4.426  0.2206 -0.7251 -0.1029
 6136TIP3   OH239898   4.308   2.898  12.072 -1.0330  0.0750 -0.5402
 6136TIP3    H139899   4.260   2.941  12.143  2.3705  0.4436  1.7940
 6136TIP3    H239900   4.322   2.967  12.007 -0.0809  1.1540  0.7469
 6137TIP3   OH239901   3.661   1.147  15.056 -0.5659 -0.1354  0.1239
 6137TIP3    H139902   3.594   1.191  15.109 -1.3306 -0.6166 -0.4290
 6137TIP3    H239903   3.685   1.070  15.108  0.5829  0.7584  0.9696
 6138TIP3   OH239904   2.430   2.199  15.789 -0.6768  0.2456  0.3642
 6138TIP3    H139905   2.432   2.123  15.730  0.9996  0.0515  0.6146
 6138TIP3    H239906   2.522   2.219  15.805 -1.0735  2.5661  0.0390
 6139TIP3   OH239907   3.939   5.125   5.502  0.8732 -0.9333  0.2439
 6139TIP3    H139908   3.970   5.102   5.590 -0.9540  1.5486  1.6692
 6139TIP3    H239909   3.991   5.201   5.478 -0.5164  0.1018  0.4290
 6140TIP3   OH239910   4.784   3.433   2.544 -0.8765  0.2059  0.9529
 6140TIP3    H139911   4.850   3.381   2.589  0.7279  1.0278 -0.3200
 6140TIP3    H239912   4.781   3.515   2.593 -2.7594 -0.6785  2.4308
 6141TIP3   OH239913   5.404   5.664  11.828  0.1875  0.2351  0.3468
 6141TIP3    H139914   5.494   5.666  11.796 -0.0638 -0.6384 -0.4516
 6141TIP3    H239915   5.374   5.755  11.821  0.4264  0.2311 -1.1037
 6142TIP3   OH239916   6.169   3.872   4.833 -0.1066  0.3141  0.1384
 6142TIP3    H139917   6.163   3.830   4.748 -1.1576 -0.0726  0.3853
 6142TIP3    H239918   6.220   3.811   4.886  1.8391  1.2382 -0.5905
 6143TIP3   OH239919   4.015   4.657   2.317  0.7179 -0.4212  0.2073
 6143TIP3    H139920   4.077   4.598   2.273  0.2726 -0.9132  0.2229
 6143TIP3    H239921   4.063   4.739   2.328  1.5570 -0.9673  0.7325
 6144TIP3   OH239922   5.623   3.309   4.730  0.1989  0.1955 -0.1874
 6144TIP3    H139923   5.649   3.279   4.817 -1.8686 -1.2865  0.0044
 6144TIP3    H239924   5.634   3.404   4.732  2.9295 -0.0674  0.6716
 6145TIP3   OH239925   3.507   4.503  12.009  0.1201 -0.0129  0.4232
 6145TIP3    H139926   3.523   4.511  12.103  0.9591  1.1963  0.1913
 6145TIP3    H239927   3.583   4.544  11.968 -1.4883  1.9491 -0.7738
 6146TIP3   OH239928   4.069   5.038   0.338  0.4163  0.3931 -0.1562
 6146TIP3    H139929   4.026   5.061   0.255  0.4487 -1.1196 -0.6098
 6146TIP3    H239930   4.108   5.121   0.368 -1.5974  1.5083 -0.4243
 6147TIP3   OH239931   0.247   6.751   6.242 -0.3143  0.4650 -0.6062
 6147TIP3    H139932   0.205   6.771   6.326  0.4358  1.5071 -0.4633
 6147TIP3    H239933   0.337   6.727   6.266 -0.5633 -0.9786 -0.9773
 6148TIP3   OH239934   4.494   2.344   3.285  0.1423 -0.2233  0.2314
 6148TIP3    H139935   4.452   2.373   3.366  0.4618 -0.8025  0.6138
 6148TIP3    H239936   4.426   2.351   3.219 -0.6755 -1.4437  0.8992
 6149TIP3   OH239937   5.315   6.071  15.208 -0.3656 -0.2778 -0.0306
 6149TIP3    H139938   5.370   5.993  15.218 -2.3969 -1.8667 -0.5454
 6149TIP3    H239939   5.333   6.102  15.119 -0.0785 -0.5922 -0.0846
 6150TIP3   OH239940   2.443   1.488   3.169 -0.4273 -0.3369  0.2129
 6150TIP3    H139941   2.474   1.534   3.091 -1.3165  0.3095  0.2259
 6150TIP3    H239942   2.382   1.422   3.136 -0.8176 -0.0523  0.3483
 6151TIP3   OH239943   4.928   0.768   4.460 -0.0497 -0.2798  0.2148
 6151TIP3    H139944   4.941   0.823   4.538 -0.0112 -1.1840  0.8643
 6151TIP3    H239945   5.016   0.739   4.436 -0.0413  0.1381 -0.2897
 6152TIP3   OH239946   2.883   0.672   0.093 -0.6042  0.2529 -0.7705
 6152TIP3    H139947   2.794   0.662   0.058 -0.5739 -1.4159 -0.4190
 6152TIP3    H239948   2.939   0.633   0.026 -0.5995 -3.7870  1.2915
 6153TIP3   OH239949   6.045   0.754   0.041 -0.1165  0.7143 -0.5385
 6153TIP3    H139950   6.050   0.814  -0.034  0.8689  0.2755 -0.8461
 6153TIP3    H239951   6.076   0.807   0.115  0.6589  0.6291 -0.7903
 6154TIP3   OH239952   6.262   0.022  11.329  0.0742 -0.1784  0.1412
 6154TIP3    H139953   6.317   0.099  11.341  2.5780 -2.0384  1.4304
 6154TIP3    H239954   6.315  -0.039  11.279 -2.6753 -0.3624 -2.8771
 6155TIP3   OH239955   1.161   5.186   4.516  0.0971 -0.1183  0.1576
 6155TIP3    H139956   1.197   5.155   4.433 -5.0356  0.9554 -2.9193
 6155TIP3    H239957   1.161   5.109   4.573  2.8894 -1.1505 -1.0373
 6156TIP3   OH239958   6.499   6.313   5.830  0.0151 -0.0074  0.0051
 6156TIP3    H139959   6.550   6.255   5.886 -0.0956 -0.4715 -0.3757
 6156TIP3    H239960   6.440   6.359   5.890  0.5567  0.1979  0.3899
 6157TIP3   OH239961   5.384   6.633  10.331 -0.3889 -0.4197 -0.6866
 6157TIP3    H139962   5.321   6.690  10.287 -0.4996  0.8750  1.0764
 6157TIP3    H239963   5.468   6.679  10.325 -0.3700 -0.3037  0.2593
 6158TIP3   OH239964   1.051   4.961   4.664 -0.0066 -0.2134 -0.3120
 6158TIP3    H139965   1.034   4.933   4.574  0.9843  2.1544 -1.3159
 6158TIP3    H239966   1.115   4.897   4.697  0.5231 -0.4315 -1.6967
 6159TIP3   OH239967   4.278   4.647   4.829  0.9502 -0.5518  0.3225
 6159TIP3    H139968   4.298   4.737   4.854  1.4094 -0.7244  0.5877
 6159TIP3    H239969   4.337   4.594   4.882  1.4624 -0.9617 -0.6456
 6160TIP3   OH239970   1.521   1.416  17.376  0.9287  0.0388  0.2995
 6160TIP3    H139971   1.546   1.446  17.463  1.1693 -1.4771  0.7825
 6160TIP3    H239972   1.604   1.407  17.329  0.8795 -0.0278  0.2240
 6161TIP3   OH239973   5.357   3.024  12.166 -0.0952  0.3393 -0.4033
 6161TIP3    H139974   5.430   3.080  12.137  1.0333 -0.8323  0.0709
 6161TIP3    H239975   5.399   2.955  12.218 -1.6718  0.2814  0.8832
 6162TIP3   OH239976   0.154   5.555   2.982 -0.6361 -0.6726 -0.4111
 6162TIP3    H139977   0.066   5.579   2.954 -0.1472  1.0045 -0.6171
 6162TIP3    H239978   0.173   5.613   3.056  0.5677 -0.4709 -0.8454
 6163TIP3   OH239979   3.807   0.378   2.984  0.0082  0.2755  0.1978
 6163TIP3    H139980   3.773   0.346   2.900 -2.1180 -0.9225  1.4406
 6163TIP3    H239981   3.869   0.311   3.012  1.0902  0.9151 -0.6115
 6164TIP3   OH239982   6.272   5.851  14.764  0.0005 -0.7067 -0.1285
 6164TIP3    H139983   6.230   5.929  14.728  1.2172 -0.1045 -0.3192
 6164TIP3    H239984   6.282   5.870  14.857  1.6154  0.0329 -0.4175
 6165TIP3   OH239985   2.056   1.386  17.221  0.3228  0.2916 -0.6139
 6165TIP3    H139986   2.094   1.329  17.154 -0.7619 -0.7377 -0.3924
 6165TIP3    H239987   2.119   1.384  17.293  1.0012  0.5793 -1.1918
 6166TIP3   OH239988   0.927   3.239   1.218 -0.2467 -0.1211 -0.5606
 6166TIP3    H139989   0.933   3.331   1.243  0.3085 -0.3593  0.2050
 6166TIP3    H239990   0.955   3.238   1.126 -0.1708  0.4629 -0.5509
 6167TIP3   OH239991   3.174   2.148  12.954  0.0149 -0.2179 -0.7912
 6167TIP3    H139992   3.144   2.234  12.924 -0.3125  0.3042  0.8932
 6167TIP3    H239993   3.153   2.147  13.048  3.0877 -0.7601  0.0128
 6168TIP3   OH239994   4.861   1.755  14.598 -0.4115 -0.4721  0.2463
 6168TIP3    H139995   4.886   1.665  14.575 -0.5185 -0.2868 -0.6035
 6168TIP3    H239996   4.908   1.772  14.680  2.0720 -0.2182 -1.1457
 6169TIP3   OH239997   4.831   1.579   4.303 -0.1021  0.4337 -0.0693
 6169TIP3    H139998   4.796   1.622   4.225  0.5791  2.5443  0.7195
 6169TIP3    H239999   4.780   1.616   4.375 -0.5012 -1.2375  0.5505
 6170TIP3   OH240000   5.746   0.891  14.419  0.0292 -0.3324  0.6487
 6170TIP3    H140001   5.810   0.889  14.490  2.1318  1.5301 -1.0476
 6170TIP3    H240002   5.751   0.804  14.379  1.3590 -0.2823  0.6895
 6171TIP3   OH240003   3.499   0.836  13.150  0.5216  0.3356  0.0112
 6171TIP3    H140004   3.489   0.877  13.064 -0.3687  1.5235  0.6522
 6171TIP3    H240005   3.575   0.880  13.189  1.6059 -0.9582 -0.5543
 6172TIP3   OH240006   5.932   5.444   4.577  0.2512  0.4898  0.2506
 6172TIP3    H140007   5.999   5.503   4.613  1.0179 -0.2780  0.1042
 6172TIP3    H240008   5.912   5.385   4.649  3.5367 -2.6160 -1.0958
 6173TIP3   OH240009   5.177   4.872  15.632  0.3492 -0.6021 -0.2589
 6173TIP3    H140010   5.246   4.886  15.567  0.1791  0.1791 -0.2896
 6173TIP3    H240011   5.095   4.884  15.584  0.2113 -0.7186 -0.0538
 6174TIP3   OH240012   0.758   5.105  11.454 -0.5471 -0.0599  0.3708
 6174TIP3    H140013   0.669   5.071  11.454  0.0985 -2.0240 -2.3236
 6174TIP3    H240014   0.755   5.184  11.400 -1.2322  2.0682  3.2638
 6175TIP3   OH240015   2.947   6.411  14.951  0.3491 -0.3324  0.3365
 6175TIP3    H140016   2.855   6.416  14.978  0.4955  1.0351  0.6651
 6175TIP3    H240017   2.964   6.495  14.908  1.1026 -1.0728 -0.8780
 6176TIP3   OH240018   4.612   1.580   1.172  0.1557  0.7064 -0.3231
 6176TIP3    H140019   4.608   1.676   1.177 -1.5676  0.6695 -0.3428
 6176TIP3    H240020   4.663   1.562   1.094  0.0770  1.6118 -0.5989
 6177TIP3   OH240021   3.333   4.430   0.192 -0.0899 -0.4721  0.5422
 6177TIP3    H140022   3.352   4.524   0.188 -0.2802 -0.4708 -1.0309
 6177TIP3    H240023   3.274   4.421   0.267  0.8054  0.4886  1.3885
 6178TIP3   OH240024   1.121   1.521  14.175  0.0302  0.4539  0.3730
 6178TIP3    H140025   1.202   1.470  14.171 -1.0784 -1.3046 -0.8078
 6178TIP3    H240026   1.098   1.522  14.268 -0.2077 -1.7455  0.3854
 6179TIP3   OH240027   6.687   0.013  17.333  0.1713  0.2728 -0.0813
 6179TIP3    H140028   6.775   0.048  17.317  0.1952 -0.0752 -0.7452
 6179TIP3    H240029   6.691  -0.076  17.299  0.0861 -0.3679  1.5091
 6180TIP3   OH240030   4.690   3.220  12.411  0.2067 -0.3187 -0.2325
 6180TIP3    H140031   4.749   3.220  12.336 -0.0035  1.8529 -0.4474
 6180TIP3    H240032   4.726   3.285  12.471  0.0141 -1.5474  1.3034
 6181TIP3   OH240033   3.692   4.289  16.271  0.7160 -0.1352  0.0739
 6181TIP3    H140034   3.707   4.307  16.364 -0.3534 -0.7541  0.3903
 6181TIP3    H240035   3.749   4.350  16.225  0.8565  0.5603  1.1318
 6182TIP3   OH240036   3.888   4.013  16.503  0.1633  0.5739  0.2134
 6182TIP3    H140037   3.809   3.981  16.461 -1.0096  0.3622  2.4198
 6182TIP3    H240038   3.897   4.103  16.471 -0.4034  0.2900 -0.7984
 6183TIP3   OH240039   0.007   5.065   5.534 -0.7743 -0.0320  0.4082
 6183TIP3    H140040   0.047   4.993   5.584  1.5548  1.9498  1.5979
 6183TIP3    H240041   0.067   5.078   5.460 -0.7542  1.1561  0.6273
 6184TIP3   OH240042   1.183   3.059   2.363 -0.1125 -0.0002  0.8263
 6184TIP3    H140043   1.104   3.048   2.310 -0.0091  0.0269  0.6663
 6184TIP3    H240044   1.240   3.114   2.310  1.3498 -2.6043 -0.5068
 6185TIP3   OH240045   1.498   1.039  14.138 -0.0626  0.0594 -0.1336
 6185TIP3    H140046   1.464   0.956  14.106 -2.3871  1.0636 -0.4813
 6185TIP3    H240047   1.461   1.048  14.226  0.5002  0.5393  0.0577
 6186TIP3   OH240048   6.409   2.675  13.468  0.4969 -0.0306 -0.3730
 6186TIP3    H140049   6.343   2.611  13.443  1.1410 -0.7439 -0.3073
 6186TIP3    H240050   6.383   2.756  13.425 -1.7476  0.3797  1.5571
 6187TIP3   OH240051   6.574   4.626   0.905 -0.1868  0.2763 -0.2129
 6187TIP3    H140052   6.521   4.556   0.944  2.5051 -0.9527  1.5346
 6187TIP3    H240053   6.548   4.627   0.813 -2.8289 -0.5414  0.4208
 6188TIP3   OH240054   6.778   0.424   1.756  0.5705  0.2090  0.1168
 6188TIP3    H140055   6.869   0.429   1.725  0.3211  1.3515 -0.4746
 6188TIP3    H240056   6.781   0.359   1.825  1.9169  0.4742  0.3521
 6189TIP3   OH240057   2.352   5.950  15.068 -0.0011 -0.1198 -0.1087
 6189TIP3    H140058   2.447   5.954  15.075 -0.1211 -0.1534  3.2917
 6189TIP3    H240059   2.325   6.040  15.051  0.6150  0.1517  0.3046
 6190TIP3   OH240060   4.278   6.211   2.803  0.1616 -0.0994 -0.4143
 6190TIP3    H140061   4.278   6.274   2.875  0.1408 -0.6694  0.0828
 6190TIP3    H240062   4.371   6.202   2.780  0.1517  0.2379 -0.6097
 6191TIP3   OH240063   2.053   4.162   1.674 -0.0567 -0.1383 -0.0418
 6191TIP3    H140064   2.095   4.147   1.589  0.0707 -0.5374  0.0878
 6191TIP3    H240065   2.126   4.159   1.736 -0.2913 -1.0004  0.2056
 6192TIP3   OH240066   4.030   1.499   2.705  0.0406  0.1425  0.0253
 6192TIP3    H140067   3.966   1.541   2.648  0.7731  1.0101 -0.1687
 6192TIP3    H240068   3.988   1.499   2.791 -0.4083  0.2917 -0.1888
 6193TIP3   OH240069   2.556   0.551   6.059 -0.1584  0.4882 -0.2372
 6193TIP3    H140070   2.546   0.584   6.149 -0.0844  1.9431 -0.7490
 6193TIP3    H240071   2.468   0.558   6.021 -0.6686 -1.9900  0.2865
 6194TIP3   OH240072   6.613   1.657  15.046 -0.6720  0.6030  0.4649
 6194TIP3    H140073   6.622   1.616  15.132  0.7711  1.2466  0.6432
 6194TIP3    H240074   6.595   1.585  14.986  1.1627 -0.2424  0.8807
 6195TIP3   OH240075   3.508   2.633   0.367  0.3136 -0.0748 -0.0375
 6195TIP3    H140076   3.498   2.721   0.404  0.7722 -0.3667  0.8025
 6195TIP3    H240077   3.482   2.643   0.275  0.6242  1.0038 -0.0264
 6196TIP3   OH240078   6.757   5.701   0.149  0.1525  0.4495 -0.4623
 6196TIP3    H140079   6.668   5.695   0.184  0.7563  0.1064  1.0630
 6196TIP3    H240080   6.769   5.795   0.131 -1.1755  0.2872 -2.5865
 6197TIP3   OH240081   4.542   6.448   1.703  0.6915 -1.0741 -0.1777
 6197TIP3    H140082   4.524   6.473   1.613 -1.0815 -1.5249  0.0166
 6197TIP3    H240083   4.638   6.445   1.708  0.8315 -0.9884 -2.0110
 6198TIP3   OH240084   2.675   5.641   5.064 -0.8433 -0.7484 -0.0736
 6198TIP3    H140085   2.702   5.676   4.979  0.3957 -0.1355  0.5538
 6198TIP3    H240086   2.749   5.588   5.093  0.3878  1.9541  2.2416
 6199TIP3   OH240087   4.606   3.976   2.246  0.8767 -0.5837 -0.1418
 6199TIP3    H140088   4.641   4.064   2.262  1.6167 -0.7866 -0.5809
 6199TIP3    H240089   4.512   3.984   2.262  1.2525 -0.2852  2.2383
 6200TIP3   OH240090   4.052   5.275  13.017  0.4526 -0.1531  0.8227
 6200TIP3    H140091   4.144   5.277  13.045  0.9278  2.5975 -0.5738
 6200TIP3    H240092   4.020   5.364  13.035 -1.0951 -0.2257 -1.2457
 6201TIP3   OH240093   6.042   0.271  16.207 -0.3763 -0.0547 -0.1541
 6201TIP3    H140094   6.101   0.237  16.274 -2.2703  0.5090  1.9085
 6201TIP3    H240095   6.096   0.332  16.157  1.4141 -1.3870  0.0314
 6202TIP3   OH240096   6.667   6.616  13.405  0.0459 -0.0285 -0.0198
 6202TIP3    H140097   6.671   6.556  13.330 -0.9154  1.6760 -1.5049
 6202TIP3    H240098   6.577   6.610  13.436  0.3948 -0.5938  0.9252
 6203TIP3   OH240099   5.380   3.681  14.898  0.2490  0.0319  0.2289
 6203TIP3    H140100   5.379   3.587  14.880 -0.0217 -0.2949  1.8216
 6203TIP3    H240101   5.288   3.707  14.896  0.3395  0.3435 -0.4737
 6204TIP3   OH240102   0.849   6.481  15.567  0.5743  0.0499  0.2300
 6204TIP3    H140103   0.843   6.391  15.536 -0.7815  0.7553 -1.7608
 6204TIP3    H240104   0.924   6.518  15.520 -1.8795  1.3159 -3.1405
 6205TIP3   OH240105   4.362   1.563   0.352  0.6820 -0.3321  0.3949
 6205TIP3    H140106   4.382   1.547   0.259  1.1883 -0.0273  0.4434
 6205TIP3    H240107   4.302   1.494   0.376  0.0614 -0.0596 -0.3316
 6206TIP3   OH240108   0.002   3.669   0.104 -0.8940  0.0258  0.2121
 6206TIP3    H140109  -0.004   3.622   0.187 -1.1973  0.9875  0.7425
 6206TIP3    H240110  -0.082   3.713   0.094 -0.1457  1.5990  0.4366
 6207TIP3   OH240111   3.454   6.381  13.078 -0.3818  0.4175 -0.1379
 6207TIP3    H140112   3.492   6.297  13.105 -0.9365 -0.0378 -0.7428
 6207TIP3    H240113   3.470   6.439  13.152 -0.9589 -0.5240  0.7520
 6208TIP3   OH240114   2.295   6.741   0.371  0.1909  0.4241 -0.0027
 6208TIP3    H140115   2.355   6.675   0.335 -1.3922 -1.2227  0.2118
 6208TIP3    H240116   2.346   6.822   0.371  1.7163 -0.4396 -1.7698
 6209TIP3   OH240117   6.692   6.648  16.564 -0.6395  0.5646 -0.0403
 6209TIP3    H140118   6.741   6.723  16.598 -0.5433  0.6431 -0.3437
 6209TIP3    H240119   6.623   6.633  16.628 -0.1193  0.3487  0.4849
 6210TIP3   OH240120   0.214   0.880  11.331  0.1178 -0.5990 -0.1693
 6210TIP3    H140121   0.219   0.852  11.422  1.4588  0.9435  0.2830
 6210TIP3    H240122   0.137   0.937  11.327  1.3425  1.1875  0.6000
 6211TIP3   OH240123   5.090   4.278  15.714 -0.4195 -0.0635 -0.0651
 6211TIP3    H140124   5.084   4.330  15.634  1.4321  0.7904  0.3037
 6211TIP3    H240125   5.022   4.313  15.771 -1.0342  0.0533 -0.8645
 6212TIP3   OH240126   5.827   6.270  14.892 -0.0183 -0.5728  0.7384
 6212TIP3    H140127   5.850   6.362  14.881 -1.3053 -0.3099  0.0442
 6212TIP3    H240128   5.753   6.270  14.953 -0.1387 -1.1253  0.6007
 6213TIP3   OH240129   5.848   5.020   3.994 -0.2183  0.4956  0.1860
 6213TIP3    H140130   5.771   5.068   3.962 -0.0046  0.7898  0.1135
 6213TIP3    H240131   5.915   5.034   3.927  0.0742  0.7011  0.5176
 6214TIP3   OH240132   4.942   4.671   3.643  0.4897 -0.1461  0.1202
 6214TIP3    H140133   5.026   4.631   3.621  1.2893  0.8837  1.1932
 6214TIP3    H240134   4.877   4.603   3.624  1.4139 -0.5190 -1.9610
 6215TIP3   OH240135   3.422   4.411   5.299 -0.2058 -0.3021 -0.5090
 6215TIP3    H140136   3.441   4.469   5.373  2.0893 -0.6323 -0.7695
 6215TIP3    H240137   3.453   4.459   5.222  3.1437 -2.3407 -0.5936
 6216TIP3   OH240138   1.099   5.668  12.910 -0.3813 -0.3591 -0.0516
 6216TIP3    H140139   1.078   5.577  12.887 -0.5563  0.0754 -1.7143
 6216TIP3    H240140   1.192   5.666  12.933 -0.6035 -1.1163  0.8421
 6217TIP3   OH240141   4.845   3.645  11.005  0.0481 -0.0898  0.2802
 6217TIP3    H140142   4.826   3.552  11.005 -0.8145  0.0754 -0.4207
 6217TIP3    H240143   4.933   3.652  10.969  1.4158 -0.8373  3.1795
 6218TIP3   OH240144   2.966   4.194  13.806  0.3627 -0.6807  0.3385
 6218TIP3    H140145   2.945   4.280  13.843 -2.2864 -0.9648 -0.3229
 6218TIP3    H240146   2.963   4.134  13.881  1.5891 -0.3383  0.6920
 6219TIP3   OH240147   6.534   1.181  11.249  0.0278  0.1972  0.1755
 6219TIP3    H140148   6.598   1.237  11.204 -0.0081  0.0193 -0.0969
 6219TIP3    H240149   6.506   1.233  11.324 -0.9397  1.0819 -0.7529
 6220TIP3   OH240150   4.800   3.368  11.114 -0.1872  0.2903 -0.1646
 6220TIP3    H140151   4.798   3.281  11.075  0.3483 -0.8201  2.0789
 6220TIP3    H240152   4.868   3.362  11.181  0.5261  2.7579 -0.5765
 6221TIP3   OH240153   2.473   0.031  12.066  0.3770  0.6916  0.3794
 6221TIP3    H140154   2.544  -0.032  12.055 -0.2325 -0.0389  0.5321
 6221TIP3    H240155   2.471   0.081  11.984  1.2867  0.9671  0.5122
 6222TIP3   OH240156   2.042   5.557  14.502  0.1114  0.1384 -0.9797
 6222TIP3    H140157   1.951   5.548  14.475 -0.7658 -0.9396  1.8810
 6222TIP3    H240158   2.044   5.636  14.556  1.2740  1.0397 -2.2817
 6223TIP3   OH240159   2.266   4.733   3.007 -0.1621  0.0625 -0.6923
 6223TIP3    H140160   2.232   4.822   3.013 -1.1416 -0.3532  0.4070
 6223TIP3    H240161   2.192   4.681   2.976 -0.1977 -0.6559  0.4969
 6224TIP3   OH240162   1.339   3.956  10.500 -0.3605  0.1288 -0.3766
 6224TIP3    H140163   1.374   3.952  10.589 -0.6459  0.2915 -0.2553
 6224TIP3    H240164   1.267   3.893  10.499  1.6653 -2.3237 -1.4293
 6225TIP3   OH240165   4.122   1.237   3.093  0.4892 -0.3207 -0.4973
 6225TIP3    H140166   4.194   1.178   3.117  2.6480  1.7212 -1.5667
 6225TIP3    H240167   4.069   1.186   3.031  0.6876 -2.0269  0.6463
 6226TIP3   OH240168   5.635   2.299   2.429 -0.1391 -0.1979  0.3229
 6226TIP3    H140169   5.634   2.291   2.334 -0.0817 -2.2716  0.4626
 6226TIP3    H240170   5.543   2.313   2.453 -0.2108 -0.1016 -0.0040
 6227TIP3   OH240171   1.947   6.082  16.432 -0.0925  0.1722  0.6419
 6227TIP3    H140172   1.993   6.064  16.349  0.8082  0.7126  1.0077
 6227TIP3    H240173   1.871   6.133  16.406  0.5845  0.9916  0.2022
 6228TIP3   OH240174   0.457   6.485  14.029  0.2529 -0.2704 -0.4961
 6228TIP3    H140175   0.534   6.447  13.987  1.1451  0.5257  0.3604
 6228TIP3    H240176   0.486   6.571  14.059 -0.3942 -0.7214  1.5608
 6229TIP3   OH240177   1.440   3.808  16.716 -0.9784 -0.1621 -0.0990
 6229TIP3    H140178   1.386   3.853  16.781 -2.0870  0.5579 -1.4657
 6229TIP3    H240179   1.455   3.721  16.753 -1.3466  0.3068  1.2228
 6230TIP3   OH240180   0.098   3.160  17.255  0.0166  0.2894  0.1198
 6230TIP3    H140181   0.180   3.165  17.304  0.0132  1.2723  0.0479
 6230TIP3    H240182   0.122   3.117  17.172  0.6271  1.2401 -0.2132
 6231TIP3   OH240183   0.530   0.240  16.114 -0.1959 -0.4912 -0.2338
 6231TIP3    H140184   0.570   0.201  16.036 -1.8995 -1.7024 -0.5587
 6231TIP3    H240185   0.531   0.334  16.096  1.4525 -0.5725 -0.7044
 6232TIP3   OH240186   3.055   0.324  13.174 -0.5328 -0.4066 -0.2798
 6232TIP3    H140187   2.965   0.318  13.204 -1.0468  0.8946 -1.4368
 6232TIP3    H240188   3.100   0.252  13.218 -1.5581  0.3638  2.2459
 6233TIP3   OH240189   2.639   4.123   2.067 -0.7183 -0.3675  0.6823
 6233TIP3    H140190   2.712   4.163   2.114 -1.1679  1.4881 -0.1072
 6233TIP3    H240191   2.583   4.197   2.042 -1.0986 -1.3620 -1.7082
 6234TIP3   OH240192   1.356   2.990  17.146 -0.1851 -0.1880 -0.5198
 6234TIP3    H140193   1.442   2.966  17.113 -0.5244  0.4232 -1.9022
 6234TIP3    H240194   1.314   2.906  17.166  0.2203 -0.5539 -1.1719
 6235TIP3   OH240195   3.729   0.647   1.266 -0.1228 -0.2903 -0.1863
 6235TIP3    H140196   3.658   0.589   1.239  0.4498  0.1235 -2.8088
 6235TIP3    H240197   3.809   0.603   1.239  0.6630 -0.4757  2.2050
 6236TIP3   OH240198   3.522   1.087   5.268  0.2451 -0.0996 -0.3333
 6236TIP3    H140199   3.530   1.165   5.214  0.3307  0.3317  0.2873
 6236TIP3    H240200   3.610   1.048   5.266  0.2740 -0.0306 -0.4180
 6237TIP3   OH240201   4.831   2.857   5.051 -0.2833  0.2470 -0.3945
 6237TIP3    H140202   4.840   2.812   4.967 -0.5349  1.1915 -0.9511
 6237TIP3    H240203   4.739   2.885   5.054  0.1719  1.9203 -0.7308
 6238TIP3   OH240204   3.964   6.139  11.316  0.2505 -0.2238  0.4898
 6238TIP3    H140205   3.885   6.143  11.261  0.1111  1.0738  0.7533
 6238TIP3    H240206   3.984   6.045  11.321  0.7464 -0.3756 -2.4506
 6239TIP3   OH240207   3.021   0.768   5.910  0.1674 -0.2326  0.2999
 6239TIP3    H140208   2.944   0.735   5.957 -1.0791 -0.1577 -1.5648
 6239TIP3    H240209   3.027   0.860   5.936 -1.1052  0.0693 -0.3913
 6240TIP3   OH240210   2.277   2.137   4.421 -0.5533  0.0665 -0.3788
 6240TIP3    H140211   2.275   2.044   4.397 -0.7468  0.4180 -1.8419
 6240TIP3    H240212   2.365   2.151   4.454 -0.5626 -0.6651 -0.0200
 6241TIP3   OH240213   3.906   3.660  12.648 -0.3020 -0.6664  0.4377
 6241TIP3    H140214   3.881   3.573  12.679 -1.9355 -0.5010 -0.3004
 6241TIP3    H240215   3.899   3.716  12.725  0.0642 -1.0657  0.7630
 6242TIP3   OH240216   4.166   2.816   1.334 -0.5865 -0.1165 -0.1241
 6242TIP3    H140217   4.191   2.725   1.352 -1.3857 -0.2307  0.4530
 6242TIP3    H240218   4.222   2.868   1.392 -0.1068 -0.2275 -0.4767
 6243TIP3   OH240219   4.510   0.207   1.887 -0.0138  0.5417 -0.0222
 6243TIP3    H140220   4.567   0.207   1.810 -0.3963 -1.4580 -0.3761
 6243TIP3    H240221   4.553   0.266   1.949  0.4312  2.0022 -1.6570
 6244TIP3   OH240222   2.333   1.695  17.335  0.1071  0.1834 -0.6821
 6244TIP3    H140223   2.329   1.600  17.325  1.0198 -0.0273  0.6566
 6244TIP3    H240224   2.323   1.710  17.429  0.4474  1.3853 -0.8160
 6245TIP3   OH240225   5.122   3.907   0.219  0.0254  0.5356 -0.2783
 6245TIP3    H140226   5.054   3.864   0.167  0.4261 -1.7063  0.9480
 6245TIP3    H240227   5.098   3.891   0.310  1.9161  0.0586  0.1927
 6246TIP3   OH240228   5.707   5.616   4.664 -0.0738  0.2593 -0.2071
 6246TIP3    H140229   5.788   5.655   4.632 -0.4101  0.9395 -0.2375
 6246TIP3    H240230   5.716   5.616   4.759 -0.5299  1.4266 -0.1539
 6247TIP3   OH240231   5.171   3.374  15.103  0.3923 -0.2291 -0.0258
 6247TIP3    H140232   5.230   3.393  15.031  0.5634  1.9728  0.6074
 6247TIP3    H240233   5.091   3.424  15.083 -0.5097 -1.5623  0.1116
 6248TIP3   OH240234   6.425   5.428  15.397 -0.0939 -0.3164  0.0553
 6248TIP3    H140235   6.348   5.387  15.357  0.2108  0.7512 -1.7275
 6248TIP3    H240236   6.499   5.382  15.357  0.2139  0.3131 -0.1053
 6249TIP3   OH240237   3.349   6.201  13.732  0.1150 -0.7194 -0.1768
 6249TIP3    H140238   3.271   6.230  13.683  0.9948  0.2582 -1.0713
 6249TIP3    H240239   3.404   6.159  13.666  0.8266 -0.3963  0.1965
 6250TIP3   OH240240   4.071   1.856  10.752 -0.2253  0.1200  0.3609
 6250TIP3    H140241   4.059   1.768  10.714  1.2578 -0.6516  1.5864
 6250TIP3    H240242   4.030   1.850  10.838 -0.0769  0.6210  0.4653
 6251TIP3   OH240243   5.059   0.171  12.168  0.1232  0.2064 -0.7782
 6251TIP3    H140244   5.029   0.226  12.240 -1.7464 -2.2623  0.4568
 6251TIP3    H240245   5.140   0.132  12.200  1.3263  1.9127 -1.5662
 6252TIP3   OH240246   1.440   2.835   2.457  0.0409 -0.7056 -0.2037
 6252TIP3    H140247   1.476   2.866   2.540  0.5879 -1.5188 -0.1276
 6252TIP3    H240248   1.345   2.847   2.467  0.2085  0.6652 -0.0816
 6253TIP3   OH240249   6.193   5.264   5.859  0.2698  0.7816  0.5019
 6253TIP3    H140250   6.144   5.234   5.782  0.3779  1.0213  0.3402
 6253TIP3    H240251   6.143   5.230   5.934  1.8098 -2.1371  0.3509
 6254TIP3   OH240252   6.690   6.620  11.532  0.3533 -0.1499  0.0719
 6254TIP3    H140253   6.733   6.562  11.470  1.9426  0.1504  0.8562
 6254TIP3    H240254   6.760   6.650  11.589 -1.3732 -2.4833  3.7566
 6255TIP3   OH240255   2.208   5.820  16.449 -0.7291 -0.2025 -0.3435
 6255TIP3    H140256   2.152   5.787  16.519  1.7470 -1.1999  1.2740
 6255TIP3    H240257   2.280   5.864  16.494 -0.0693  0.8838 -2.3345
 6256TIP3   OH240258   6.598   2.961  14.869 -0.1941  0.1787  0.8670
 6256TIP3    H140259   6.655   3.037  14.873 -1.9493  1.6269  0.0132
 6256TIP3    H240260   6.532   2.977  14.936 -0.6119 -0.5510  0.6418
 6257TIP3   OH240261   5.046   1.082  15.583 -0.0559 -0.4282 -0.2474
 6257TIP3    H140262   4.969   1.062  15.531 -0.8845  0.4921  0.5646
 6257TIP3    H240263   5.023   1.054  15.672  1.3621 -2.0652 -0.3405
 6258TIP3   OH240264   1.496   1.962   5.415  0.1700  0.2282 -0.4662
 6258TIP3    H140265   1.581   1.920   5.430  0.8293  1.5502 -0.3804
 6258TIP3    H240266   1.517   2.048   5.379 -1.0885  1.1302  0.8519
 6259TIP3   OH240267   2.765   3.859   2.241  0.2229 -0.3113 -0.5671
 6259TIP3    H140268   2.838   3.911   2.274 -1.8314  1.6909  1.1743
 6259TIP3    H240269   2.758   3.786   2.302  1.1496 -0.9149 -1.1548
 6260TIP3   OH240270   5.124   4.389  12.105  0.4091  0.4714 -0.2080
 6260TIP3    H140271   5.134   4.317  12.042  1.5729 -0.4868  1.0193
 6260TIP3    H240272   5.196   4.448  12.084  0.5765  0.3367 -0.0108
 6261TIP3   OH240273   4.324   2.809  15.612 -0.1820 -0.1102 -0.3311
 6261TIP3    H140274   4.250   2.765  15.655 -0.2823  1.1136  0.8050
 6261TIP3    H240275   4.401   2.780  15.662  0.1034 -1.0700 -1.2675
 6262TIP3   OH240276   1.282   2.187   6.225 -0.4827  0.0510  0.4144
 6262TIP3    H140277   1.189   2.169   6.231 -0.5965 -0.0733 -1.3644
 6262TIP3    H240278   1.300   2.192   6.131  1.2694  0.2371  0.7268
 6263TIP3   OH240279   2.968   4.402   3.500  0.5856 -0.4002  0.5669
 6263TIP3    H140280   2.913   4.477   3.523 -1.2475 -1.0862 -1.2785
 6263TIP3    H240281   2.920   4.357   3.431  1.9114 -2.9592  1.1928
 6264TIP3   OH240282   1.826   4.000  15.050 -0.3225 -0.1544  0.5016
 6264TIP3    H140283   1.911   3.964  15.025  0.7142  0.0982  3.3106
 6264TIP3    H240284   1.798   3.946  15.124 -2.8455 -0.4781 -0.5886
 6265TIP3   OH240285   4.332   2.669   2.904  0.0811  0.2607 -0.3564
 6265TIP3    H140286   4.346   2.575   2.911  1.7364  0.4732 -0.6331
 6265TIP3    H240287   4.386   2.707   2.973 -0.9401  1.0006  0.0668
 6266TIP3   OH240288   4.905   2.840   4.507 -0.2688  0.6145  0.1712
 6266TIP3    H140289   4.891   2.897   4.432  1.1437  0.3885 -0.2918
 6266TIP3    H240290   4.998   2.851   4.528  0.0548 -1.5359  0.0491
 6267TIP3   OH240291   1.320   5.409   0.765 -0.0371  0.4130 -0.5140
 6267TIP3    H140292   1.286   5.349   0.831 -0.4779  2.5980  1.3830
 6267TIP3    H240293   1.360   5.353   0.699 -0.6840 -1.9283  0.9875
 6268TIP3   OH240294   6.270   1.823  14.976 -0.8633  0.2480 -0.2928
 6268TIP3    H140295   6.288   1.732  15.002  1.4746  0.4804 -0.8937
 6268TIP3    H240296   6.185   1.818  14.931 -2.8227 -0.9052  3.1603
 6269TIP3   OH240297   5.654   5.524  11.657  0.3176 -0.1669 -0.5198
 6269TIP3    H140298   5.720   5.578  11.701 -1.0247  1.1010  0.0087
 6269TIP3    H240299   5.681   5.524  11.565  1.9864 -1.1114 -0.0678
 6270TIP3   OH240300   0.727   4.013  16.934  0.0288  0.0186 -0.0391
 6270TIP3    H140301   0.733   3.960  16.854  1.3429 -1.2880  0.8908
 6270TIP3    H240302   0.633   4.015  16.953 -0.3046  0.3329 -1.5923
 6271TIP3   OH240303   1.909   3.452  14.553  0.1357 -0.1211 -0.9095
 6271TIP3    H140304   1.893   3.540  14.518 -2.8559 -0.3193 -0.3322
 6271TIP3    H240305   1.922   3.466  14.647  2.3674 -0.1156 -1.1733
 6272TIP3   OH240306   2.668   6.180  11.391 -0.4363 -0.4406  0.4031
 6272TIP3    H140307   2.629   6.265  11.408 -1.1778 -0.6757 -0.0635
 6272TIP3    H240308   2.732   6.196  11.322 -0.8044 -0.3098  0.0872
 6273TIP3   OH240309   5.169   5.755  15.080 -0.3337 -0.0759  0.5565
 6273TIP3    H140310   5.139   5.704  15.004  1.0590 -0.0589 -0.0179
 6273TIP3    H240311   5.258   5.725  15.095 -0.3770  0.3806  1.8145
 6274TIP3   OH240312   0.047   0.861   3.595 -0.8441 -0.4186  0.7309
 6274TIP3    H140313  -0.005   0.885   3.671 -1.2868  1.9695 -0.2372
 6274TIP3    H240314  -0.017   0.842   3.526 -0.4387 -1.7825  0.6949
 6275TIP3   OH240315   1.981   5.028   5.409 -0.8869  0.0871  0.1429
 6275TIP3    H140316   2.062   5.050   5.454 -0.3565 -0.4950 -0.5124
 6275TIP3    H240317   1.927   4.987   5.476 -1.8653  3.1142  1.3798
 6276TIP3   OH240318   3.184   5.011   5.645  0.4490  0.0004 -0.1021
 6276TIP3    H140319   3.258   5.045   5.695  2.5713 -3.5262 -0.4284
 6276TIP3    H240320   3.160   4.929   5.690 -0.1694 -1.2882 -2.5562
 6277TIP3   OH240321   3.239   0.405  12.771  0.3674  0.3055 -0.5131
 6277TIP3    H140322   3.318   0.412  12.717  2.0325 -0.7451  1.6051
 6277TIP3    H240323   3.249   0.321  12.817 -1.8092  0.3388  0.1334
 6278TIP3   OH240324   5.457   1.064  14.717 -0.4612 -0.3572 -0.4848
 6278TIP3    H140325   5.427   1.096  14.632 -0.2570 -0.9900 -0.8050
 6278TIP3    H240326   5.377   1.057  14.769 -0.3571  2.1007  0.1226
 6279TIP3   OH240327   1.551   2.514  15.713  0.6679 -0.4343 -0.2227
 6279TIP3    H140328   1.536   2.421  15.693  1.6274 -0.4945 -0.7298
 6279TIP3    H240329   1.521   2.524  15.804  1.7779 -1.5594  0.3007
 6280TIP3   OH240330   3.357   0.111  15.345 -0.0290 -0.2627 -0.1022
 6280TIP3    H140331   3.377   0.114  15.251  0.3303 -0.9063 -0.0562
 6280TIP3    H240332   3.407   0.036  15.377 -0.3523 -0.2013  0.5581
 6281TIP3   OH240333   0.851   0.787   4.623 -0.6721  0.6240  0.5338
 6281TIP3    H140334   0.914   0.853   4.595  1.4161 -1.1472  0.7844
 6281TIP3    H240335   0.895   0.741   4.695 -1.2389 -2.1654 -0.7628
 6282TIP3   OH240336   4.573   2.607  14.394  0.3151 -0.6006  0.1869
 6282TIP3    H140337   4.645   2.585  14.335 -1.1907 -0.4645 -1.8327
 6282TIP3    H240338   4.495   2.578  14.347 -1.1427  1.6956  1.0350
 6283TIP3   OH240339   6.479   3.337  13.837  0.3072 -0.2585  0.9461
 6283TIP3    H140340   6.547   3.405  13.831  1.0255 -0.9189  1.4449
 6283TIP3    H240341   6.462   3.313  13.746 -0.2050  0.8246  0.7412
 6284TIP3   OH240342   0.843   6.517  16.587  0.1351  0.7849 -0.6940
 6284TIP3    H140343   0.758   6.562  16.593  1.0760  2.6208 -0.6322
 6284TIP3    H240344   0.867   6.500  16.678  0.3265  1.2214 -0.6627
 6285TIP3   OH240345   0.288   4.405  12.452  0.0740  0.0396  0.3668
 6285TIP3    H140346   0.343   4.439  12.381  0.9545  0.2373  1.1221
 6285TIP3    H240347   0.236   4.336  12.411  0.6833  0.0410 -0.4403
 6286TIP3   OH240348   2.043   6.660  15.277 -0.2719  0.3411  0.0293
 6286TIP3    H140349   1.991   6.610  15.340  0.4346 -0.0080  0.3495
 6286TIP3    H240350   2.074   6.736  15.327  0.1299  0.1647  0.0494
 6287TIP3   OH240351   3.526   6.158  17.391 -0.0052  0.4523  0.0292
 6287TIP3    H140352   3.519   6.167  17.296  0.4603  1.0844  0.0497
 6287TIP3    H240353   3.621   6.159  17.408 -0.0844  0.3412  0.4988
 6288TIP3   OH240354   1.155   6.190  11.748  0.1682 -0.4512 -0.1056
 6288TIP3    H140355   1.163   6.178  11.843  0.0701 -0.7849 -0.1377
 6288TIP3    H240356   1.065   6.164  11.728 -0.0660  0.3828 -0.1798
 6289TIP3   OH240357   2.185   5.253   3.099 -0.4533  0.5006  0.0919
 6289TIP3    H140358   2.104   5.300   3.079 -0.2209  0.5542 -0.7804
 6289TIP3    H240359   2.237   5.316   3.150 -0.3396  1.0308 -0.6656
 6290TIP3   OH240360   0.375   0.190  12.556 -0.1723 -0.2614  0.2069
 6290TIP3    H140361   0.329   0.258  12.605 -0.2962 -0.0902 -0.1422
 6290TIP3    H240362   0.427   0.238  12.492 -0.7875 -0.5120 -0.4998
 6291TIP3   OH240363   6.619   3.509   5.766 -0.1018  0.0166  0.6092
 6291TIP3    H140364   6.646   3.593   5.803 -1.4403  1.4322 -1.4682
 6291TIP3    H240365   6.676   3.496   5.690  0.0817 -0.9903  0.8938
 6292TIP3   OH240366   1.739   0.886   0.997 -0.1289  0.1324 -0.5402
 6292TIP3    H140367   1.812   0.828   1.021 -1.2152 -1.5622 -1.1932
 6292TIP3    H240368   1.719   0.863   0.906 -1.3732  0.7054 -0.4257
 6293TIP3   OH240369   3.491   2.366   3.630 -0.4994 -0.1278  0.3444
 6293TIP3    H140370   3.586   2.374   3.626 -0.5826  0.7096  0.0620
 6293TIP3    H240371   3.472   2.356   3.723 -0.0968 -0.9515  0.3547
 6294TIP3   OH240372   3.337   1.855   0.008  0.2242 -0.4314  0.9112
 6294TIP3    H140373   3.328   1.926   0.072 -0.3340 -0.3987  0.8033
 6294TIP3    H240374   3.250   1.850  -0.034  0.5909 -0.4068  0.1202
 6295TIP3   OH240375   6.054   2.321  17.201  0.0727  0.2111  0.2492
 6295TIP3    H140376   5.970   2.274  17.200  0.2707 -0.2136  1.7585
 6295TIP3    H240377   6.090   2.307  17.113 -0.9255 -0.5282 -0.0619
 6296TIP3   OH240378   1.356   0.944  15.948  0.1849  0.0248 -0.3048
 6296TIP3    H140379   1.385   0.952  16.039 -1.2787 -0.6941  0.2521
 6296TIP3    H240380   1.300   1.021  15.934  0.4522  0.1634 -0.6231
 6297TIP3   OH240381   5.546   2.732  12.524  0.7403  0.1213  0.0412
 6297TIP3    H140382   5.524   2.641  12.538  1.5969 -0.0657  0.2379
 6297TIP3    H240383   5.494   2.780  12.589 -2.7408  0.2096 -2.5251
 6298TIP3   OH240384   0.625   1.282  14.304  0.0738  0.0235  0.4081
 6298TIP3    H140385   0.661   1.235  14.229  1.8667  1.4250  0.3325
 6298TIP3    H240386   0.537   1.308  14.276  0.3890 -0.2035 -0.8714
 6299TIP3   OH240387   4.275   5.669   3.307 -0.1920 -0.0115  0.2948
 6299TIP3    H140388   4.214   5.630   3.244 -0.4859  0.9891 -0.0662
 6299TIP3    H240389   4.342   5.602   3.320 -0.1143 -0.2399 -1.1017
 6300TIP3   OH240390   0.021   3.635  14.067 -0.3331 -0.0109 -0.2717
 6300TIP3    H140391  -0.061   3.606  14.108 -0.5562  0.1052 -0.6340
 6300TIP3    H240392   0.065   3.554  14.042  0.1222 -0.1154  0.7919
 6301TIP3   OH240393   3.725   5.320  14.237 -0.0068 -0.0081  0.5357
 6301TIP3    H140394   3.720   5.251  14.303 -0.0466 -0.7345 -0.2195
 6301TIP3    H240395   3.655   5.300  14.175 -1.3158  1.8134  1.3262
 6302TIP3   OH240396   4.702   5.180   2.370  0.1869  0.0093 -0.2942
 6302TIP3    H140397   4.667   5.091   2.365 -1.7264  0.6884  0.2570
 6302TIP3    H240398   4.675   5.221   2.288  4.0557 -0.8119 -2.2352
 6303TIP3   OH240399   5.866   2.409  11.353  0.3260  0.2625  0.2564
 6303TIP3    H140400   5.954   2.371  11.358 -0.7421 -2.3254  1.2144
 6303TIP3    H240401   5.838   2.393  11.263 -0.0832 -1.2719  0.6307
 6304TIP3   OH240402   1.111   3.676  13.370  0.1813 -0.7642  0.8665
 6304TIP3    H140403   1.117   3.606  13.305 -1.5255  0.5393 -0.8420
 6304TIP3    H240404   1.130   3.634  13.454  1.2449 -2.7867 -0.3227
 6305TIP3   OH240405   6.236   4.396  13.992  0.6606  0.0884  0.6103
 6305TIP3    H140406   6.216   4.470  13.935  2.2384  1.8827  2.2433
 6305TIP3    H240407   6.163   4.392  14.054  0.5779  0.3011  0.5249
 6306TIP3   OH240408   5.312   6.428  13.526  0.0835  0.3469  0.3348
 6306TIP3    H140409   5.326   6.447  13.618 -0.5291  2.1195  0.1100
 6306TIP3    H240410   5.231   6.377  13.524  0.1673  0.1949  0.7760
 6307TIP3   OH240411   0.957   1.080   1.374 -0.7102 -0.2617  0.7399
 6307TIP3    H140412   0.901   1.005   1.355 -2.3566  1.1237 -0.1020
 6307TIP3    H240413   0.917   1.153   1.326  1.0919  1.0729  1.1630
 6308TIP3   OH240414   0.059   1.154  15.440 -0.0456 -0.1445  0.2829
 6308TIP3    H140415   0.029   1.098  15.511 -0.1502  0.9264  1.1021
 6308TIP3    H240416  -0.021   1.195  15.406  0.1090  0.1085  0.2176
 6309TIP3   OH240417   4.350   3.950  14.925 -0.1748  0.3127  0.0622
 6309TIP3    H140418   4.393   3.869  14.953  0.9278  1.9968  3.9124
 6309TIP3    H240419   4.257   3.927  14.922  0.3164 -1.7766 -2.0671
 6310TIP3   OH240420   0.108   6.646  13.868 -0.5297 -0.4225 -0.1961
 6310TIP3    H140421   0.082   6.635  13.959 -1.8281 -1.5860 -0.6586
 6310TIP3    H240422   0.063   6.725  13.839  0.0814  0.0823  0.2422
 6311TIP3   OH240423   3.950   4.578  16.365  0.4170  0.2910  0.4926
 6311TIP3    H140424   3.988   4.537  16.442 -1.4647 -1.0942  0.7491
 6311TIP3    H240425   4.023   4.626  16.325  1.5412  0.6415  2.8257
 6312TIP3   OH240426   5.812   5.586  11.425 -0.6872  0.5143  0.2155
 6312TIP3    H140427   5.767   5.591  11.341 -2.3370 -1.0892  0.9209
 6312TIP3    H240428   5.896   5.544  11.404 -1.1632 -0.0582 -0.6114
 6313TIP3   OH240429   4.181   5.316  13.509  0.3518 -0.1394 -0.2878
 6313TIP3    H140430   4.229   5.247  13.462 -0.8470 -0.5921 -0.8863
 6313TIP3    H240431   4.115   5.269  13.560  0.1875  0.5086  0.1022
 6314TIP3   OH240432   5.429   5.998   1.965 -0.2042 -0.3336  0.1313
 6314TIP3    H140433   5.457   5.915   2.003 -2.0829 -1.1240 -0.0964
 6314TIP3    H240434   5.337   6.008   1.993 -1.1560 -0.1069 -2.7272
 6315TIP3   OH240435   1.123   5.932   1.558  0.2170  0.1998 -0.2983
 6315TIP3    H140436   1.119   5.861   1.495  1.9261 -0.2874  0.0987
 6315TIP3    H240437   1.184   5.995   1.520 -0.5244  1.0159 -0.1887
 6316TIP3   OH240438   6.054   5.934   5.540  0.1444  0.9450 -0.2727
 6316TIP3    H140439   6.048   5.903   5.450  0.0018  1.2660 -0.3749
 6316TIP3    H240440   6.137   5.898   5.573 -0.3729 -0.1652 -0.1433
 6317TIP3   OH240441   1.495   0.705   5.297 -0.5036  0.1105  0.5471
 6317TIP3    H140442   1.535   0.688   5.383  2.1921  1.4339 -0.3409
 6317TIP3    H240443   1.565   0.744   5.245 -3.1942  3.5489 -0.8919
 6318TIP3   OH240444   4.275   3.486  15.060  0.2011 -0.2953 -0.4761
 6318TIP3    H140445   4.348   3.447  15.109 -0.2441 -0.9319 -0.3064
 6318TIP3    H240446   4.242   3.414  15.006 -1.1905 -0.4130  0.4825
 6319TIP3   OH240447   0.840   5.007   2.422  0.4380 -0.3597  0.7591
 6319TIP3    H140448   0.757   4.982   2.462 -1.1768  1.3065 -1.3242
 6319TIP3    H240449   0.871   5.081   2.474 -1.1872  1.2109 -0.3621
 6320TIP3   OH240450   0.183   1.361  12.741 -0.2214 -0.8007 -0.2830
 6320TIP3    H140451   0.154   1.272  12.762 -1.1794 -0.2859  0.6161
 6320TIP3    H240452   0.205   1.400  12.825  0.2246 -0.1765 -0.6762
 6321TIP3   OH240453   1.223   6.006  15.598  0.1809 -0.1135 -0.1712
 6321TIP3    H140454   1.301   6.061  15.600 -0.3889  0.7078  2.0241
 6321TIP3    H240455   1.258   5.917  15.588  1.1495  0.4553 -2.7792
 6322TIP3   OH240456   5.864   1.622   1.246 -0.1944  0.3617 -0.0010
 6322TIP3    H140457   5.818   1.540   1.261  0.9920 -0.6525 -1.5923
 6322TIP3    H240458   5.857   1.669   1.329 -0.1177 -1.7327  1.2541
 6323TIP3   OH240459   5.945   5.204  11.252 -0.2404 -0.3858 -0.1546
 6323TIP3    H140460   5.895   5.125  11.275  0.3280 -0.6232  0.2790
 6323TIP3    H240461   5.882   5.258  11.205 -1.0456 -0.5014  0.7454
 6324TIP3   OH240462   4.666   2.494  16.658  0.0442  0.3178 -0.3276
 6324TIP3    H140463   4.613   2.556  16.708  1.5947  0.8095  0.7988
 6324TIP3    H240464   4.648   2.409  16.698 -1.7927  0.0301 -1.6257
 6325TIP3   OH240465   3.796   0.398  16.972  0.0756 -0.0553  0.2114
 6325TIP3    H140466   3.842   0.391  17.055  0.6452 -1.7490 -0.2091
 6325TIP3    H240467   3.844   0.465  16.924  1.7438 -1.2990  0.0524
 6326TIP3   OH240468   0.338   4.245  14.718 -0.1960 -0.6074  0.2746
 6326TIP3    H140469   0.281   4.170  14.733  0.0069 -0.9874 -0.7610
 6326TIP3    H240470   0.292   4.299  14.654  0.6241 -0.9694 -0.6530
 6327TIP3   OH240471   0.586   5.389  15.073  0.2567 -0.2706  0.1564
 6327TIP3    H140472   0.595   5.316  15.011 -3.2213 -1.0581  0.3620
 6327TIP3    H240473   0.605   5.351  15.158 -2.1712 -1.2892  0.3483
 6328TIP3   OH240474   3.422   1.592  16.883 -0.5097  0.4565 -0.3948
 6328TIP3    H140475   3.460   1.554  16.962 -0.8642  0.5058 -0.1958
 6328TIP3    H240476   3.493   1.590  16.818 -0.2581  0.2916 -0.1174
 6329TIP3   OH240477   5.655   0.855   5.045  0.4202 -0.6939 -0.1848
 6329TIP3    H140478   5.643   0.761   5.029  0.6604 -0.8809  0.6776
 6329TIP3    H240479   5.744   0.862   5.080 -0.0488 -0.3131  0.9958
 6330TIP3   OH240480   1.369   1.366  14.131  0.2541 -0.7693  0.1844
 6330TIP3    H140481   1.454   1.385  14.172  0.5447  2.0072 -1.4418
 6330TIP3    H240482   1.389   1.356  14.038 -1.3352  1.9652 -0.5571
 6331TIP3   OH240483   5.113   1.575  11.053  0.2985  0.9261  0.3064
 6331TIP3    H140484   5.066   1.587  10.970  1.6076  0.5971 -0.5098
 6331TIP3    H240485   5.080   1.646  11.109 -1.2868  0.6040 -0.1473
 6332TIP3   OH240486   1.414   1.699   5.707  0.1158  0.3099 -0.3346
 6332TIP3    H140487   1.492   1.748   5.681 -0.7558  1.0311 -1.7010
 6332TIP3    H240488   1.434   1.666   5.794  2.1596  0.0325 -0.8603
 6333TIP3   OH240489   5.208   3.280  13.939 -0.9920  0.0244  0.2250
 6333TIP3    H140490   5.155   3.201  13.947 -1.8308  0.6739  1.3705
 6333TIP3    H240491   5.149   3.344  13.897 -0.5594  0.2531 -0.0364
 6334TIP3   OH240492   6.689   0.579   2.848  0.3871  0.0474 -0.1970
 6334TIP3    H140493   6.766   0.629   2.820  1.0373 -0.1526  1.1662
 6334TIP3    H240494   6.617   0.642   2.842  0.3704 -0.0854 -2.6376
 6335TIP3   OH240495   0.697   5.364   3.811 -0.1664 -0.3042 -0.4533
 6335TIP3    H140496   0.773   5.316   3.779 -0.0750 -0.9247  0.6286
 6335TIP3    H240497   0.623   5.324   3.766  0.1172  0.0965 -1.2804
 6336TIP3   OH240498   5.224   0.927   2.112 -0.2444  0.0722 -0.3618
 6336TIP3    H140499   5.201   0.916   2.020 -3.9684 -0.0683  0.4442
 6336TIP3    H240500   5.180   0.855   2.157 -0.2255  1.2748  1.7296
 6337TIP3   OH240501   5.862   4.080   6.358  0.3481  0.0668  0.1502
 6337TIP3    H140502   5.931   4.040   6.410 -0.6313 -0.9105  0.7296
 6337TIP3    H240503   5.790   4.093   6.419 -0.3894  0.0213 -0.6924
 6338TIP3   OH240504   2.177   3.990   4.739  0.3531 -0.9109 -0.0578
 6338TIP3    H140505   2.153   3.911   4.789  1.2464 -1.4441 -0.4530
 6338TIP3    H240506   2.118   3.988   4.664  1.2637 -1.9556 -0.7719
 6339TIP3   OH240507   2.802   2.434   2.260  0.0802  0.3012  0.0860
 6339TIP3    H140508   2.785   2.525   2.286  0.3445 -0.1157  1.8841
 6339TIP3    H240509   2.882   2.438   2.207 -0.5141  1.2236 -0.7704
 6340TIP3   OH240510   1.230   4.118  15.485  0.3144  0.2960  0.0957
 6340TIP3    H140511   1.196   4.174  15.416  1.3090 -0.1990 -0.8301
 6340TIP3    H240512   1.309   4.079  15.448 -0.6652 -2.2184  0.4575
 6341TIP3   OH240513   5.375   5.475  12.039 -0.3475  0.2494 -0.4155
 6341TIP3    H140514   5.406   5.537  11.973  2.1438 -1.2402 -0.7698
 6341TIP3    H240515   5.283   5.499  12.053 -0.3533  1.9969 -2.7910
 6342TIP3   OH240516   4.393   2.130   0.915  0.5066 -0.1737  0.3385
 6342TIP3    H140517   4.421   2.161   0.829  2.1037  0.7713  1.1448
 6342TIP3    H240518   4.311   2.177   0.932  1.9265  2.3702  0.7396
 6343TIP3   OH240519   4.860   2.282  14.398  0.1240 -0.0646  0.0528
 6343TIP3    H140520   4.776   2.240  14.380  0.5600 -0.9796  0.1076
 6343TIP3    H240521   4.924   2.210  14.396  0.9515  0.6648 -0.3009
 6344TIP3   OH240522   1.832   2.208   5.022 -0.3956  0.5508 -0.5807
 6344TIP3    H140523   1.799   2.286   5.067 -0.2159  0.1704  0.2433
 6344TIP3    H240524   1.926   2.225   5.011 -0.7478  1.4284 -2.4928
 6345TIP3   OH240525   1.950   2.474   2.708  0.1428 -0.4609  0.4668
 6345TIP3    H140526   1.864   2.509   2.683 -1.0309 -2.3961  1.5659
 6345TIP3    H240527   2.004   2.552   2.724 -1.8549  0.8465  1.2327
 6346TIP3   OH240528   1.757   4.737  16.729 -0.2601  0.3708  0.2876
 6346TIP3    H140529   1.682   4.678  16.716 -0.2213 -0.1795  2.1467
 6346TIP3    H240530   1.719   4.813  16.774 -0.0730  1.1766 -0.8793
 6347TIP3   OH240531   2.952   4.554   1.851  0.0751  0.1268 -0.4595
 6347TIP3    H140532   3.011   4.612   1.900 -1.1853  1.3028 -0.2771
 6347TIP3    H240533   2.889   4.523   1.916  0.9850 -1.8860 -0.4511
 6348TIP3   OH240534   2.409   1.328  15.361  0.4628 -0.5655  0.8151
 6348TIP3    H140535   2.447   1.414  15.381  3.1974 -1.2714 -0.8122
 6348TIP3    H240536   2.416   1.320  15.266 -1.8300 -1.7532  0.6682
 6349TIP3   OH240537   4.313   1.461  16.765  0.0246 -0.4660 -0.2234
 6349TIP3    H140538   4.246   1.488  16.828 -1.8485 -0.6994 -2.0080
 6349TIP3    H240539   4.293   1.369  16.747 -1.3620  0.2788 -3.1877
 6350TIP3   OH240540   4.465   4.066  13.345  0.0655 -0.5134  0.3803
 6350TIP3    H140541   4.497   4.019  13.422  1.0706 -0.0122  0.2954
 6350TIP3    H240542   4.424   4.145  13.380  2.7526  1.0238  0.3881
 6351TIP3   OH240543   1.595   1.052   2.069 -0.0540  0.4425  0.1275
 6351TIP3    H140544   1.623   1.131   2.021 -0.6062  1.3136  1.2077
 6351TIP3    H240545   1.593   0.984   2.002  3.0270  0.6794 -0.3731
 6352TIP3   OH240546   2.661   5.139  17.103 -0.4259 -0.1220  0.4496
 6352TIP3    H140547   2.693   5.087  17.177 -0.1062  0.5341  0.7724
 6352TIP3    H240548   2.703   5.224  17.113 -0.2403 -0.0775 -0.5834
 6353TIP3   OH240549   5.531   1.370  12.687 -0.1456 -0.2731  0.0740
 6353TIP3    H140550   5.503   1.371  12.778 -1.1767  1.6343 -0.2183
 6353TIP3    H240551   5.580   1.452  12.676 -1.4963  0.3768 -1.4751
 6354TIP3   OH240552   1.285   6.685  10.704  0.0199 -0.0347 -0.3719
 6354TIP3    H140553   1.374   6.673  10.671 -0.2099  0.6882 -1.2717
 6354TIP3    H240554   1.237   6.609  10.673  0.2197 -0.2163 -0.2384
 6355TIP3   OH240555   4.812   6.383   5.494  0.0529 -0.0894  0.3341
 6355TIP3    H140556   4.870   6.458   5.509 -0.5372  0.0648  2.1477
 6355TIP3    H240557   4.724   6.419   5.509 -0.7200 -0.0503 -3.3521
 6356TIP3   OH240558   2.170   1.808   4.600  0.2500 -0.3419 -0.0362
 6356TIP3    H140559   2.187   1.860   4.679 -0.0340  0.6265 -0.5874
 6356TIP3    H240560   2.079   1.780   4.608  0.4265 -0.8290  0.2993
 6357TIP3   OH240561   5.494   4.052   3.152 -0.1513 -0.2269 -0.2483
 6357TIP3    H140562   5.580   4.011   3.160 -0.6287 -1.7446 -2.0560
 6357TIP3    H240563   5.431   3.983   3.171 -0.9747 -0.0410 -2.0046
 6358TIP3   OH240564   4.958   6.377   1.973  0.2655 -0.7345 -0.0010
 6358TIP3    H140565   4.936   6.332   2.055  0.3689 -1.9285 -0.6070
 6358TIP3    H240566   4.992   6.462   2.001  0.3755 -1.1515  1.2021
 6359TIP3   OH240567   2.799   1.575  16.297  0.5660  0.2391 -0.1201
 6359TIP3    H140568   2.829   1.666  16.291  1.3196  0.0223  0.1551
 6359TIP3    H240569   2.710   1.576  16.263  1.6250  0.5479 -3.1682
 6360TIP3   OH240570   4.612   1.733   6.174  0.8942 -0.0459 -0.1016
 6360TIP3    H140571   4.533   1.746   6.120  0.1767 -1.2135  0.6177
 6360TIP3    H240572   4.677   1.699   6.113  1.0669  1.5317 -0.8398
 6361TIP3   OH240573   3.274   5.807   6.340  0.3128  0.0112 -0.3210
 6361TIP3    H140574   3.229   5.781   6.421  0.4210 -0.6396 -0.4596
 6361TIP3    H240575   3.359   5.764   6.346  0.1966 -0.3136 -0.9301
 6362TIP3   OH240576   3.868   0.756   6.643 -0.8234 -0.0258  0.6038
 6362TIP3    H140577   3.784   0.732   6.683 -0.9957  0.9483  0.8471
 6362TIP3    H240578   3.847   0.828   6.584  0.1027  1.4535  2.0000
 6363TIP3   OH240579   2.928   0.910  13.391  0.3804  0.1895 -0.0428
 6363TIP3    H140580   2.983   0.970  13.340  0.1929 -0.3199 -0.8652
 6363TIP3    H240581   2.885   0.966  13.455 -0.5657  1.1264 -1.4406
 6364TIP3   OH240582   0.750   3.840  15.839 -0.3044 -0.7336 -0.3146
 6364TIP3    H140583   0.782   3.895  15.910  0.1600 -0.4675 -0.7234
 6364TIP3    H240584   0.682   3.892  15.796  1.5843  0.4317 -2.0217
 6365TIP3   OH240585   6.241   2.397   2.226  0.0353 -0.1436 -0.1328
 6365TIP3    H140586   6.333   2.396   2.197  1.2357  0.7272  3.2074
 6365TIP3    H240587   6.230   2.315   2.274 -0.3567  0.5396  0.9839
 6366TIP3   OH240588   5.446   3.090  13.692 -0.1348 -0.5055 -0.1161
 6366TIP3    H140589   5.540   3.101  13.682 -0.0311 -0.9184  0.3509
 6366TIP3    H240590   5.412   3.087  13.602  0.3733 -0.9860 -0.2961
 6367TIP3   OH240591   5.780   0.842   1.627 -0.8227  0.2124  0.2260
 6367TIP3    H140592   5.807   0.920   1.577 -0.2809 -0.0234  0.1472
 6367TIP3    H240593   5.861   0.809   1.666 -0.7993 -1.1413 -0.8966
 6368TIP3   OH240594   4.099   1.998   4.048 -0.0026 -0.4162  0.2356
 6368TIP3    H140595   4.144   1.992   4.132 -0.7746 -0.7480  0.6273
 6368TIP3    H240596   4.092   2.092   4.031  0.0999 -0.3459  0.5688
 6369TIP3   OH240597   1.118   0.714   5.773 -0.2926 -0.0212  0.0763
 6369TIP3    H140598   1.192   0.656   5.756 -0.3700  0.0719 -0.5940
 6369TIP3    H240599   1.132   0.746   5.862  1.1685  1.0363 -0.5094
 6370TIP3   OH240600   2.775   3.926   4.386  0.4587 -0.5332  0.2273
 6370TIP3    H140601   2.856   3.933   4.335  0.5292 -1.1635  0.2398
 6370TIP3    H240602   2.762   4.013   4.423  0.1542  0.0681 -1.2532
 6371TIP3   OH240603   6.166   1.594   1.813  0.3769 -0.2669 -0.0702
 6371TIP3    H140604   6.105   1.599   1.739  0.6646  1.2424 -0.2228
 6371TIP3    H240605   6.251   1.575   1.773  0.7397  1.6366 -0.2623
 6372TIP3   OH240606   3.611   0.921  16.310 -0.6731  0.0565  0.3145
 6372TIP3    H140607   3.686   0.930  16.368 -0.7149 -0.5043  0.4587
 6372TIP3    H240608   3.650   0.900  16.225 -0.7190 -1.9815  0.7568
 6373TIP3   OH240609   4.023   1.676  16.164  0.0357  0.4487  0.2569
 6373TIP3    H140610   4.109   1.717  16.175 -0.1882  1.0078 -0.0191
 6373TIP3    H240611   3.973   1.739  16.112  0.0301 -0.6543 -1.1375
 6374TIP3   OH240612   1.258   5.430  14.037  0.0426 -0.7175 -0.5976
 6374TIP3    H140613   1.168   5.401  14.050  0.1888 -0.7987  0.3200
 6374TIP3    H240614   1.256   5.479  13.955 -1.1843  0.7372  0.2562
 6375TIP3   OH240615   6.352   6.490   5.990  0.1576 -0.3386 -0.2173
 6375TIP3    H140616   6.284   6.454   6.047 -0.7038  1.2870 -0.1275
 6375TIP3    H240617   6.307   6.559   5.940  1.7997  1.0830  0.1443
 6376TIP3   OH240618   0.558   3.529   1.374  0.2491  0.3133 -0.2032
 6376TIP3    H140619   0.533   3.487   1.292 -1.6644  0.0005  0.4940
 6376TIP3    H240620   0.479   3.526   1.427  1.0656  1.7204  1.1589
 6377TIP3   OH240621   6.519   0.149  14.645  0.1795 -0.1620  0.4806
 6377TIP3    H140622   6.607   0.130  14.677  0.7444  1.2719 -0.1597
 6377TIP3    H240623   6.504   0.241  14.668 -0.6714 -0.0417 -0.4891
 6378TIP3   OH240624   0.631   4.963  15.614  0.0585  0.9433 -0.1565
 6378TIP3    H140625   0.584   4.955  15.697  0.1495 -0.3143 -0.2081
 6378TIP3    H240626   0.677   5.047  15.621 -1.2833  1.6730  0.3499
 6379TIP3   OH240627   3.231   1.139  14.141 -0.3266  0.6306  0.0271
 6379TIP3    H140628   3.310   1.122  14.191  1.1849  2.0629 -1.7466
 6379TIP3    H240629   3.197   1.221  14.176 -0.3952  0.5911  0.0528
 6380TIP3   OH240630   5.745   6.591  11.501  0.7195 -0.5194  0.0355
 6380TIP3    H140631   5.788   6.534  11.438 -0.3433 -1.2890 -0.0298
 6380TIP3    H240632   5.814   6.616  11.563  0.9688 -3.0046  0.8688
 6381TIP3   OH240633   3.739   6.566   0.161 -0.4193 -0.3096 -0.1690
 6381TIP3    H140634   3.761   6.492   0.105  1.8621  0.9401 -1.0578
 6381TIP3    H240635   3.808   6.630   0.144 -1.8377  1.6887  1.1972
 6382TIP3   OH240636   3.017   3.162   6.183 -0.1726  0.3720  0.0971
 6382TIP3    H140637   2.953   3.091   6.181  0.7567 -0.5008  0.3809
 6382TIP3    H240638   3.088   3.129   6.238  0.5842  1.2507 -0.3139
 6383TIP3   OH240639   2.107   4.775  17.379  0.1865  0.0983  0.1518
 6383TIP3    H140640   2.094   4.685  17.409 -0.8739  0.0427 -0.4296
 6383TIP3    H240641   2.074   4.776  17.289 -0.4729  1.2281  0.3805
 6384TIP3   OH240642   4.290   5.873  14.621  0.6519 -0.2845 -0.3906
 6384TIP3    H140643   4.205   5.879  14.579 -1.1374 -0.7757  2.7887
 6384TIP3    H240644   4.296   5.953  14.674  0.4272 -1.8026  2.1354
 6385TIP3   OH240645   3.192   2.714   5.418 -0.2536  0.1944  0.2641
 6385TIP3    H140646   3.184   2.624   5.450  0.1439  0.6609  1.7711
 6385TIP3    H240647   3.286   2.731   5.418 -0.4018  1.2311  1.9168
 6386TIP3   OH240648   3.270   4.665  13.188  0.1756  0.4233  0.1390
 6386TIP3    H140649   3.309   4.735  13.241  0.8360  0.2304 -0.0788
 6386TIP3    H240650   3.233   4.604  13.252  0.6441  0.3784  0.3724
 6387TIP3   OH240651   0.305   6.323  11.732 -0.3808  0.5021  0.2764
 6387TIP3    H140652   0.321   6.285  11.819 -2.9633 -3.9371 -0.8883
 6387TIP3    H240653   0.341   6.258  11.671 -1.5957  1.8580 -2.0083
 6388TIP3   OH240654   1.943   1.518  13.453 -0.3014  0.0704  0.8617
 6388TIP3    H140655   1.932   1.468  13.373  2.6386 -0.5340  0.7438
 6388TIP3    H240656   1.929   1.609  13.427 -1.6059 -0.2921  0.2063
 6389TIP3   OH240657   3.851   0.144   3.106 -0.1269  0.5911 -0.0001
 6389TIP3    H140658   3.769   0.149   3.154 -1.6415  0.8455 -2.4216
 6389TIP3    H240659   3.836   0.076   3.040  1.2471  1.3402 -1.1380
 6390TIP3   OH240660   4.734   3.163   4.172  0.0260 -0.3883 -0.0306
 6390TIP3    H140661   4.694   3.114   4.243  0.6341 -1.6121 -0.5028
 6390TIP3    H240662   4.672   3.153   4.099  0.8101 -1.7252 -0.5611
 6391TIP3   OH240663   5.455   1.951  16.066 -0.2020 -0.7991  0.6302
 6391TIP3    H140664   5.530   1.990  16.110 -0.9859  0.4573  0.9032
 6391TIP3    H240665   5.447   1.998  15.983 -0.6733 -0.9293  0.5950
 6392TIP3   OH240666   1.086   5.757   3.744  0.2352  0.0252  0.1532
 6392TIP3    H140667   1.122   5.745   3.656  0.0545 -0.5140  0.1492
 6392TIP3    H240668   1.003   5.802   3.729  1.5680  2.7339  0.2658
 6393TIP3   OH240669   4.240   4.095  15.353 -0.0484 -0.0319 -0.1022
 6393TIP3    H140670   4.186   4.026  15.391 -1.4795  0.2694 -1.4888
 6393TIP3    H240671   4.232   4.083  15.258  0.6967  1.2540 -0.3548
 6394TIP3   OH240672   3.948   0.400  11.690 -0.1069  0.1865 -0.5089
 6394TIP3    H140673   3.899   0.369  11.766  0.7997  2.7323  1.2888
 6394TIP3    H240674   3.885   0.451  11.640 -0.1279  0.6559 -0.0215
 6395TIP3   OH240675   2.105   4.207  14.450 -0.2577 -0.0409  0.0437
 6395TIP3    H140676   2.128   4.279  14.390  1.3167 -0.6289 -0.1061
 6395TIP3    H240677   2.142   4.234  14.534 -1.3499  0.1891  0.4617
 6396TIP3   OH240678   4.564   4.683  13.514 -0.4913 -0.7037  0.3051
 6396TIP3    H140679   4.495   4.735  13.556  0.6178  2.9091 -1.9190
 6396TIP3    H240680   4.643   4.735  13.525  0.7315 -1.9273 -2.0666
 6397TIP3   OH240681   2.384   0.991   2.911 -0.3304 -0.7661  0.1764
 6397TIP3    H140682   2.310   0.965   2.966 -1.2122  1.0765 -0.0501
 6397TIP3    H240683   2.398   1.083   2.932 -0.4799 -0.0821 -2.3636
 6398TIP3   OH240684   0.018   1.849   0.278  0.1286  0.8145  0.0385
 6398TIP3    H140685  -0.038   1.777   0.249  0.1224  0.5030  0.7999
 6398TIP3    H240686   0.044   1.825   0.367  1.3462  1.0307 -0.2372
 6399TIP3   OH240687   3.852   2.426   0.164 -0.5755  0.0996  0.0343
 6399TIP3    H140688   3.809   2.434   0.250 -1.1390 -0.6135 -0.1784
 6399TIP3    H240689   3.925   2.488   0.169 -1.2192  0.8348  0.6502
 6400TIP3   OH240690   4.654   6.766   2.532 -0.1327  0.1699  0.7257
 6400TIP3    H140691   4.584   6.751   2.468 -0.6641 -0.7805  1.5002
 6400TIP3    H240692   4.732   6.780   2.479 -0.0520 -3.0025 -0.1855
 6401TIP3   OH240693   2.533   1.344  12.289 -0.1787  0.5147  0.3793
 6401TIP3    H140694   2.580   1.375  12.366 -0.0022  0.1432  0.4213
 6401TIP3    H240695   2.601   1.307  12.232 -0.5316 -0.9987  0.9072
 6402TIP3   OH240696   3.150   5.935   1.073  0.0402 -0.1218 -0.9715
 6402TIP3    H140697   3.108   5.849   1.074  1.5669 -0.9011 -0.9840
 6402TIP3    H240698   3.225   5.926   1.132 -0.5654  1.6475  0.1646
 6403TIP3   OH240699   6.297   0.746  11.563  0.7424  0.6314 -0.4440
 6403TIP3    H140700   6.225   0.755  11.500  0.5440  1.8598 -0.0585
 6403TIP3    H240701   6.286   0.820  11.623  0.3671 -1.0153  1.6280
 6404TIP3   OH240702   3.505   3.661  11.812 -0.4360  0.4740  0.7771
 6404TIP3    H140703   3.591   3.660  11.769 -0.9556  1.8443 -0.3702
 6404TIP3    H240704   3.463   3.581  11.782  1.0055 -1.1163  2.6905
 6405TIP3   OH240705   1.450   6.158   1.012 -0.5631 -0.1962 -0.0059
 6405TIP3    H140706   1.385   6.187   0.948  0.8601  2.4183 -0.4207
 6405TIP3    H240707   1.513   6.108   0.961  0.1365  1.1918 -0.5488
 6406TIP3   OH240708   1.468   1.971   2.691  0.4609 -0.2159  0.0776
 6406TIP3    H140709   1.511   2.057   2.699  0.2706 -0.0110 -0.9081
 6406TIP3    H240710   1.388   1.989   2.641  0.6022 -1.0144 -0.4530
 6407TIP3   OH240711   4.317   2.106  17.142  0.8383  0.1475  0.5200
 6407TIP3    H140712   4.229   2.128  17.175  0.3284 -0.7388 -0.1920
 6407TIP3    H240713   4.374   2.173  17.179 -0.4929  2.1777 -0.8540
 6408TIP3   OH240714   3.420   1.130   0.617 -0.0618 -0.3170 -0.6683
 6408TIP3    H140715   3.362   1.096   0.685 -2.6242  2.6048 -1.1787
 6408TIP3    H240716   3.467   1.202   0.659  1.2134 -0.9088 -1.0275
 6409TIP3   OH240717   5.334   1.612  16.164 -0.1833 -0.0679  0.1397
 6409TIP3    H140718   5.281   1.623  16.085  0.6892 -1.2297 -0.6372
 6409TIP3    H240719   5.290   1.666  16.230 -1.6660 -0.0853 -0.7903
 6410TIP3   OH240720   4.356   6.140  16.062  0.0012  0.3885 -0.4142
 6410TIP3    H140721   4.304   6.063  16.083 -1.5830  1.6797  0.7266
 6410TIP3    H240722   4.293   6.203  16.026  0.9020  1.7308  0.2330
 6411TIP3   OH240723   0.931   4.691   5.456  0.2071  0.2962 -0.3215
 6411TIP3    H140724   0.876   4.765   5.481  2.1529  1.3883  1.0886
 6411TIP3    H240725   0.921   4.628   5.528  0.8312  0.5275 -0.0282
 6412TIP3   OH240726   1.357   3.044  15.376  0.0359  0.7049 -0.4238
 6412TIP3    H140727   1.370   2.951  15.361  0.8159  0.6881  0.2656
 6412TIP3    H240728   1.422   3.067  15.443 -0.6785  1.5737  0.0004
 6413TIP3   OH240729   2.264   5.583   2.954  0.2004  0.3536 -0.7510
 6413TIP3    H140730   2.279   5.534   2.873 -0.7649 -0.7721 -0.2785
 6413TIP3    H240731   2.177   5.557   2.982 -0.7516  3.0819 -0.9397
 6414TIP3   OH240732   3.279   4.826  17.305  0.2476  0.2292  0.0205
 6414TIP3    H140733   3.308   4.884  17.234  0.0447  0.6339  0.2657
 6414TIP3    H240734   3.272   4.883  17.381 -1.3683  0.1747 -0.0599
 6415TIP3   OH240735   0.554   3.900   2.807  0.1554 -0.0265 -0.4295
 6415TIP3    H140736   0.483   3.869   2.751  0.5632 -0.7476 -0.5587
 6415TIP3    H240737   0.610   3.951   2.749  0.9596 -1.3688 -0.8536
 6416TIP3   OH240738   6.499   6.380  11.483 -0.0079 -0.1426  0.1800
 6416TIP3    H140739   6.490   6.420  11.569  0.1596 -1.2526  0.7358
 6416TIP3    H240740   6.559   6.437  11.435 -0.0575  0.4486  0.8162
 6417TIP3   OH240741   0.835   3.645   2.292  0.3115  0.2594  0.3783
 6417TIP3    H140742   0.774   3.641   2.218 -0.1313 -1.0849  0.7916
 6417TIP3    H240743   0.841   3.555   2.323  2.1075  0.4555  0.6938
 6418TIP3   OH240744   3.749   1.288  12.418  0.7935  0.8334  0.0422
 6418TIP3    H140745   3.698   1.270  12.497 -1.2053  3.1604 -0.5989
 6418TIP3    H240746   3.740   1.210  12.364  1.9913 -0.7008  1.9417
 6419TIP3   OH240747   0.717   5.838   1.285 -0.3165 -0.1419 -0.1313
 6419TIP3    H140748   0.768   5.771   1.241  0.4426  0.7606 -0.6639
 6419TIP3    H240749   0.632   5.798   1.301 -0.1099 -0.9783 -1.0925
 6420TIP3   OH240750   6.485   4.857  12.592  0.2400  0.1892 -0.0119
 6420TIP3    H140751   6.564   4.802  12.596  0.0915  0.0120  0.4943
 6420TIP3    H240752   6.484   4.903  12.676  0.1891  0.7356 -0.3054
 6421TIP3   OH240753   5.250   4.871  15.059 -0.7140  0.0144 -0.0122
 6421TIP3    H140754   5.236   4.787  15.103 -4.3700 -0.6411 -2.0630
 6421TIP3    H240755   5.205   4.935  15.114 -1.5004 -0.0769 -0.5421
 6422TIP3   OH240756   3.692   0.178  12.088 -0.3614  0.3304 -0.1776
 6422TIP3    H140757   3.750   0.133  12.151 -0.3456  0.6354  0.0248
 6422TIP3    H240758   3.668   0.260  12.131 -1.7949 -0.2528  0.1925
 6423TIP3   OH240759   2.573   6.118  16.817  0.8468 -0.3150 -0.2329
 6423TIP3    H140760   2.667   6.122  16.838  0.9605  1.1547 -0.8830
 6423TIP3    H240761   2.566   6.159  16.731 -0.4530  0.0177  0.0080
 6424TIP3   OH240762   2.917   2.622   3.530 -0.2177 -0.1672 -0.1214
 6424TIP3    H140763   2.905   2.537   3.573 -0.4438 -0.1184 -0.0831
 6424TIP3    H240764   3.009   2.624   3.506 -0.2168 -0.4374 -0.1491
 6425TIP3   OH240765   6.755   3.648  16.176 -0.2366 -0.6021  0.2782
 6425TIP3    H140766   6.692   3.623  16.109  1.1141 -1.5072 -0.7222
 6425TIP3    H240767   6.711   3.632  16.259 -1.7790  0.1005 -0.3686
 6426TIP3   OH240768   1.772   2.507   4.001 -0.2075  0.0762 -0.1121
 6426TIP3    H140769   1.801   2.506   4.092  1.0541  0.4305 -0.4810
 6426TIP3    H240770   1.836   2.563   3.957  0.0839 -1.2675 -1.4838
 6427TIP3   OH240771   2.164   4.154  15.105  0.6040 -0.0543 -0.4483
 6427TIP3    H140772   2.244   4.117  15.067 -0.0585 -1.9856 -0.0654
 6427TIP3    H240773   2.161   4.120  15.194 -0.0365  0.9992 -0.0481
 6428TIP3   OH240774   0.518   0.255   4.241 -0.1440  0.1617  0.3109
 6428TIP3    H140775   0.428   0.268   4.270 -0.7418  2.1193 -2.1269
 6428TIP3    H240776   0.569   0.312   4.300 -0.9476  1.6598 -0.3736
 6429TIP3   OH240777   4.142   3.376   4.605  0.5431  0.3769 -0.4660
 6429TIP3    H140778   4.128   3.415   4.691 -1.1555  2.1674 -1.4815
 6429TIP3    H240779   4.091   3.294   4.607  0.4265  0.4628  0.1926
 6430TIP3   OH240780   1.567   5.218  17.449  0.4763  0.0507 -0.2703
 6430TIP3    H140781   1.542   5.151  17.513 -0.0813 -1.4867 -2.0252
 6430TIP3    H240782   1.662   5.220  17.451  0.4768 -0.3117  0.2500
 6431TIP3   OH240783   2.277   6.572  15.678 -0.1695  0.2736 -0.7932
 6431TIP3    H140784   2.320   6.583  15.593  3.0646 -2.3181  0.2954
 6431TIP3    H240785   2.219   6.497  15.666  0.3016 -0.1038 -0.7127
 6432TIP3   OH240786   6.065   2.637  15.542 -0.3366 -0.3510  0.1121
 6432TIP3    H140787   6.076   2.731  15.555 -1.6695 -0.2906  0.9528
 6432TIP3    H240788   6.003   2.610  15.609 -0.5393 -1.7048 -0.5823
 6433TIP3   OH240789   3.328   0.374  14.161  0.4094 -0.2166 -0.3081
 6433TIP3    H140790   3.318   0.452  14.107 -1.0879 -0.2578 -0.1396
 6433TIP3    H240791   3.399   0.395  14.221 -1.4617  2.0240  1.3382
 6434TIP3   OH240792   2.965   5.479   4.975 -0.3472  0.5306 -0.1414
 6434TIP3    H140793   2.972   5.385   4.988  2.4985  0.6829  0.0569
 6434TIP3    H240794   2.920   5.489   4.891 -1.4463 -0.9545  0.2406
 6435TIP3   OH240795   0.734   1.441  13.255  0.3780 -0.0584  0.2045
 6435TIP3    H140796   0.648   1.462  13.219  1.1630  2.1090 -0.5722
 6435TIP3    H240797   0.786   1.413  13.179  0.5327 -0.7823  0.5696
 6436TIP3   OH240798   5.643   3.189  17.251  0.6581  0.2380  0.6405
 6436TIP3    H140799   5.670   3.162  17.163  0.1959  0.7475  0.3377
 6436TIP3    H240800   5.627   3.107  17.298 -1.0134 -0.0357 -0.3424
 6437TIP3   OH240801   5.926   4.267   2.577 -0.1619  0.1973  0.0910
 6437TIP3    H140802   5.995   4.317   2.533  0.7076 -0.3118  0.8331
 6437TIP3    H240803   5.872   4.234   2.506  1.4481 -0.9500 -0.6745
 6438TIP3   OH240804   4.411   3.813   4.094 -0.0167 -0.0417 -0.2443
 6438TIP3    H140805   4.438   3.804   4.185  1.4064  1.5287 -0.4662
 6438TIP3    H240806   4.317   3.795   4.095 -0.2518  1.0666  1.7262
 6439TIP3   OH240807   3.151   4.634  15.081 -0.0984 -0.1572 -0.3919
 6439TIP3    H140808   3.124   4.655  15.171 -0.5802 -0.1770 -0.5303
 6439TIP3    H240809   3.097   4.559  15.057  1.7640 -1.7894  0.1848
 6440TIP3   OH240810   1.023   1.275   5.499 -0.4819  0.0283 -0.0412
 6440TIP3    H140811   1.063   1.306   5.581 -0.2382  0.0139 -0.1529
 6440TIP3    H240812   1.078   1.202   5.472 -1.1140 -0.5721  0.2714
 6441TIP3   OH240813   1.782   2.176   2.576 -0.1725 -0.0462  0.4068
 6441TIP3    H140814   1.812   2.152   2.488  1.4129 -0.3175  0.9751
 6441TIP3    H240815   1.687   2.173   2.571 -0.2043 -4.2266 -0.2188
 6442TIP3   OH240816   3.989   3.075   4.940  0.1106  0.0292 -0.7545
 6442TIP3    H140817   3.925   3.119   4.884 -0.7888 -0.3431 -0.0492
 6442TIP3    H240818   3.992   2.985   4.908 -0.9057 -0.3562  0.1987
 6443TIP3   OH240819   4.257   1.258  14.104  0.1215  0.2757  0.8309
 6443TIP3    H140820   4.281   1.341  14.146 -0.0846 -0.0807  1.6818
 6443TIP3    H240821   4.162   1.265  14.091  0.1832  0.3799  0.4233
 6444TIP3   OH240822   5.451   1.554   4.486  0.1366 -0.5426 -0.6671
 6444TIP3    H140823   5.443   1.540   4.392 -0.0992  0.9573 -0.8855
 6444TIP3    H240824   5.411   1.639   4.502 -2.8239 -2.1027  1.2694
 6445TIP3   OH240825   2.482   6.622  17.101 -0.2935 -0.0388  0.6212
 6445TIP3    H140826   2.507   6.714  17.097 -1.3552  0.2764  0.9681
 6445TIP3    H240827   2.447   6.611  17.189  0.8123 -1.0530  0.9684
 6446TIP3   OH240828   1.743   0.605   3.687 -0.2432  0.4553 -1.0188
 6446TIP3    H140829   1.829   0.599   3.729 -1.2526 -0.3432  1.0554
 6446TIP3    H240830   1.681   0.579   3.755 -2.3457  3.0746 -1.7786
 6447TIP3   OH240831   3.596   6.544  15.831  0.1333  0.3995 -0.1373
 6447TIP3    H140832   3.616   6.486  15.905 -0.4795 -0.8620 -0.9272
 6447TIP3    H240833   3.500   6.543  15.825  0.2074 -0.6392 -1.7771
 6448TIP3   OH240834   5.078   1.109   0.625 -0.6713 -0.4116  0.6768
 6448TIP3    H140835   5.060   1.203   0.614 -1.5443 -0.4972  1.3212
 6448TIP3    H240836   5.169   1.099   0.595  0.2740  1.0744  2.8101
 6449TIP3   OH240837   3.347   2.154   3.891 -0.6628  0.2988 -0.5271
 6449TIP3    H140838   3.350   2.249   3.884 -1.0536  0.3375 -0.1854
 6449TIP3    H240839   3.388   2.134   3.975  1.6375 -0.0044 -1.6455
 6450TIP3   OH240840   3.568   1.881  11.702  0.0855 -0.1828 -0.6670
 6450TIP3    H140841   3.643   1.855  11.755  0.5285 -0.6918 -1.5272
 6450TIP3    H240842   3.601   1.883  11.612 -0.9614 -0.5425 -1.0765
 6451TIP3   OH240843   6.027   0.344  17.430 -0.5275  0.5393  0.2758
 6451TIP3    H140844   6.030   0.348  17.335 -1.2820  0.4431  0.2419
 6451TIP3    H240845   5.989   0.259  17.450  1.9506 -0.5251  0.7304
 6452TIP3   OH240846   6.698   0.723   4.171  0.1798  0.1422 -0.3344
 6452TIP3    H140847   6.610   0.745   4.143  0.7354 -0.1927 -2.4937
 6452TIP3    H240848   6.746   0.706   4.090  1.7009 -1.6987  0.8555
 6453TIP3   OH240849   3.573   6.099   0.709 -0.3981 -0.0342 -0.9032
 6453TIP3    H140850   3.595   6.193   0.713 -0.3183 -0.0717 -0.3596
 6453TIP3    H240851   3.516   6.085   0.785  1.0311 -0.7920  0.0815
 6454TIP3   OH240852   3.015   1.585  14.401  0.3400  0.0544 -0.2836
 6454TIP3    H140853   2.959   1.651  14.361  0.8510  1.4524  1.2255
 6454TIP3    H240854   3.104   1.620  14.392  0.5108  0.1716  1.5897
 6455TIP3   OH240855   6.031   3.447  13.355  0.5439  0.3073 -0.8016
 6455TIP3    H140856   6.047   3.357  13.324  1.6994  0.2750 -0.1897
 6455TIP3    H240857   6.047   3.443  13.449 -0.9448  0.8408 -0.4992
 6456TIP3   OH240858   4.397   3.756   0.058 -0.4101  0.0670  0.1576
 6456TIP3    H140859   4.470   3.745   0.119  0.5519 -0.4298 -1.0431
 6456TIP3    H240860   4.359   3.669   0.049 -0.1367  0.0012 -0.4306
 6457TIP3   OH240861   1.157   2.024   1.972 -0.0736 -0.3266 -0.5555
 6457TIP3    H140862   1.098   2.026   1.896 -0.4975  2.8709 -0.2470
 6457TIP3    H240863   1.243   2.042   1.936 -0.2273  0.8825 -0.3458
 6458TIP3   OH240864   5.375   2.066  13.908  0.7996  0.2333  0.1466
 6458TIP3    H140865   5.447   2.117  13.870  0.4050  0.6327 -0.0733
 6458TIP3    H240866   5.334   2.126  13.971 -0.2745  0.5498 -0.8098
 6459TIP3   OH240867   0.826   5.931  15.405  0.0077 -0.4121 -0.2088
 6459TIP3    H140868   0.753   5.915  15.464 -1.4556  2.2432 -1.1204
 6459TIP3    H240869   0.837   5.849  15.357 -1.3515 -1.3617  1.0257
 6460TIP3   OH240870   3.144   5.082   2.416  0.4719 -0.3438  0.9092
 6460TIP3    H140871   3.166   5.059   2.506  0.2401  0.2791  1.1319
 6460TIP3    H240872   3.204   5.030   2.363 -0.2122 -1.6268  1.3747
 6461TIP3   OH240873   0.683   4.022   2.243 -0.1706 -0.0072  0.0331
 6461TIP3    H140874   0.698   3.981   2.158 -1.1166 -0.5172  0.0988
 6461TIP3    H240875   0.623   4.095   2.225 -0.6049 -0.2956  0.3018
 6462TIP3   OH240876   2.092   6.635  16.232 -0.4555 -0.3281  0.0883
 6462TIP3    H140877   2.114   6.609  16.321  2.1166 -2.1508 -0.9382
 6462TIP3    H240878   2.175   6.628  16.184 -1.8298  0.1165 -2.5357
 6463TIP3   OH240879   2.770   6.421   7.019  0.1666 -0.0693 -0.2077
 6463TIP3    H140880   2.828   6.445   6.947 -0.9959  1.3554 -0.7228
 6463TIP3    H240881   2.708   6.358   6.981 -0.9339  1.2665 -0.7320
 6464TIP3   OH240882   5.213   3.247   1.679  0.1993  0.7396 -0.2747
 6464TIP3    H140883   5.149   3.176   1.674 -1.1685  1.8760  0.1224
 6464TIP3    H240884   5.248   3.242   1.768 -0.8384  1.3068  0.1851
 6465TIP3   OH240885   3.352   0.913  16.374 -1.0978 -0.3366 -0.2279
 6465TIP3    H140886   3.432   0.894  16.325 -1.4674 -0.4386 -0.8043
 6465TIP3    H240887   3.381   0.967  16.448 -0.6617  0.7964 -1.1905
 6466TIP3   OH240888   0.616   4.280   0.238 -0.3896 -0.0833  0.2588
 6466TIP3    H140889   0.704   4.243   0.242 -0.6644 -0.6561  1.8115
 6466TIP3    H240890   0.561   4.209   0.203 -0.2835  0.2127 -0.5338
 6467TIP3   OH240891   4.201   2.219   3.023  0.2139  0.0967 -0.2926
 6467TIP3    H140892   4.164   2.224   3.112 -0.6918  1.2899 -0.7102
 6467TIP3    H240893   4.258   2.295   3.017 -0.5759  0.6340 -1.0957
 6468TIP3   OH240894   3.025   4.480  12.113 -0.6916 -0.2117  0.6665
 6468TIP3    H140895   3.024   4.498  12.019  1.0563  0.7091  0.7855
 6468TIP3    H240896   3.037   4.385  12.119 -2.0837 -0.4548 -0.0087
 6469TIP3   OH240897   6.050   1.288  13.104  0.0101 -0.3044  0.0636
 6469TIP3    H140898   6.069   1.262  13.194 -0.6281  1.7791  0.8622
 6469TIP3    H240899   6.113   1.239  13.051  1.6173 -0.2162  1.7997
 6470TIP3   OH240900   6.117   4.524  12.667  0.0301  0.2468  0.2424
 6470TIP3    H140901   6.088   4.472  12.742 -0.7811 -0.0631 -0.2635
 6470TIP3    H240902   6.114   4.463  12.593 -1.2284  1.0602 -0.4183
 6471TIP3   OH240903   0.462   3.796  15.633  0.1298  0.2794 -0.3231
 6471TIP3    H140904   0.535   3.756  15.587 -0.0606  0.0791 -0.4507
 6471TIP3    H240905   0.384   3.755  15.597 -0.0126 -0.0446  0.3258
 6472TIP3   OH240906   5.032   2.232   3.991  0.0280 -0.4001 -0.2624
 6472TIP3    H140907   4.939   2.242   4.013 -0.0836 -0.8806 -0.5037
 6472TIP3    H240908   5.055   2.144   4.021  0.5366 -0.1025  0.2389
 6473TIP3   OH240909   0.398   3.303   3.082 -0.1110  0.1304  0.0177
 6473TIP3    H140910   0.459   3.322   3.154 -0.0074  0.5155 -0.1714
 6473TIP3    H240911   0.344   3.231   3.115  0.9742 -0.7759 -0.1192
 6474TIP3   OH240912   1.893   4.991  16.973 -0.0338  0.1726  0.5709
 6474TIP3    H140913   1.952   5.064  16.992  0.1051  0.9150 -2.1968
 6474TIP3    H240914   1.941   4.937  16.911 -1.6727 -0.0048 -0.6073
 6475TIP3   OH240915   1.150   0.949   5.634 -0.2456  0.2551 -0.0374
 6475TIP3    H140916   1.129   1.007   5.707  0.6277 -0.6153  0.9354
 6475TIP3    H240917   1.145   0.861   5.671  2.8933 -0.1131 -0.2519
 6476TIP3   OH240918   4.591   1.712   2.658 -0.2269  0.6060  0.7111
 6476TIP3    H140919   4.577   1.650   2.729 -0.5291 -0.2676 -0.0929
 6476TIP3    H240920   4.519   1.775   2.666 -0.7989 -0.0287  0.6218
 6477TIP3   OH240921   4.374   4.800  14.951 -0.2879 -0.7620 -0.0509
 6477TIP3    H140922   4.324   4.880  14.930  0.9059  0.2005  0.6571
 6477TIP3    H240923   4.462   4.818  14.919  0.2638 -1.3600  1.0777
 6478TIP3   OH240924   5.602   4.730   6.054  0.2768 -0.1906  0.2743
 6478TIP3    H140925   5.538   4.672   6.094  0.8009 -0.4966  0.6940
 6478TIP3    H240926   5.671   4.672   6.022  0.4536  0.1448  0.0365
 6479TIP3   OH240927   3.267   6.088   5.139 -0.0242 -0.1370  0.0285
 6479TIP3    H140928   3.318   6.073   5.218 -0.3343 -0.2733  0.2073
 6479TIP3    H240929   3.327   6.130   5.078  0.7024 -1.4941 -0.2456
 6480TIP3   OH240930   5.840   2.127  17.145 -0.0960  0.2586 -0.1193
 6480TIP3    H140931   5.760   2.118  17.197 -0.9892  1.3100 -1.2624
 6480TIP3    H240932   5.869   2.037  17.130  0.2945 -0.0874  2.2929
 6481TIP3   OH240933   0.389   6.764  13.038 -0.0406 -0.5440  0.2043
 6481TIP3    H140934   0.462   6.825  13.039  0.0122 -0.5767 -0.9748
 6481TIP3    H240935   0.427   6.680  13.012 -0.5361 -0.4776 -0.7922
 6482TIP3   OH240936   5.316   6.393   1.918 -0.2846  0.3579  0.1114
 6482TIP3    H140937   5.395   6.341   1.901 -0.2755  0.9823 -2.0598
 6482TIP3    H240938   5.277   6.353   1.996 -0.1485 -2.7935 -1.2790
 6483TIP3   OH240939   1.228   5.695  12.362 -0.0068 -0.8727  0.4641
 6483TIP3    H140940   1.164   5.700  12.290 -0.7282  0.8955  1.1539
 6483TIP3    H240941   1.313   5.701  12.318 -0.4464  0.7096 -0.2716
 6484TIP3   OH240942   3.229   4.651   6.248 -0.2194 -0.7966  0.2928
 6484TIP3    H140943   3.197   4.736   6.280  0.0772 -0.0536 -1.2628
 6484TIP3    H240944   3.277   4.614   6.322  1.6640  1.4808  0.3361
 6485TIP3   OH240945   2.192   2.388  14.730  0.0169  0.6147 -0.1793
 6485TIP3    H140946   2.209   2.294  14.737 -1.1685  0.0295 -3.2904
 6485TIP3    H240947   2.100   2.398  14.754  0.2369  1.0715  0.5068
 6486TIP3   OH240948   4.761   5.678   3.229 -0.6790  0.0246 -0.0600
 6486TIP3    H140949   4.831   5.625   3.191  0.1063  0.8228  0.2473
 6486TIP3    H240950   4.752   5.752   3.168 -1.0944  0.0407  0.0220
 6487TIP3   OH240951   5.481   2.722  12.934  0.0755  0.5461  0.0929
 6487TIP3    H140952   5.522   2.649  12.887  0.7366  1.4083 -0.7069
 6487TIP3    H240953   5.512   2.712  13.024  1.2128  0.5636 -0.2788
 6488TIP3   OH240954   6.259   2.558   4.430  0.3400  0.2224 -0.2886
 6488TIP3    H140955   6.279   2.603   4.512  1.2299  2.3176 -1.5693
 6488TIP3    H240956   6.180   2.602   4.398 -0.0019 -0.5815 -0.5666
 6489TIP3   OH240957   6.368   4.368   2.363  0.1835  0.2355  0.0831
 6489TIP3    H140958   6.359   4.306   2.291  0.4821 -0.5555  0.7065
 6489TIP3    H240959   6.441   4.424   2.337  0.5897 -0.3334 -0.0310
 6490TIP3   OH240960   6.757   5.091  13.739  0.1749  0.0216  0.0248
 6490TIP3    H140961   6.749   5.030  13.812  1.1729  0.4540  0.5135
 6490TIP3    H240962   6.744   5.178  13.777  1.7906  0.3418 -0.0726
 6491TIP3   OH240963   4.483   1.969   5.389  0.2615 -0.1011 -0.4552
 6491TIP3    H140964   4.564   2.014   5.413  0.6440 -0.2650 -1.3982
 6491TIP3    H240965   4.456   1.924   5.469  2.1367 -1.5955 -0.5914
 6492TIP3   OH240966   4.280   0.049  16.468 -0.2255 -0.2153  0.0648
 6492TIP3    H140967   4.207   0.032  16.528  0.4581  1.1052  1.3426
 6492TIP3    H240968   4.354   0.005  16.509  0.1351  0.2143 -0.1282
 6493TIP3   OH240969   5.454   5.701   3.392  0.0135 -0.5571 -0.6141
 6493TIP3    H140970   5.487   5.634   3.452  0.0596 -1.3921 -1.5429
 6493TIP3    H240971   5.479   5.670   3.305 -0.6654  0.2731 -1.1239
 6494TIP3   OH240972   3.092   6.463   5.961  0.4695 -0.1054 -0.3966
 6494TIP3    H140973   3.027   6.440   6.028  0.4791  0.9881  0.0087
 6494TIP3    H240974   3.170   6.414   5.986  1.1576  1.8371  1.6786
 6495TIP3   OH240975   1.341   1.664  17.043 -0.3745 -0.5798 -0.1882
 6495TIP3    H140976   1.421   1.682  16.994 -0.1398  0.4244  0.5172
 6495TIP3    H240977   1.280   1.733  17.016 -0.3476 -0.2034  0.6520
 6496TIP3   OH240978   0.129   2.878  17.304 -0.2283  0.5556 -0.4919
 6496TIP3    H140979   0.118   2.946  17.237 -1.4767 -0.1969 -1.0706
 6496TIP3    H240980   0.162   2.802  17.255  0.4797  0.5021  0.0425
 6497TIP3   OH240981   0.436   0.373   0.869 -0.5360  0.5243  0.4130
 6497TIP3    H140982   0.429   0.287   0.828  1.5704  0.2232  0.5905
 6497TIP3    H240983   0.472   0.356   0.956 -1.1068  1.5042  0.8583
 6498TIP3   OH240984   2.415   6.339   1.387 -0.1090  0.1299  0.1776
 6498TIP3    H140985   2.429   6.367   1.477 -0.3238  0.4756  0.1066
 6498TIP3    H240986   2.320   6.332   1.378 -0.1499  1.1832 -0.3396
 6499TIP3   OH240987   4.992   3.163   3.582  0.2038  0.3948 -0.2576
 6499TIP3    H140988   5.053   3.233   3.556  0.6691  1.0724  2.2717
 6499TIP3    H240989   5.044   3.108   3.641 -1.3169  0.3860  1.1412
 6500TIP3   OH240990   3.305   2.684   3.292  0.0829  0.0698  0.1869
 6500TIP3    H140991   3.310   2.776   3.266  1.5052 -0.4891 -1.7707
 6500TIP3    H240992   3.393   2.663   3.323 -0.0381 -0.8055 -0.0330
 6501TIP3   OH240993   5.829   0.081  17.370 -0.4812 -0.1364  0.0855
 6501TIP3    H140994   5.827   0.122  17.284  0.0228  0.3045  0.2731
 6501TIP3    H240995   5.743   0.099  17.408 -1.0157 -1.0792 -0.6546
 6502TIP3   OH240996   4.673   2.124  12.205 -0.0893  0.3763 -0.0108
 6502TIP3    H140997   4.744   2.060  12.204  0.8447  1.3725 -1.7742
 6502TIP3    H240998   4.594   2.074  12.184  0.4470 -0.3769 -0.2639
 6503TIP3   OH240999   2.208   2.408  14.449 -0.0450  0.1432 -0.0693
 6503TIP3    H141000   2.300   2.391  14.426  0.1075  0.9517 -0.0629
 6503TIP3    H241001   2.205   2.395  14.544 -0.6187 -2.9339 -0.3818
 6504TIP3   OH241002   4.140   4.402   2.995  0.0826  0.6687  0.2587
 6504TIP3    H141003   4.215   4.454   3.024  0.1177  0.6663  0.1716
 6504TIP3    H241004   4.113   4.443   2.913 -1.2042  1.8817  1.2378
 6505TIP3   OH241005   0.385   1.305  15.937  0.0983 -0.3690  0.7324
 6505TIP3    H141006   0.453   1.303  15.870  0.1236  4.4248  0.3043
 6505TIP3    H241007   0.304   1.321  15.890 -0.0870  1.6938  1.6613
 6506TIP3   OH241008   4.153   3.565  13.943 -0.1890 -0.7494  0.0480
 6506TIP3    H141009   4.107   3.556  13.860 -0.7979 -0.7597  0.3831
 6506TIP3    H241010   4.129   3.653  13.974 -1.3387 -1.3811  1.0279
 6507TIP3   OH241011   6.726   3.017  16.700 -0.1426 -0.6633 -0.1582
 6507TIP3    H141012   6.803   3.031  16.754 -1.1275  0.5917  1.0113
 6507TIP3    H241013   6.759   3.015  16.610  1.1181  1.0337  0.2205
 6508TIP3   OH241014   1.877   0.512  14.378 -0.1224  0.3954  0.2116
 6508TIP3    H141015   1.966   0.535  14.354  1.3782 -1.7444  3.0722
 6508TIP3    H241016   1.860   0.562  14.458 -1.3468  0.4750 -0.0793
 6509TIP3   OH241017   0.339   2.055   2.223 -0.2114  0.6768 -0.4814
 6509TIP3    H141018   0.410   2.098   2.175 -0.9425  0.3760 -1.8503
 6509TIP3    H241019   0.385   1.996   2.284  0.7243  0.6903 -1.1448
 6510TIP3   OH241020   5.961   2.523  14.934  0.1997 -0.1006 -0.5055
 6510TIP3    H141021   5.912   2.567  15.003  1.0533  0.8815 -0.4952
 6510TIP3    H241022   5.981   2.436  14.969  0.0114  0.1344  0.1965
 6511TIP3   OH241023   3.514   4.965   2.371 -0.5976 -0.2679 -0.1417
 6511TIP3    H141024   3.476   4.976   2.458 -2.2469 -0.5427 -0.7784
 6511TIP3    H241025   3.535   5.054   2.343  1.6199 -0.3014  1.1848
 6512TIP3   OH241026   1.649   1.386   5.358  0.6314  0.5849  0.2611
 6512TIP3    H141027   1.607   1.443   5.423 -0.7021  0.0506 -0.0937
 6512TIP3    H241028   1.646   1.437   5.277  0.7479  0.5819  0.2555
 6513TIP3   OH241029   5.104   1.607  13.625  0.1478  0.0216 -0.1449
 6513TIP3    H141030   5.074   1.570  13.708 -0.1785  0.0737 -0.2395
 6513TIP3    H241031   5.028   1.652  13.589  0.3757  0.2689 -0.3237
 6514TIP3   OH241032   1.198   0.236  14.231  0.1298 -0.7849  0.8944
 6514TIP3    H141033   1.293   0.230  14.239  0.1448 -0.3725  1.0246
 6514TIP3    H241034   1.183   0.318  14.184 -0.2624  0.3654  2.9322
 6515TIP3   OH241035   4.758   3.584  15.355  0.2074  0.0959  0.1964
 6515TIP3    H141036   4.762   3.628  15.440 -0.2652  1.4041 -0.4261
 6515TIP3    H241037   4.743   3.655  15.292  3.1623 -0.4787 -1.3283
 6516TIP3   OH241038   2.445   6.523  14.573  0.2875  0.5242  0.2080
 6516TIP3    H141039   2.507   6.449  14.569 -1.2554 -0.8080 -0.3021
 6516TIP3    H241040   2.399   6.519  14.489 -0.0454  1.9105  0.3016
 6517TIP3   OH241041   6.576   1.517   1.165  0.1584 -0.1678  0.0136
 6517TIP3    H141042   6.586   1.445   1.227  0.6423  0.3381  0.5358
 6517TIP3    H241043   6.638   1.496   1.094 -0.7410 -0.9905 -0.5527
 6518TIP3   OH241044   1.889   4.816   4.437  0.3053 -0.1347  0.3122
 6518TIP3    H141045   1.909   4.905   4.466  3.0187 -0.4377 -0.3165
 6518TIP3    H241046   1.948   4.760   4.489 -1.4046 -1.6112  0.7698
 6519TIP3   OH241047   0.657   1.587  15.750  0.0833 -0.0456 -0.0555
 6519TIP3    H141048   0.711   1.626  15.681  0.1656  0.9074  0.5151
 6519TIP3    H241049   0.634   1.661  15.806  1.1561 -0.9718  1.7072
 6520TIP3   OH241050   3.558   2.641   0.677  0.1228 -0.2536 -0.2082
 6520TIP3    H141051   3.471   2.601   0.688  0.4018 -0.9888 -0.6521
 6520TIP3    H241052   3.539   2.730   0.645 -0.4872 -0.1231  0.4707
 6521TIP3   OH241053   2.536   5.249   1.570  0.3062  0.1768 -0.2959
 6521TIP3    H141054   2.503   5.170   1.527 -1.3187  2.4197 -3.6062
 6521TIP3    H241055   2.619   5.267   1.527  0.2261  0.7665 -0.2097
 6522TIP3   OH241056   1.945   2.901  16.106 -0.1226  0.6379 -0.4461
 6522TIP3    H141057   1.909   2.873  16.191  0.8485 -0.0914 -0.2441
 6522TIP3    H241058   1.869   2.916  16.051 -0.7732 -2.2462 -0.4918
 6523TIP3   OH241059   3.144   6.653   2.781 -0.3639  0.0341  0.0086
 6523TIP3    H141060   3.230   6.671   2.820  0.3453  0.6059 -1.7423
 6523TIP3    H241061   3.163   6.618   2.694 -1.8891  1.1101 -0.8088
 6524TIP3   OH241062   3.420   0.475  10.725 -0.2518 -0.4521 -0.6123
 6524TIP3    H141063   3.402   0.562  10.759  0.7688 -0.0778 -0.9876
 6524TIP3    H241064   3.398   0.416  10.797 -1.6073  0.0464 -0.5875
 6525TIP3   OH241065   1.856   2.906  15.109 -0.6093 -0.3304  0.4917
 6525TIP3    H141066   1.804   2.963  15.166 -2.1384 -1.4639  0.2859
 6525TIP3    H241067   1.809   2.822  15.109 -0.5693 -0.4447 -2.2610
 6526TIP3   OH241068   5.907   5.090   5.035 -0.2206  0.5282 -0.1181
 6526TIP3    H141069   5.812   5.088   5.022 -0.0089 -1.7249 -2.0938
 6526TIP3    H241070   5.922   5.042   5.116 -0.7276 -0.0578 -0.3668
 6527TIP3   OH241071   1.980   5.527   6.375 -0.2864  0.3684 -0.8730
 6527TIP3    H141072   2.070   5.555   6.388 -0.5082  1.2876 -1.2025
 6527TIP3    H241073   1.930   5.609   6.369 -0.8948 -0.0728 -2.3689
 6528TIP3   OH241074   3.534   5.295  11.828 -0.4252 -0.0034 -0.1959
 6528TIP3    H141075   3.514   5.215  11.876  0.8917  0.0588  0.4951
 6528TIP3    H241076   3.453   5.315  11.780 -2.3053  0.6929  2.9989
 6529TIP3   OH241077   0.368   1.362  17.117 -0.0740 -0.0021 -0.3249
 6529TIP3    H141078   0.425   1.311  17.175  0.4973  0.6445 -0.2991
 6529TIP3    H241079   0.282   1.322  17.127  0.3138 -0.8231 -0.1412
 6530TIP3   OH241080   1.376   5.219  16.532 -0.1156 -0.2141 -0.1525
 6530TIP3    H141081   1.381   5.273  16.453 -0.0433  0.8875  0.5961
 6530TIP3    H241082   1.426   5.267  16.598  0.0490 -1.2556  0.5005
 6531TIP3   OH241083   4.927   0.442  11.546  0.0634 -0.5246 -0.2470
 6531TIP3    H141084   4.994   0.399  11.600 -0.1318  0.1830  0.5750
 6531TIP3    H241085   4.959   0.432  11.456  1.6648  0.4458  0.1746
 6532TIP3   OH241086   0.087   2.269  17.471 -0.0240 -0.1705 -0.4655
 6532TIP3    H141087   0.147   2.196  17.488 -1.4556 -1.7580 -1.8117
 6532TIP3    H241088   0.140   2.335  17.427  0.9776 -1.0487 -0.6024
 6533TIP3   OH241089   1.174   2.548  14.800  0.9106  0.1695  0.1350
 6533TIP3    H141090   1.094   2.575  14.756  0.7641  0.9576  0.8609
 6533TIP3    H241091   1.164   2.580  14.890  3.7368  3.9775 -0.6366
 6534TIP3   OH241092   2.882   2.436   4.967 -0.9945 -0.6916 -0.8400
 6534TIP3    H141093   2.842   2.376   4.903 -0.8240 -1.9743  0.2083
 6534TIP3    H241094   2.934   2.379   5.023  0.0489  0.5949 -0.4401
 6535TIP3   OH241095   4.664   1.910   5.047 -0.5269  0.1952 -0.6444
 6535TIP3    H141096   4.709   1.991   5.023  0.7876  0.2699  1.7937
 6535TIP3    H241097   4.581   1.939   5.086  0.3399  0.4903  1.0756
 6536TIP3   OH241098   2.835   4.502   2.284 -0.4540  0.0822 -0.1408
 6536TIP3    H141099   2.924   4.507   2.320 -0.7765 -1.2453  0.9086
 6536TIP3    H241100   2.791   4.580   2.318 -0.3339 -0.4171  1.2136
 6537TIP3   OH241101   5.953   6.343   4.092 -0.6577 -0.4977 -0.3390
 6537TIP3    H141102   6.012   6.306   4.158  2.8859  0.2722 -2.7921
 6537TIP3    H241103   5.935   6.269   4.033  1.0399  0.0443 -1.6215
 6538TIP3   OH241104   3.228   6.487   2.481  0.2579  0.4702  0.0700
 6538TIP3    H141105   3.264   6.525   2.400  0.0722 -1.6749 -1.1045
 6538TIP3    H241106   3.305   6.452   2.526  0.1248 -0.5592 -0.4626
 6539TIP3   OH241107   4.321   6.449   3.919 -0.8904  0.3586 -0.8538
 6539TIP3    H141108   4.393   6.465   3.980 -0.3096  0.6402 -1.5941
 6539TIP3    H241109   4.245   6.431   3.974 -0.5644  1.4328 -0.0433
 6540TIP3   OH241110   3.517   4.405  16.579  0.7060 -0.4136  0.0503
 6540TIP3    H141111   3.608   4.395  16.550  0.2703  0.4075 -1.7905
 6540TIP3    H241112   3.467   4.414  16.497 -0.7976  0.9761  1.0541
 6541TIP3   OH241113   5.441   4.010  13.671 -0.3146 -0.1747  0.6473
 6541TIP3    H141114   5.468   4.041  13.757 -1.1096 -0.0695  0.8651
 6541TIP3    H241115   5.397   4.085  13.630  1.2809  0.2221 -0.4208
 6542TIP3   OH241116   3.436   1.709   2.213  0.4589  0.3802  0.0764
 6542TIP3    H141117   3.345   1.729   2.193  0.6328  0.1660 -0.9410
 6542TIP3    H241118   3.438   1.615   2.227  0.5944  0.3269 -0.2934
 6543TIP3   OH241119   1.031   5.131  14.343 -0.1687 -0.1066 -0.6861
 6543TIP3    H141120   1.011   5.206  14.287  1.0447  0.2917 -0.6097
 6543TIP3    H241121   0.946   5.093  14.364 -0.9434  2.1202  0.4979
 6544TIP3   OH241122   5.524   1.454   5.565  0.0490  0.4178 -0.4575
 6544TIP3    H141123   5.534   1.460   5.470 -0.1508 -1.0965 -0.6091
 6544TIP3    H241124   5.598   1.401   5.594  0.5025  1.4573  0.3414
 6545TIP3   OH241125   0.712   6.782   0.515  0.3477  0.1452  0.2842
 6545TIP3    H141126   0.640   6.827   0.470 -0.2855 -1.1760 -0.0940
 6545TIP3    H241127   0.783   6.846   0.518  0.6227  0.1644 -3.1129
 6546TIP3   OH241128   4.732   1.908  11.751  0.7975 -0.5031 -0.6612
 6546TIP3    H141129   4.684   1.845  11.804 -0.0895 -0.2601 -1.1371
 6546TIP3    H241130   4.778   1.963  11.814 -1.1539  0.5129 -0.0431
 6547TIP3   OH241131   1.129   5.410  12.604 -0.5561 -0.2497 -0.4189
 6547TIP3    H141132   1.081   5.345  12.655  0.2115  1.0859  2.1719
 6547TIP3    H241133   1.067   5.482  12.592  0.3117  1.0193  2.0061
 6548TIP3   OH241134   1.203   6.556  11.486  0.2029  0.1468 -0.4784
 6548TIP3    H141135   1.219   6.517  11.572  1.1239  0.7084 -0.3872
 6548TIP3    H241136   1.245   6.641  11.490  0.8009 -0.0767 -1.7043
 6549TIP3   OH241137   6.406   1.400  16.106  0.3183 -0.1002 -0.4102
 6549TIP3    H141138   6.497   1.381  16.084  0.0031 -2.1582 -0.1377
 6549TIP3    H241139   6.355   1.337  16.055 -0.9691  1.0221 -0.5733
 6550TIP3   OH241140   4.216   6.127   1.415 -0.4739 -0.2310  0.2719
 6550TIP3    H141141   4.292   6.106   1.469 -0.1496 -1.6834 -0.6742
 6550TIP3    H241142   4.179   6.042   1.392 -2.3878  0.4480  0.6865
 6551TIP3   OH241143   2.359   3.599   5.108 -0.3879  0.3883  0.4062
 6551TIP3    H141144   2.316   3.573   5.027  1.5364  0.5898 -0.7219
 6551TIP3    H241145   2.379   3.516   5.152  0.8115  0.1376 -0.5622
 6552TIP3   OH241146   4.888   4.044   2.997 -0.2787 -0.2104 -0.1311
 6552TIP3    H141147   4.876   4.071   3.088 -1.2899 -1.1003  0.0182
 6552TIP3    H241148   4.977   4.009   2.994 -0.1977 -0.0620  0.4813
 6553TIP3   OH241149   5.238   3.782  14.364  0.6595 -0.1079  0.1920
 6553TIP3    H141150   5.162   3.811  14.314  2.4320 -1.0197 -3.2968
 6553TIP3    H241151   5.205   3.712  14.420 -0.9605 -0.9421 -1.7143
 6554TIP3   OH241152   1.053   1.578  15.111 -0.0627  0.1992  0.1682
 6554TIP3    H141153   0.976   1.521  15.118 -1.0807  1.5348  0.2546
 6554TIP3    H241154   1.118   1.538  15.169 -1.1245 -0.2822  1.0617
 6555TIP3   OH241155   2.667   2.263  14.099 -1.0262  0.2824  0.1096
 6555TIP3    H141156   2.720   2.341  14.109 -3.2143  1.6816  1.6759
 6555TIP3    H241157   2.725   2.191  14.124  0.7262  1.4800 -0.3375
 6556TIP3   OH241158   0.463   4.060  15.685 -0.2881  0.2049  0.0982
 6556TIP3    H141159   0.414   4.083  15.606 -1.5455  0.3096  0.8868
 6556TIP3    H241160   0.478   3.966  15.677  0.4238  0.3751 -0.7045
 6557TIP3   OH241161   1.572   3.412   5.023  0.5101  0.0772  1.1852
 6557TIP3    H141162   1.593   3.445   5.111 -0.0102  1.7543  0.7049
 6557TIP3    H241163   1.574   3.489   4.967  1.7318 -1.1014 -0.4786
 6558TIP3   OH241164   3.659   2.886   4.136  0.0242  0.2634  0.1438
 6558TIP3    H141165   3.732   2.939   4.166 -1.5109  1.0816  2.8357
 6558TIP3    H241166   3.653   2.815   4.201  0.1628 -1.5062 -1.6691
 6559TIP3   OH241167   4.136   2.252   4.909 -0.5179 -0.0225 -0.2636
 6559TIP3    H141168   4.224   2.250   4.872  0.1852 -0.8301  1.3638
 6559TIP3    H241169   4.098   2.167   4.886 -1.6251  1.0043 -2.5615
 6560TIP3   OH241170   0.299   0.515   6.356 -0.5734 -0.4797 -0.5176
 6560TIP3    H141171   0.303   0.493   6.263 -0.4417  0.4773 -0.7492
 6560TIP3    H241172   0.390   0.524   6.383 -0.6045 -0.9534 -0.2414
 6561TIP3   OH241173   0.121   3.432   1.648 -0.3479 -0.3751  0.1396
 6561TIP3    H141174   0.075   3.403   1.726 -1.3333  1.3945  0.2725
 6561TIP3    H241175   0.058   3.488   1.602  1.6443  2.2578  0.3685
 6562TIP3   OH241176   5.859   5.130  10.942  0.4789 -0.2145  0.6694
 6562TIP3    H141177   5.823   5.209  10.982 -0.2190  0.8164 -1.8002
 6562TIP3    H241178   5.792   5.063  10.957 -0.9034  0.7666 -0.7392
 6563TIP3   OH241179   4.987   6.244   6.531  0.2736 -0.5934 -0.4218
 6563TIP3    H141180   4.904   6.287   6.550  1.1266  0.9054  0.1149
 6563TIP3    H241181   4.974   6.153   6.559 -1.3394 -0.5252 -0.8637
 6564TIP3   OH241182   0.844   5.130   0.900 -0.1391 -0.0503 -0.8963
 6564TIP3    H141183   0.752   5.103   0.902 -0.8484  2.1081 -1.3841
 6564TIP3    H241184   0.865   5.134   0.806  0.8680 -1.6692 -0.7828
 6565TIP3   OH241185   2.964   1.899  12.581 -0.2931 -0.2677  0.0162
 6565TIP3    H141186   2.967   1.962  12.654 -2.4502 -1.7610  1.5258
 6565TIP3    H241187   2.871   1.879  12.570  0.1500 -1.5309 -1.9049
 6566TIP3   OH241188   6.645   2.046   5.674 -0.0030  0.1591  0.2606
 6566TIP3    H141189   6.621   1.978   5.611 -1.7487 -1.8420  2.8666
 6566TIP3    H241190   6.562   2.079   5.707  0.7965 -0.0599  2.6815
 6567TIP3   OH241191   3.148   2.141  17.185 -0.1473  0.4784  0.4200
 6567TIP3    H141192   3.175   2.227  17.153  1.7711 -0.1588  0.1436
 6567TIP3    H241193   3.231   2.094  17.199 -1.1245 -1.1593  1.0230
 6568TIP3   OH241194   4.276   1.299   4.953  0.6023 -0.3357 -0.0434
 6568TIP3    H141195   4.254   1.285   5.045 -0.1505 -1.2082 -0.3456
 6568TIP3    H241196   4.246   1.220   4.908  0.1572  0.4347 -1.1693
 6569TIP3   OH241197   0.279   2.830  15.962  1.0771 -0.0787  0.1085
 6569TIP3    H141198   0.228   2.895  15.913  0.9974 -0.1808  0.0561
 6569TIP3    H241199   0.254   2.845  16.054  0.2291 -0.7489  0.0025
 6570TIP3   OH241200   3.214   4.019   5.213  0.1781 -0.0110  0.1921
 6570TIP3    H141201   3.254   4.067   5.285  0.4807  1.1032 -0.6856
 6570TIP3    H241202   3.132   3.984   5.249  0.5984  0.0234  1.2228
 6571TIP3   OH241203   6.102   2.162  12.201 -0.0725 -0.4023  0.5661
 6571TIP3    H141204   6.010   2.141  12.186 -0.2097  0.0878  0.6903
 6571TIP3    H241205   6.126   2.107  12.276  0.3332 -2.0799 -0.7465
 6572TIP3   OH241206   1.154   3.134   2.636 -0.4264  0.0624  0.4913
 6572TIP3    H141207   1.229   3.178   2.676 -0.8441  0.0821  1.2789
 6572TIP3    H241208   1.179   3.121   2.544  0.2422  0.7187  0.5739
 6573TIP3   OH241209   3.600   1.250   4.358 -0.0672 -0.1752  0.5529
 6573TIP3    H141210   3.628   1.327   4.407  0.9056  0.6846 -1.2567
 6573TIP3    H241211   3.669   1.236   4.294 -2.3882  0.2667 -2.2223
 6574TIP3   OH241212   5.399   0.040   4.892 -0.1666 -0.1141  0.2179
 6574TIP3    H141213   5.311   0.029   4.927 -0.0518  0.5126  0.7442
 6574TIP3    H241214   5.404   0.133   4.870  1.0031  0.3196  2.0666
 6575TIP3   OH241215   6.620   1.930  17.244  0.3689  0.2341  0.1816
 6575TIP3    H141216   6.605   1.993  17.314  0.3134 -0.5615  0.9071
 6575TIP3    H241217   6.544   1.937  17.187  0.6071  1.1806 -0.0436
 6576TIP3   OH241218   4.407   3.409  17.332 -0.2042 -0.3135  0.5151
 6576TIP3    H141219   4.336   3.346  17.342  0.0548 -1.0012 -1.4377
 6576TIP3    H241220   4.395   3.471  17.404 -2.3249 -0.8256  0.6729
 6577TIP3   OH241221   2.941   1.978  17.202  0.2772  0.4195  0.2276
 6577TIP3    H141222   2.992   2.055  17.177 -1.0873  0.8648 -1.3782
 6577TIP3    H241223   2.852   1.998  17.174 -0.2433 -1.4723  0.3816
 6578TIP3   OH241224   2.952   0.893   0.518  0.5656  0.6537  0.2771
 6578TIP3    H141225   2.898   0.850   0.584 -0.1608  1.6271  0.3308
 6578TIP3    H241226   2.992   0.967   0.563 -1.2451  2.3436 -0.7038
 6579TIP3   OH241227   4.116   2.443  12.292  0.2538  0.7549 -0.1295
 6579TIP3    H141228   4.152   2.489  12.216 -0.8150 -1.2154 -1.9298
 6579TIP3    H241229   4.168   2.363  12.300  1.0878  1.4209  1.9954
 6580TIP3   OH241230   2.600   0.017   2.052 -0.2676  0.1147 -0.2592
 6580TIP3    H141231   2.535   0.086   2.068  0.4307  1.5357 -2.8528
 6580TIP3    H241232   2.679   0.049   2.095  0.0317  0.9451 -1.3836
 6581TIP3   OH241233   1.398   3.790   3.463  0.0211  0.7564  0.0820
 6581TIP3    H141234   1.396   3.790   3.558 -0.9000  0.1114  0.0836
 6581TIP3    H241235   1.313   3.752   3.438  0.3555  0.6884 -0.9866
 6582TIP3   OH241236   2.530   4.544  14.602  0.0607  0.3865  0.7873
 6582TIP3    H141237   2.513   4.460  14.558 -2.6755  0.4617  1.4899
 6582TIP3    H241238   2.481   4.608  14.551  3.0869  1.8896 -0.4519
 6583TIP3   OH241239   6.265   2.508   3.879  0.2625 -0.4459 -0.2798
 6583TIP3    H141240   6.182   2.499   3.832  0.1567 -1.9138  0.1725
 6583TIP3    H241241   6.244   2.562   3.955 -0.3977 -1.2416  0.1099
 6584TIP3   OH241242   4.791   4.914  15.282  0.1851  0.3493  0.0795
 6584TIP3    H141243   4.745   4.839  15.245  1.9942 -0.7536 -0.0073
 6584TIP3    H241244   4.773   4.985  15.221  0.8054 -0.7467 -1.4365
 6585TIP3   OH241245   5.867   4.749   3.678 -1.0217 -0.7984  0.1801
 6585TIP3    H141246   5.824   4.825   3.639  0.0037 -0.9187 -1.2980
 6585TIP3    H241247   5.957   4.777   3.692 -0.6127 -1.7346 -0.4450
 6586TIP3   OH241248   1.306   5.658   1.823  0.5171 -0.3187 -0.0150
 6586TIP3    H141249   1.223   5.704   1.822 -0.7194 -2.4412 -0.5775
 6586TIP3    H241250   1.310   5.612   1.740  1.1568 -2.0894  0.9381
 6587TIP3   OH241251   0.634   3.406   2.093  0.1912  0.3606  0.2549
 6587TIP3    H141252   0.554   3.395   2.144  0.2705 -0.0136  0.3038
 6587TIP3    H241253   0.609   3.380   2.004 -0.0173  1.2714  0.0406
 6588TIP3   OH241254   1.502   6.154   4.201 -0.1207  0.1990 -0.3537
 6588TIP3    H141255   1.441   6.195   4.139  0.0413  2.2586  0.7687
 6588TIP3    H241256   1.560   6.225   4.228 -0.7625 -0.3409  2.8660
 6589TIP3   OH241257   2.235   1.789  11.848 -0.1556  0.6595  0.0958
 6589TIP3    H141258   2.318   1.830  11.872 -0.3352  1.8418 -1.1781
 6589TIP3    H241259   2.180   1.862  11.819 -0.4224 -0.4428 -2.4458
 6590TIP3   OH241260   4.451   5.406   1.698 -0.3764  0.0532 -0.1183
 6590TIP3    H141261   4.357   5.418   1.712 -0.4569  1.0905 -1.3462
 6590TIP3    H241262   4.468   5.446   1.613  1.2844  0.4073  0.3354
 6591TIP3   OH241263   2.885   1.928  13.626 -0.5019  0.1177 -0.3988
 6591TIP3    H141264   2.895   1.915  13.532  0.3306  0.5789 -0.3861
 6591TIP3    H241265   2.875   2.023  13.636  0.1861  0.1565  0.0270
 6592TIP3   OH241266   3.152   0.303  11.820  0.1085 -0.5561  0.4598
 6592TIP3    H141267   3.222   0.366  11.838 -2.2839  1.7938  2.3098
 6592TIP3    H241268   3.103   0.341  11.747  0.4059 -1.9550 -0.5181
 6593TIP3   OH241269   1.834   1.785   2.852 -0.3761  0.5385  0.1543
 6593TIP3    H141270   1.849   1.876   2.826  0.0052  0.2017 -0.8923
 6593TIP3    H241271   1.744   1.767   2.826  0.8812 -0.7396 -4.2060
 6594TIP3   OH241272   6.382   1.133   4.176 -0.5068 -0.3178 -0.1601
 6594TIP3    H141273   6.337   1.191   4.115  0.8023  0.9793  0.0476
 6594TIP3    H241274   6.313   1.099   4.232 -1.1801  2.8414  1.1721
 6595TIP3   OH241275   0.186   5.472  12.892  0.1333  0.5879  0.1488
 6595TIP3    H141276   0.255   5.413  12.862  1.3553  1.3616  1.2855
 6595TIP3    H241277   0.149   5.510  12.813 -0.0030 -0.9488 -0.5453
 6596TIP3   OH241278   0.183   3.387  16.685  0.2841 -0.1246 -0.4311
 6596TIP3    H141279   0.133   3.417  16.609 -0.9137 -0.0878  0.3386
 6596TIP3    H241280   0.271   3.422  16.672 -0.3798  1.4374 -0.8949
 6597TIP3   OH241281   0.796   3.819   2.924  0.3392  0.5651  0.0779
 6597TIP3    H141282   0.788   3.739   2.872  0.4008  0.4445  0.2514
 6597TIP3    H241283   0.710   3.860   2.920 -0.2453 -0.4645  1.5327
 6598TIP3   OH241284   5.477   2.383   3.482 -0.3758  0.8935  0.1306
 6598TIP3    H141285   5.524   2.303   3.505  1.3027  2.0279  0.8924
 6598TIP3    H241286   5.385   2.362   3.497  0.2265  0.0168  3.3260
 6599TIP3   OH241287   6.494   0.101   4.588  0.2480  0.6619 -0.3398
 6599TIP3    H141288   6.476   0.031   4.650  1.0003  0.3083 -0.5213
 6599TIP3    H241289   6.482   0.181   4.639  1.2579  0.3687  0.3824
 6600TIP3   OH241290   5.360   4.749  11.970 -0.3173 -0.4169 -0.3258
 6600TIP3    H141291   5.277   4.702  11.971 -0.5633  0.0061  0.3838
 6600TIP3    H241292   5.381   4.761  11.878 -2.1425  1.3721 -0.5819
 6601TIP3   OH241293   4.275   2.125   1.746 -0.3571 -0.3582  0.2138
 6601TIP3    H141294   4.281   2.091   1.657 -1.6260 -1.5223  0.5466
 6601TIP3    H241295   4.188   2.100   1.776  0.2822 -0.5796  2.0206
 6602TIP3   OH241296   5.348   4.273   7.031 -0.9536  0.5701 -0.2808
 6602TIP3    H141297   5.435   4.260   6.994 -1.2284  1.6217 -1.3781
 6602TIP3    H241298   5.325   4.363   7.007 -2.9321 -0.1413 -1.3300
 6603TIP3   OH241299   5.647   6.737   5.689 -0.2485  0.1441 -0.0815
 6603TIP3    H141300   5.702   6.702   5.759 -1.3318 -1.2097  0.1573
 6603TIP3    H241301   5.578   6.786   5.736  0.3205  1.2216 -0.3401
 6604TIP3   OH241302   4.302   1.761  16.211  0.2099 -0.0947  0.1774
 6604TIP3    H141303   4.292   1.744  16.305  1.7439 -0.8814  0.2246
 6604TIP3    H241304   4.302   1.857  16.205 -1.9549  0.0077  0.6912
 6605TIP3   OH241305   1.286   6.164   1.543  0.4559  0.5271 -0.2155
 6605TIP3    H141306   1.328   6.238   1.588  1.2561 -0.2858  0.4050
 6605TIP3    H241307   1.268   6.197   1.454 -1.0390  2.1116  0.6186
 6606TIP3   OH241308   3.279   5.592   5.552 -0.1728 -0.2488 -0.7605
 6606TIP3    H141309   3.282   5.499   5.575  0.0698 -0.1095 -0.2142
 6606TIP3    H241310   3.370   5.614   5.530 -0.1084  0.0200 -0.2334
 6607TIP3   OH241311   2.137   0.449   1.031  0.2875  0.2051  0.1643
 6607TIP3    H141312   2.120   0.483   1.119 -0.6835  0.5241 -0.1433
 6607TIP3    H241313   2.114   0.357   1.036 -2.0464  0.7116 -0.3552
 6608TIP3   OH241314   0.404   5.085   0.720  0.1913  0.1298 -0.0546
 6608TIP3    H141315   0.336   5.120   0.663  0.1424  1.2736  0.6799
 6608TIP3    H241316   0.486   5.115   0.681  0.2038  0.0576 -0.0836
 6609TIP3   OH241317   1.550   2.565   2.921 -0.1210  0.5198  0.3195
 6609TIP3    H141318   1.518   2.655   2.910 -1.3356  0.0821  0.0693
 6609TIP3    H241319   1.474   2.510   2.901  0.2028 -0.5385  1.8169
 6610TIP3   OH241320   4.532   6.701   4.436  0.2894 -0.0428  0.3010
 6610TIP3    H141321   4.519   6.766   4.367  1.8834 -1.1157 -1.1127
 6610TIP3    H241322   4.454   6.647   4.433 -0.1506  0.5899  0.1020
 6611TIP3   OH241323   2.463   1.949   4.592  0.3818  0.5634 -0.2267
 6611TIP3    H141324   2.390   1.892   4.567  1.2196 -0.1736 -1.0676
 6611TIP3    H241325   2.468   1.940   4.687 -0.2059  0.1057 -0.2297
 6612TIP3   OH241326   3.205   1.916  10.623 -0.6303  0.2762 -0.1853
 6612TIP3    H141327   3.278   1.938  10.564  0.1950  0.8015  1.0087
 6612TIP3    H241328   3.128   1.951  10.579  0.1208  1.7136 -0.4167
 6613TIP3   OH241329   0.466   4.222   2.918 -0.3598  0.1487 -0.5301
 6613TIP3    H141330   0.411   4.143   2.920  1.2421 -1.0605 -1.6251
 6613TIP3    H241331   0.551   4.193   2.951  0.3843  1.2972 -1.3694
 6614TIP3   OH241332   1.873   5.832  11.657 -0.9086 -0.6264  0.0948
 6614TIP3    H141333   1.912   5.839  11.745 -0.6517  0.7241 -0.1006
 6614TIP3    H241334   1.920   5.760  11.616  0.6772  0.2760  0.2478
 6615TIP3   OH241335   1.506   3.704  12.570  0.0820 -0.2898  0.7117
 6615TIP3    H141336   1.547   3.765  12.631  0.1630  0.2235  0.1453
 6615TIP3    H241337   1.419   3.740  12.554 -0.3227 -0.9754  1.3211
 6616TIP3   OH241338   5.601   0.921  11.478  0.5145 -0.1703 -0.3446
 6616TIP3    H141339   5.677   0.905  11.422  1.6756 -3.4861  1.8848
 6616TIP3    H241340   5.526   0.899  11.423  1.2312  1.1999 -1.9573
 6617TIP3   OH241341   0.510   4.313  13.568  0.1756 -0.6109 -0.7648
 6617TIP3    H141342   0.458   4.393  13.568 -3.9800 -2.9386  2.1467
 6617TIP3    H241343   0.560   4.317  13.650  1.7458 -0.1178 -1.7009
 6618TIP3   OH241344   6.320   3.900  16.123 -0.3507 -0.5245 -0.8423
 6618TIP3    H141345   6.388   3.869  16.182 -1.2455 -1.7588 -0.4147
 6618TIP3    H241346   6.287   3.979  16.165 -2.3438 -2.4304  1.5064
 6619TIP3   OH241347   5.515   4.820   0.131 -0.3905 -0.2151  0.0184
 6619TIP3    H141348   5.441   4.764   0.151  0.3909 -0.8358  1.2474
 6619TIP3    H241349   5.589   4.779   0.175  0.6797  0.4405 -1.1009
 6620TIP3   OH241350   1.906   3.863   3.369 -0.0315  0.3479  0.1048
 6620TIP3    H141351   1.954   3.920   3.429  0.6071  0.7110 -0.7409
 6620TIP3    H241352   1.859   3.923   3.311 -1.5156  0.0061  0.8870
 6621TIP3   OH241353   3.913   3.369   4.051  0.1684 -0.3846 -0.0839
 6621TIP3    H141354   3.871   3.304   4.107  0.5134 -0.5136  0.0266
 6621TIP3    H241355   3.844   3.433   4.032 -0.7506 -1.7710 -1.7633
 6622TIP3   OH241356   5.592   3.463  11.312  0.8084  0.6346  0.1980
 6622TIP3    H141357   5.634   3.381  11.336  0.4740  0.0861 -1.0273
 6622TIP3    H241358   5.504   3.438  11.286  0.7840  1.3509 -0.4358
 6623TIP3   OH241359   3.742   6.445  13.110 -0.6371  0.1780 -0.0350
 6623TIP3    H141360   3.811   6.458  13.045 -0.1996 -0.4995  0.2825
 6623TIP3    H241361   3.665   6.420  13.059 -0.5184  0.4515 -0.3525
 6624TIP3   OH241362   1.653   4.103  14.639  0.0909 -0.6234 -0.2544
 6624TIP3    H141363   1.720   4.079  14.575  0.7926  0.1872  0.1597
 6624TIP3    H241364   1.682   4.060  14.720  0.7837  0.7066  0.2268
 6625TIP3   OH241365   5.338   5.422   2.833 -0.1089 -0.2384 -0.0162
 6625TIP3    H141366   5.267   5.400   2.773  0.8593 -1.6682 -0.6834
 6625TIP3    H241367   5.318   5.373   2.912  0.3887 -1.0580 -0.3879
 6626TIP3   OH241368   1.612   6.749   5.820 -0.5458  0.2772 -0.2318
 6626TIP3    H141369   1.622   6.666   5.773  0.7052 -1.0525  2.1405
 6626TIP3    H241370   1.683   6.804   5.786  0.2171 -0.5797 -0.0836
 6627TIP3   OH241371   2.769   2.934   6.464 -0.2996 -0.1282  0.1806
 6627TIP3    H141372   2.792   2.883   6.542  0.5533  0.2826  0.2158
 6627TIP3    H241373   2.674   2.932   6.461 -0.3021 -1.3310  0.4383
 6628TIP3   OH241374   1.635   2.944   2.916 -0.4927  0.1959  0.0764
 6628TIP3    H141375   1.662   2.957   3.007  0.5385  2.1101 -0.4172
 6628TIP3    H241376   1.717   2.949   2.867 -1.1605  0.5092 -1.0456
 6629TIP3   OH241377   4.681   0.651  15.995  0.2979  0.1988  0.4158
 6629TIP3    H141378   4.649   0.675  15.908 -0.8428  2.7828  1.4339
 6629TIP3    H241379   4.772   0.678  15.996  0.9071 -1.6715 -0.5611
 6630TIP3   OH241380   6.651   4.345   3.464 -0.6171  0.2223  0.2024
 6630TIP3    H141381   6.594   4.357   3.389 -0.3830  0.1285  0.0069
 6630TIP3    H241382   6.665   4.251   3.469  0.2521  0.3153 -0.3076
 6631TIP3   OH241383   1.300   2.725  17.245 -0.5201  0.3576  0.1823
 6631TIP3    H141384   1.284   2.641  17.203  0.6881  1.4565 -2.7031
 6631TIP3    H241385   1.278   2.710  17.337  0.7564 -3.4294  0.0438
 6632TIP3   OH241386   4.331   2.361  17.308  0.1536 -0.1701 -0.2154
 6632TIP3    H141387   4.269   2.431  17.287  0.8097 -0.2703 -2.8166
 6632TIP3    H241388   4.398   2.403  17.362  0.4776  1.2305 -1.6413
 6633TIP3   OH241389   5.378   3.803  14.631  0.0304  0.2788 -0.3091
 6633TIP3    H141390   5.390   3.766  14.719  1.4670 -0.9600 -0.9961
 6633TIP3    H241391   5.308   3.751  14.592  0.5291 -0.2662 -0.4833
 6634TIP3   OH241392   1.226   1.123  16.394  0.5721 -0.3352 -0.2822
 6634TIP3    H141393   1.264   1.059  16.454 -0.3049 -0.3319  0.2982
 6634TIP3    H241394   1.244   1.208  16.436  1.1090 -0.2469 -0.6876
 6635TIP3   OH241395   3.027   5.241   2.128  0.0055 -0.1176  0.0214
 6635TIP3    H141396   3.030   5.188   2.048  1.6161  0.2204 -0.1677
 6635TIP3    H241397   3.017   5.177   2.198  1.5150 -0.6827 -0.2358
 6636TIP3   OH241398   4.077   4.468  16.577  0.0523  0.2918  0.1049
 6636TIP3    H141399   4.075   4.511  16.663  0.6064 -1.1499  0.8731
 6636TIP3    H241400   4.129   4.389  16.591 -1.9223 -1.2805 -0.9288
 6637TIP3   OH241401   4.436   4.564  16.613 -0.3033 -0.4012 -0.3919
 6637TIP3    H141402   4.412   4.522  16.696  2.1868 -1.8802 -0.3267
 6637TIP3    H241403   4.495   4.635  16.638 -0.7810  0.1581 -0.8233
 6638TIP3   OH241404   1.411   3.048  16.021 -0.1842 -0.2032 -0.3914
 6638TIP3    H141405   1.340   3.055  15.957  0.1725  0.5407 -0.7227
 6638TIP3    H241406   1.445   3.138  16.029  1.6784 -0.7632 -1.3613
 6639TIP3   OH241407   3.908   1.839   0.811  0.2962 -0.4386 -0.1617
 6639TIP3    H141408   3.988   1.878   0.775  0.0423  0.2184 -0.0290
 6639TIP3    H241409   3.852   1.914   0.830 -0.3965 -0.9018 -0.3595
 6640TIP3   OH241410   1.061   5.966   1.014 -0.1336 -0.1008  0.5117
 6640TIP3    H141411   1.113   5.954   0.934 -1.2179  0.2025 -0.2748
 6640TIP3    H241412   1.039   5.877   1.041  0.2827 -0.2098  0.5034
 6641TIP3   OH241413   2.927   6.659  14.842 -0.0468 -0.5901  0.2892
 6641TIP3    H141414   2.835   6.665  14.816 -0.5503 -0.3594  1.9968
 6641TIP3    H241415   2.976   6.677  14.762 -1.4766  2.0795 -0.0956
 6642TIP3   OH241416   2.238   0.078   1.600 -0.0816  0.0996  0.1692
 6642TIP3    H141417   2.241  -0.000   1.545 -2.4098 -0.4650  0.7235
 6642TIP3    H241418   2.149   0.079   1.635  0.5888  1.7613  2.0190
 6643TIP3   OH241419   1.118   2.512   4.697 -0.3888 -0.2077 -0.2450
 6643TIP3    H141420   1.131   2.557   4.614  0.2579  1.2548  0.6072
 6643TIP3    H241421   1.153   2.424   4.683 -0.5809 -0.0801 -1.6042
 6644TIP3   OH241422   1.230   0.307  17.228 -0.3801 -0.7792 -0.2504
 6644TIP3    H141423   1.284   0.344  17.299  1.4687 -0.9964 -1.4612
 6644TIP3    H241424   1.250   0.362  17.152 -1.2843 -1.3713 -0.9415
 6645TIP3   OH241425   3.469   2.987   4.452 -0.5622 -0.3777 -0.0428
 6645TIP3    H141426   3.457   3.072   4.408  0.2669  0.3392  1.0702
 6645TIP3    H241427   3.406   2.929   4.409 -1.6435  0.9747 -0.3625
 6646TIP3   OH241428   2.799   4.165   0.895 -0.4965 -0.0041 -0.3575
 6646TIP3    H141429   2.730   4.108   0.926 -0.3225 -2.3798 -3.7937
 6646TIP3    H241430   2.754   4.233   0.844 -0.4574  0.3860  0.1215
 6647TIP3   OH241431   1.800   0.690   6.099 -0.5054  0.0430 -0.1588
 6647TIP3    H141432   1.767   0.719   6.014 -0.0320 -2.1912 -1.1741
 6647TIP3    H241433   1.879   0.742   6.113  0.3905 -0.7683 -1.9388
 6648TIP3   OH241434   2.742   1.351   1.992  1.2196 -0.1516  0.8578
 6648TIP3    H141435   2.827   1.326   1.957  0.4407  0.8149 -2.0192
 6648TIP3    H241436   2.741   1.447   1.986  0.1005 -0.1233  1.2526
 6649TIP3   OH241437   3.016   5.802   4.566 -0.0555  0.3179 -0.8428
 6649TIP3    H141438   3.095   5.751   4.588 -0.7818 -0.6973 -0.4954
 6649TIP3    H241439   3.034   5.889   4.600  0.4564 -0.2021  0.2880
 6650TIP3   OH241440   0.513   2.350  13.487  0.0263 -0.1392  0.0185
 6650TIP3    H141441   0.527   2.265  13.446 -0.0204 -0.4556  0.6388
 6650TIP3    H241442   0.546   2.414  13.423 -1.7470 -0.4719 -1.3012
 6651TIP3   OH241443   2.106   4.392   3.729 -0.4468  0.1262 -0.3454
 6651TIP3    H141444   2.139   4.407   3.640 -1.4705 -1.2879 -1.0016
 6651TIP3    H241445   2.123   4.299   3.745 -1.1346  0.1441  0.5657
 6652TIP3   OH241446   5.990   0.501   5.220 -0.2032 -0.2347 -0.1153
 6652TIP3    H141447   6.015   0.495   5.313 -0.0340 -1.3089 -0.2183
 6652TIP3    H241448   5.908   0.549   5.221  0.3825  0.8046  0.4862
 6653TIP3   OH241449   1.060   2.876  15.098  0.4825 -0.0289  0.2669
 6653TIP3    H141450   1.008   2.804  15.134  3.1726 -1.8927  0.7073
 6653TIP3    H241451   1.086   2.928  15.174 -1.1647  1.3031 -0.0177
 6654TIP3   OH241452   4.527   2.090  11.038 -0.7383  0.4580 -0.9471
 6654TIP3    H141453   4.617   2.120  11.038 -0.6595  0.2199 -1.6148
 6654TIP3    H241454   4.475   2.169  11.052 -0.4329  0.5941 -0.5604
 6655TIP3   OH241455   3.560   3.308  12.013  0.2782  0.0727  0.7631
 6655TIP3    H141456   3.486   3.312  12.075 -0.4224 -0.2562 -0.0270
 6655TIP3    H241457   3.519   3.316  11.927  1.2830  0.9114  0.3522
 6656TIP3   OH241458   0.804   0.198   3.499  0.6521  0.2029 -0.5604
 6656TIP3    H141459   0.742   0.266   3.527  0.1884  0.0407 -1.1832
 6656TIP3    H241460   0.871   0.246   3.451  0.6998  0.3054 -0.3944
 6657TIP3   OH241461   4.592   0.960  15.572 -0.0129 -0.5339  0.0743
 6657TIP3    H141462   4.663   1.011  15.532 -2.6802  0.8743 -3.3914
 6657TIP3    H241463   4.539   1.026  15.617 -1.4605 -0.7590 -1.2246
 6658TIP3   OH241464   1.698   3.250  14.270  0.7455 -0.3854  0.1870
 6658TIP3    H141465   1.771   3.190  14.286  1.1084 -0.0425 -0.1930
 6658TIP3    H241466   1.622   3.205  14.308  1.2182 -0.5621  0.9490
 6659TIP3   OH241467   4.908   2.626   4.345  0.2021  0.2729 -0.0641
 6659TIP3    H141468   4.921   2.706   4.395  0.3107  0.6868 -0.7532
 6659TIP3    H241469   4.966   2.633   4.270  1.8343 -1.4253  0.9562
 6660TIP3   OH241470   3.404   6.621  14.337 -0.1090 -0.1578  0.1042
 6660TIP3    H141471   3.477   6.638  14.277  0.3961  2.3068  1.2853
 6660TIP3    H241472   3.342   6.692  14.320 -1.2362 -0.9899  0.6308
 6661TIP3   OH241473   4.117   5.591   2.057  0.1731 -0.0408 -0.3940
 6661TIP3    H141474   4.146   5.577   2.147 -1.3954  2.1678  0.5326
 6661TIP3    H241475   4.181   5.651   2.020  1.7320 -2.1700 -1.3732
 6662TIP3   OH241476   5.346   1.243  13.189 -0.0962  0.2199  0.2129
 6662TIP3    H141477   5.383   1.248  13.102  0.2758  2.9291  0.4634
 6662TIP3    H241478   5.421   1.223  13.246  0.4825  2.5437  0.3450
 6663TIP3   OH241479   0.353   5.668  16.483 -0.1990 -0.3083 -0.1553
 6663TIP3    H141480   0.321   5.585  16.518 -1.5483  0.1444 -0.2407
 6663TIP3    H241481   0.443   5.675  16.514 -0.2547 -1.5285  0.3275
 6664TIP3   OH241482   0.042   0.730   3.163  0.3748  0.0477 -0.1171
 6664TIP3    H141483   0.103   0.797   3.134  0.4092 -0.0594 -0.2956
 6664TIP3    H241484  -0.034   0.779   3.195  0.0682  0.1640 -0.9913
 6665TIP3   OH241485   4.768   4.958  14.508  0.2141  0.0992  0.0898
 6665TIP3    H141486   4.711   4.917  14.573 -0.6865  1.8836  0.4816
 6665TIP3    H241487   4.726   4.939  14.424  0.3620 -0.6133  0.1687
 6666TIP3   OH241488   0.227   0.728   5.236 -0.1496  0.4826 -0.2696
 6666TIP3    H141489   0.162   0.661   5.257 -1.3072  0.1595 -4.1950
 6666TIP3    H241490   0.259   0.705   5.149  2.9426  2.4544  0.1782
 6667TIP3   OH241491   2.944   1.031  14.130 -0.2633  0.5169  0.2382
 6667TIP3    H141492   2.851   1.052  14.116 -0.1507  0.3008 -1.0024
 6667TIP3    H241493   2.965   1.068  14.215 -2.0205 -1.2018  1.5090
 6668TIP3   OH241494   3.473   5.390   5.772  0.1745 -0.4247 -0.9666
 6668TIP3    H141495   3.542   5.342   5.817  0.7080 -0.1688 -1.4956
 6668TIP3    H241496   3.518   5.465   5.732 -0.1633 -0.9942 -2.4722
 6669TIP3   OH241497   2.318   2.407   5.066 -0.4153 -0.2266  0.1291
 6669TIP3    H141498   2.323   2.406   5.162 -1.0157  0.1392  0.1695
 6669TIP3    H241499   2.238   2.455   5.047 -0.6409 -0.8585 -0.5488
 6670TIP3   OH241500   5.607   2.195  16.579  0.1460  0.5536 -0.0066
 6670TIP3    H141501   5.529   2.219  16.528  0.6358  0.6842 -0.7033
 6670TIP3    H241502   5.640   2.278  16.612 -1.2052  0.3276  2.0989
 6671TIP3   OH241503   5.476   5.348   3.951 -0.1375  0.1293 -0.0674
 6671TIP3    H141504   5.456   5.316   3.863 -1.2229  0.1233  0.1586
 6671TIP3    H241505   5.508   5.270   3.998 -0.3997 -0.0736 -0.2184
 6672TIP3   OH241506   3.670   2.750   2.975  0.8789  0.2601  0.1431
 6672TIP3    H141507   3.653   2.683   3.041  0.9459 -0.3040 -0.4128
 6672TIP3    H241508   3.669   2.832   3.025  0.2352 -0.0927  0.7314
 6673TIP3   OH241509   4.589   6.522   6.523 -0.1545 -0.6834  0.2542
 6673TIP3    H141510   4.668   6.560   6.562 -0.2986 -1.1692  1.0368
 6673TIP3    H241511   4.530   6.507   6.597 -0.9235 -0.4681 -0.3092
 6674TIP3   OH241512   6.653   4.755   1.867 -0.0057  0.4557 -0.2376
 6674TIP3    H141513   6.709   4.724   1.939  0.6747  0.0611 -0.9243
 6674TIP3    H241514   6.709   4.813   1.816 -0.8380  1.6597  0.1955
 6675TIP3   OH241515   4.995   5.567   2.370 -0.4659 -0.4594 -0.1214
 6675TIP3    H141516   5.025   5.560   2.461 -0.9813 -0.4636  0.0519
 6675TIP3    H241517   5.076   5.564   2.318 -0.1946 -0.9040  0.3113
 6676TIP3   OH241518   5.601   3.674  15.242 -0.0302 -0.1124 -0.1232
 6676TIP3    H141519   5.619   3.604  15.178  0.0441  2.0276 -2.5915
 6676TIP3    H241520   5.659   3.745  15.216 -0.7617  1.2392  1.7500
 6677TIP3   OH241521   4.315   4.424  15.885 -0.1820 -0.1246 -0.7024
 6677TIP3    H141522   4.345   4.475  15.810 -0.5973  0.2961 -0.5882
 6677TIP3    H241523   4.348   4.472  15.961 -1.0512  0.2953 -0.5788
 6678TIP3   OH241524   6.539   3.335  10.477 -0.1891 -0.2468 -0.4557
 6678TIP3    H141525   6.627   3.371  10.483 -0.3722  0.2795 -0.8296
 6678TIP3    H241526   6.504   3.339  10.566 -0.7508  1.9180 -0.7225
 6679TIP3   OH241527   2.652   3.039   2.402 -0.1979  0.5177 -0.1903
 6679TIP3    H141528   2.621   2.976   2.468 -0.8208  2.9185  1.9655
 6679TIP3    H241529   2.574   3.091   2.382  0.4614  1.0475 -1.4146
 6680TIP3   OH241530   0.776   1.042  11.101 -0.5950  0.1727  0.1093
 6680TIP3    H141531   0.852   1.096  11.080 -0.4242 -0.2991 -0.5490
 6680TIP3    H241532   0.797   1.001  11.185 -0.2380  0.2631  0.0642
 6681TIP3   OH241533   4.326   0.211   3.871  0.4290 -0.5451 -0.1839
 6681TIP3    H141534   4.334   0.138   3.809  0.2785 -0.7382  0.0215
 6681TIP3    H241535   4.415   0.244   3.880  0.3841 -0.2372 -0.8348
 6682TIP3   OH241536   4.956   1.867  15.540  0.7009  0.0972 -0.6982
 6682TIP3    H141537   4.998   1.837  15.459  0.4141  0.9170 -1.1641
 6682TIP3    H241538   4.863   1.850  15.526  0.9466 -3.7308  1.1824
 6683TIP3   OH241539   2.763   3.408   0.317 -0.2401 -0.3131  0.0739
 6683TIP3    H141540   2.707   3.428   0.392  0.2019  1.4963 -0.0241
 6683TIP3    H241541   2.703   3.381   0.248 -1.1640  2.3630 -0.2802
 6684TIP3   OH241542   5.140   3.745   4.332 -0.2638  0.6952 -0.6821
 6684TIP3    H141543   5.075   3.815   4.339 -0.0363  0.9862 -1.3988
 6684TIP3    H241544   5.102   3.684   4.269  0.4798  1.2407 -1.6750
 6685TIP3   OH241545   4.596   3.600   5.056 -0.4064 -0.1522  0.3385
 6685TIP3    H141546   4.625   3.623   5.144 -0.8882 -0.7539  0.6588
 6685TIP3    H241547   4.669   3.625   5.000  0.0664 -0.1347  0.9518
 6686TIP3   OH241548   1.289   5.566   3.016  0.4814 -0.7640 -0.3612
 6686TIP3    H141549   1.276   5.584   2.923 -0.4186 -1.1278 -0.3179
 6686TIP3    H241550   1.202   5.571   3.054  1.1460  2.5016  1.0659
 6687TIP3   OH241551   3.590   2.996   2.667  0.6212  0.0211 -0.3286
 6687TIP3    H141552   3.676   3.026   2.638 -0.3115  1.4749 -1.7163
 6687TIP3    H241553   3.579   3.038   2.753  1.1461  0.0889 -0.2857
 6688TIP3   OH241554   5.582   4.704  16.873 -0.2298 -0.2109 -0.4370
 6688TIP3    H141555   5.591   4.738  16.784  0.3421 -1.3030 -0.8168
 6688TIP3    H241556   5.563   4.611  16.861 -0.1345 -0.3747  0.5858
 6689TIP3   OH241557   6.159   5.472  11.697 -0.2861 -0.7185 -0.3743
 6689TIP3    H141558   6.226   5.525  11.654 -1.4911  0.4007 -0.9658
 6689TIP3    H241559   6.136   5.405  11.633 -0.5056 -0.4244 -0.6050
 6690TIP3   OH241560   5.743   4.999  15.304  0.5568  0.0879 -0.6240
 6690TIP3    H141561   5.670   4.957  15.259 -0.7881  0.6394  0.9197
 6690TIP3    H241562   5.794   5.041  15.235 -0.1984 -0.8859 -1.8032
 6691TIP3   OH241563   5.383   1.947  15.019  0.2608  0.0217 -0.6931
 6691TIP3    H141564   5.383   1.860  14.979  1.8163 -0.6864  0.7572
 6691TIP3    H241565   5.460   1.948  15.076  2.0466  3.3642 -2.8026
 6692TIP3   OH241566   2.149   4.323   2.182  0.1212 -0.3789  0.2211
 6692TIP3    H141567   2.171   4.381   2.255 -1.1412 -0.7327  0.8960
 6692TIP3    H241568   2.234   4.294   2.149  0.7310  0.4652  0.9877
 6693TIP3   OH241569   1.819   1.435   4.786 -0.1612 -0.2169  0.2629
 6693TIP3    H141570   1.810   1.341   4.797  1.3649 -0.3719  0.4111
 6693TIP3    H241571   1.830   1.448   4.692 -1.1723 -0.0935  0.1531
 6694TIP3   OH241572   2.744   1.805   5.310  0.2246  0.2028 -0.9333
 6694TIP3    H141573   2.729   1.711   5.303  1.4566 -0.1190  0.3391
 6694TIP3    H241574   2.825   1.813   5.360 -1.1150  1.9809  1.1295
 6695TIP3   OH241575   3.003   3.921  12.184 -0.2278  0.2307 -0.0611
 6695TIP3    H141576   3.076   3.898  12.127  0.5739  0.2974  0.9063
 6695TIP3    H241577   2.935   3.857  12.164 -0.0495  0.3855 -1.2296
 6696TIP3   OH241578   3.801   6.431  13.617 -0.3132  0.5255 -0.5177
 6696TIP3    H141579   3.749   6.486  13.676  0.8251  1.1317 -0.0345
 6696TIP3    H241580   3.767   6.451  13.530 -1.2113  0.5356 -0.1721
 6697TIP3   OH241581   0.738   2.992  16.798 -0.9521 -0.5631  0.4225
 6697TIP3    H141582   0.812   2.935  16.818 -0.8457 -0.8989 -0.8579
 6697TIP3    H241583   0.776   3.080  16.793 -0.7151 -0.6772  0.2048
 6698TIP3   OH241584   4.783   5.336  15.015  0.0935 -0.1404 -0.2473
 6698TIP3    H141585   4.773   5.365  14.924  0.9553 -2.7315 -1.2334
 6698TIP3    H241586   4.865   5.376  15.044 -0.5155  1.2437 -0.3203
 6699TIP3   OH241587   5.099   1.951   0.984 -0.0781  0.6030 -0.2654
 6699TIP3    H141588   5.089   2.038   1.023 -0.1228  0.7414 -0.5864
 6699TIP3    H241589   5.064   1.960   0.896 -0.2666  0.2056 -0.2324
 6700TIP3   OH241590   3.289   2.768   0.603  0.4978  0.5809  0.0198
 6700TIP3    H141591   3.242   2.825   0.665 -0.4148 -1.3231  1.1696
 6700TIP3    H241592   3.224   2.703   0.577  1.1040  0.8681 -2.3858
 6701TIP3   OH241593   1.922   1.723  12.051  0.0748 -0.0342  0.5870
 6701TIP3    H141594   1.865   1.710  12.126 -0.1800 -2.0033  0.1022
 6701TIP3    H241595   2.010   1.711  12.085 -0.0950 -2.1845  0.3966
 6702TIP3   OH241596   6.218   2.255  16.494  0.1488  0.1038  0.2997
 6702TIP3    H141597   6.127   2.266  16.521 -0.9303 -2.0113 -2.0865
 6702TIP3    H241598   6.214   2.240  16.400  3.2615  2.4556 -0.3700
 6703TIP3   OH241599   3.171   3.633  14.987 -0.2132 -0.2486 -0.2239
 6703TIP3    H141600   3.100   3.681  14.944 -1.8519 -0.9638  1.5209
 6703TIP3    H241601   3.159   3.543  14.959  0.0318 -0.3702  0.0598
 6704TIP3   OH241602   2.112   6.486  14.099 -0.2550  0.6676  0.1012
 6704TIP3    H141603   2.046   6.480  14.031  0.5696  0.9850 -0.7409
 6704TIP3    H241604   2.168   6.559  14.073  1.5429 -0.7402 -0.2314
 6705TIP3   OH241605   5.817   1.371  11.355 -0.3336 -0.0153 -0.5520
 6705TIP3    H141606   5.733   1.416  11.364  0.3730  1.4520 -1.0605
 6705TIP3    H241607   5.860   1.414  11.282  1.9339  0.9912  1.2395
 6706TIP3   OH241608   6.364   3.223  14.195 -0.2138 -0.4507 -0.3342
 6706TIP3    H141609   6.275   3.239  14.227 -0.3834 -2.6078  0.4668
 6706TIP3    H241610   6.358   3.139  14.149  1.4993 -0.8686  0.1269
 6707TIP3   OH241611   6.382   2.894   5.374  0.1017 -0.1120 -0.5488
 6707TIP3    H141612   6.358   2.868   5.463 -0.4402  0.7892 -0.4280
 6707TIP3    H241613   6.356   2.819   5.320 -1.5516  0.1868 -0.2240
 6708TIP3   OH241614   2.155   5.032  12.584  0.0476 -0.3767  0.4127
 6708TIP3    H141615   2.188   5.074  12.663 -0.0838  2.0113 -0.7010
 6708TIP3    H241616   2.230   4.981  12.551  0.9258  0.6597  0.7488
 6709TIP3   OH241617   4.536   5.658   6.129  0.6105  0.4097  0.1726
 6709TIP3    H141618   4.454   5.690   6.167  0.2501  0.8035 -0.8717
 6709TIP3    H241619   4.585   5.622   6.202 -1.3040 -1.6235  0.5648
 6710TIP3   OH241620   3.690   4.234   5.510  0.3898 -0.5787 -0.0429
 6710TIP3    H141621   3.666   4.230   5.603  0.2586  0.1372 -0.0402
 6710TIP3    H241622   3.677   4.325   5.486  0.6270 -0.7173 -0.7172
 6711TIP3   OH241623   2.658   0.328  15.812  0.3126  0.0143  0.0277
 6711TIP3    H141624   2.630   0.275  15.886  1.3424  0.6645  0.8982
 6711TIP3    H241625   2.587   0.391  15.800 -0.2220 -0.5929 -0.0607
 6712TIP3   OH241626   5.286   1.229   3.464  0.6904 -0.1504  0.5585
 6712TIP3    H141627   5.291   1.192   3.376  0.1585 -1.2439  0.9648
 6712TIP3    H241628   5.270   1.322   3.450 -0.8925 -0.5417 -0.5195
 6713TIP3   OH241629   1.564   0.878  14.678  1.0092  1.0380  0.1095
 6713TIP3    H141630   1.489   0.818  14.669  0.0967  0.9811  5.1948
 6713TIP3    H241631   1.638   0.821  14.697  2.0647  1.2352 -2.9308
 6714TIP3   OH241632   2.455   2.083  13.157 -0.5324  0.3214 -0.2264
 6714TIP3    H141633   2.465   2.100  13.064  1.1979 -1.4737 -0.4357
 6714TIP3    H241634   2.361   2.066  13.169 -0.5825 -0.6967 -1.8886
 6715TIP3   OH241635   6.573   3.063   2.202 -0.1127  0.1692 -0.6878
 6715TIP3    H141636   6.649   3.033   2.251 -0.3622 -0.7604 -0.8453
 6715TIP3    H241637   6.597   3.050   2.110  0.5419  2.3543 -0.8759
 6716TIP3   OH241638   3.115   3.612   6.215 -0.0659  0.7216 -0.8577
 6716TIP3    H141639   3.169   3.535   6.237 -2.4033 -0.8680 -0.3000
 6716TIP3    H241640   3.161   3.685   6.255  1.6038 -0.5447 -0.3140
 6717TIP3   OH241641   4.447   2.975  14.056  0.1151  0.0777  0.2173
 6717TIP3    H141642   4.356   3.003  14.051  0.4110  0.8563 -1.5151
 6717TIP3    H241643   4.449   2.889  14.013  0.0214 -0.4775  1.2923
 6718TIP3   OH241644   2.280   1.857   2.247  0.1921 -0.7279  0.5902
 6718TIP3    H141645   2.205   1.897   2.203  1.4284  0.1601 -0.8228
 6718TIP3    H241646   2.259   1.764   2.251 -1.8177 -0.2849  2.0279
 6719TIP3   OH241647   3.436   1.038   1.712  0.4562 -0.4846 -0.8833
 6719TIP3    H141648   3.461   1.096   1.641 -1.5298  0.6830 -0.6981
 6719TIP3    H241649   3.373   1.088   1.764  1.0852 -1.6559  1.1508
 6720TIP3   OH241650   2.063   2.387   5.172  0.5369 -0.1068 -0.3825
 6720TIP3    H141651   2.087   2.415   5.261 -1.5502 -0.8561  0.4925
 6720TIP3    H241652   2.003   2.455   5.141 -1.2665 -1.3581  0.1211
 6721TIP3   OH241653   2.751   2.050   1.907  0.0953 -0.2146 -0.5821
 6721TIP3    H141654   2.694   1.984   1.868 -1.0378 -0.1773  0.9224
 6721TIP3    H241655   2.701   2.132   1.902  0.9600  0.2966 -1.2617
 6722TIP3   OH241656   1.864   6.556  13.654 -0.0256  0.0512 -0.6343
 6722TIP3    H141657   1.894   6.468  13.631 -0.1981 -0.6632  1.6721
 6722TIP3    H241658   1.822   6.589  13.574 -0.5414 -2.1896 -1.3453
 6723TIP3   OH241659   5.326   4.882   0.431  0.3315 -0.7646  0.5507
 6723TIP3    H141660   5.245   4.901   0.479 -0.8920 -0.9208 -1.3428
 6723TIP3    H241661   5.296   4.843   0.349  2.2373  0.7825 -0.9666
 6724TIP3   OH241662   6.591   2.707   4.039 -0.1531 -0.0523 -0.9047
 6724TIP3    H141663   6.609   2.743   4.126 -0.4029  2.0700 -1.6645
 6724TIP3    H241664   6.597   2.612   4.051  3.6833  0.2093  0.5717
 6725TIP3   OH241665   1.180   6.443  10.721  0.2809  0.5541  0.5639
 6725TIP3    H141666   1.226   6.380  10.777  0.6047 -0.0534 -0.3761
 6725TIP3    H241667   1.107   6.393  10.684 -0.6012  1.2537  1.2903
 6726TIP3   OH241668   1.111   6.507   0.202 -0.6675 -0.5368 -0.3218
 6726TIP3    H141669   1.118   6.451   0.279  0.8921 -1.0688 -0.8018
 6726TIP3    H241670   1.152   6.456   0.132 -0.1659  0.7656 -1.0067
 6727TIP3   OH241671   2.115   2.357   4.098 -0.5475  0.1082  0.0779
 6727TIP3    H141672   2.180   2.427   4.085 -0.2155 -0.1610  0.2885
 6727TIP3    H241673   2.159   2.277   4.069 -1.2869  0.1228 -1.1690
 6728TIP3   OH241674   4.832   5.839   0.727 -0.1742  0.3356 -0.1627
 6728TIP3    H141675   4.901   5.789   0.683  0.1039 -1.6435  2.2824
 6728TIP3    H241676   4.785   5.883   0.656 -0.1117 -3.0314 -2.5546
 6729TIP3   OH241677   1.017   1.776  14.419 -0.0326  0.0428  0.3287
 6729TIP3    H141678   0.977   1.824  14.491  1.5336  1.0725  0.5560
 6729TIP3    H241679   1.022   1.686  14.450 -0.8288  0.1665  0.8530
 6730TIP3   OH241680   1.792   2.801   3.775  0.0073  0.0068 -0.0880
 6730TIP3    H141681   1.720   2.798   3.713 -0.9793  2.1532  0.8426
 6730TIP3    H241682   1.868   2.828   3.723  0.1346 -1.9520 -1.0054
 6731TIP3   OH241683   4.575   2.296   1.423  0.0068 -0.0493  0.2880
 6731TIP3    H141684   4.608   2.359   1.359  0.9300  0.0756  0.8678
 6731TIP3    H241685   4.500   2.256   1.381 -1.1833  2.0884  0.2231
 6732TIP3   OH241686   1.821   6.450   1.000  0.5669 -0.5486  0.1219
 6732TIP3    H141687   1.882   6.377   0.992 -0.7386 -1.7892  0.8499
 6732TIP3    H241688   1.738   6.415   0.967 -0.1497  0.5245  0.7192
 6733TIP3   OH241689   6.643   3.052  13.469 -0.3633  0.8525 -0.2138
 6733TIP3    H141690   6.736   3.072  13.473  0.0893 -1.1216 -0.1273
 6733TIP3    H241691   6.635   2.987  13.400 -0.9036 -2.5188  2.7266
 6734TIP3   OH241692   1.586   4.849   0.800  1.0689  0.2631  0.5620
 6734TIP3    H141693   1.587   4.902   0.720 -0.7049  1.3662  1.2117
 6734TIP3    H241694   1.667   4.873   0.845  1.8399  0.0089 -0.6241
 6735TIP3   OH241695   2.822   5.403   1.455  0.6934 -0.6778  0.2903
 6735TIP3    H141696   2.760   5.471   1.427  1.6250 -0.0266 -0.2521
 6735TIP3    H241697   2.834   5.418   1.548  0.5471 -0.3728  0.2627
 6736TIP3   OH241698   3.413   1.191   3.903  0.7276 -0.1467  0.1267
 6736TIP3    H141699   3.468   1.182   3.825  2.3912  0.7260  1.1318
 6736TIP3    H241700   3.384   1.282   3.902 -0.1241 -0.4148 -0.0170
 6737TIP3   OH241701   2.311   1.773   1.438 -0.0224 -0.5745 -0.5913
 6737TIP3    H141702   2.358   1.813   1.365  0.3245 -0.7901 -0.4922
 6737TIP3    H241703   2.220   1.799   1.426 -0.0894 -1.2001 -1.5063
 6738TIP3   OH241704   1.038   3.318   0.057 -1.3328 -0.1623  0.3411
 6738TIP3    H141705   1.035   3.403   0.101  0.6255  0.6558 -0.9857
 6738TIP3    H241706   1.086   3.335  -0.025 -1.7134 -2.3605 -0.3964
 6739TIP3   OH241707   2.735   1.940  13.182  0.6487 -0.1573 -0.2768
 6739TIP3    H141708   2.643   1.963  13.171  0.6973  0.2028  0.0178
 6739TIP3    H241709   2.747   1.859  13.134  0.5821  0.7058 -1.7935
 6740TIP3   OH241710   1.434   1.179  13.857 -0.1122 -0.1339 -0.0147
 6740TIP3    H141711   1.466   1.169  13.947 -0.6074  0.9337  0.2940
 6740TIP3    H241712   1.500   1.233  13.814 -0.1693 -0.1592 -0.1341
 6741TIP3   OH241713   2.022   3.190  11.378 -0.2425  1.4424  0.1208
 6741TIP3    H141714   2.063   3.253  11.318 -1.6937  1.3996 -0.9442
 6741TIP3    H241715   1.936   3.227  11.397 -0.6925  0.3056  0.3524
 6742TIP3   OH241716   4.978   1.349  17.470  0.2665 -0.1466  0.1116
 6742TIP3    H141717   4.891   1.369  17.502  0.8454 -0.6258  2.0997
 6742TIP3    H241718   4.964   1.320  17.379 -1.7928 -1.4959  0.7906
 6743TIP3   OH241719   0.692   5.911  11.831 -0.0671 -0.4858 -0.1659
 6743TIP3    H141720   0.699   5.939  11.740  0.0791 -0.2098 -0.0721
 6743TIP3    H241721   0.604   5.874  11.838  0.1917 -1.1926 -0.6040
 6744TIP3   OH241722   6.780   0.805   5.597 -0.1088 -0.0004  0.0949
 6744TIP3    H141723   6.704   0.763   5.557  0.1027 -0.8600  0.5758
 6744TIP3    H241724   6.820   0.854   5.525 -1.0298  0.3509 -0.1929
 6745TIP3   OH241725   0.260   2.972  14.109 -0.0348 -0.0679  0.7867
 6745TIP3    H141726   0.335   3.021  14.074  0.5676 -1.7102 -0.3865
 6745TIP3    H241727   0.299   2.891  14.143 -1.1308 -0.3015  1.5227
 6746TIP3   OH241728   0.252   3.654   6.880 -0.2969 -0.2126 -0.0318
 6746TIP3    H141729   0.346   3.649   6.900 -0.5523  1.9039  2.0501
 6746TIP3    H241730   0.238   3.744   6.852 -1.6116 -0.7261 -1.1141
 6747TIP3   OH241731   3.762   2.070   1.308  0.0492 -0.2750  0.1422
 6747TIP3    H141732   3.782   2.132   1.378 -1.7979  0.1712  0.3293
 6747TIP3    H241733   3.703   2.118   1.250  0.5279 -1.0745 -1.0293
 6748TIP3   OH241734   4.300   2.168  15.559 -0.2683 -0.2438  0.1924
 6748TIP3    H141735   4.217   2.121  15.568 -1.3394  1.1130 -1.8707
 6748TIP3    H241736   4.313   2.177  15.464  0.9556  1.7353  0.4778
 6749TIP3   OH241737   1.474   2.303  13.187  0.3039 -0.1359  0.2696
 6749TIP3    H141738   1.515   2.360  13.252  1.3149 -1.6303  0.9900
 6749TIP3    H241739   1.491   2.347  13.103 -1.7834  2.2723  0.9883
 6750TIP3   OH241740   6.632   0.103   2.277 -0.5429 -0.6029 -0.4369
 6750TIP3    H141741   6.651   0.191   2.310  1.4219 -1.0485 -0.2463
 6750TIP3    H241742   6.538   0.091   2.291 -0.3758  0.4749  1.9956
 6751TIP3   OH241743   6.049   5.589   1.045  0.0151 -0.1789 -0.4712
 6751TIP3    H141744   6.079   5.592   1.136 -0.5428  2.1004 -0.3221
 6751TIP3    H241745   6.094   5.513   1.008  1.6528 -0.1027  1.2168
 6752TIP3   OH241746   1.323   4.866  13.196 -0.4184  0.3344  0.6097
 6752TIP3    H141747   1.403   4.855  13.145 -0.6225  0.3832  0.2757
 6752TIP3    H241748   1.353   4.902  13.279 -0.2427  2.0011 -0.1259
 6753TIP3   OH241749   2.055   6.286   5.940  0.2759 -0.2785 -0.1053
 6753TIP3    H141750   2.033   6.328   5.857 -0.7284 -0.2337  0.1782
 6753TIP3    H241751   2.143   6.319   5.961  0.3805  0.0033 -0.9490
 6754TIP3   OH241752   0.628   0.525   5.733  0.1534 -0.5192 -0.1036
 6754TIP3    H141753   0.589   0.460   5.793 -0.4427  0.4196  0.5533
 6754TIP3    H241754   0.683   0.473   5.675 -3.0148 -2.1381 -1.9369
 6755TIP3   OH241755   4.304   1.210   2.495 -0.3949  0.7639  0.7240
 6755TIP3    H141756   4.259   1.138   2.449 -0.4100  1.0750  0.2392
 6755TIP3    H241757   4.349   1.167   2.567 -0.8002  0.3306  0.7299
 6756TIP3   OH241758   4.345   3.045  14.720  0.2998 -0.5796  0.3385
 6756TIP3    H141759   4.395   2.973  14.759  1.0008 -0.4206 -0.2511
 6756TIP3    H241760   4.304   3.006  14.643 -0.1443 -0.6012  0.5851
 6757TIP3   OH241761   1.406   2.928   2.104 -0.1838 -0.1726 -0.7877
 6757TIP3    H141762   1.418   2.995   2.171 -1.4256 -1.2348  0.5602
 6757TIP3    H241763   1.465   2.858   2.129 -1.2036 -0.8929 -0.3191
 6758TIP3   OH241764   1.172   5.237  13.075 -0.5060  0.7603 -0.2910
 6758TIP3    H141765   1.247   5.289  13.046 -2.5958  3.3015 -1.5484
 6758TIP3    H241766   1.166   5.166  13.011 -1.2499  2.6459 -2.4413
 6759TIP3   OH241767   2.716   6.176   5.699 -0.0028 -0.6807 -0.1048
 6759TIP3    H141768   2.792   6.210   5.747  1.4143  0.3853 -2.9091
 6759TIP3    H241769   2.675   6.254   5.660 -1.4240 -1.4479 -0.2098
 6760TIP3   OH241770   6.300   2.619   0.052 -0.4382  0.2808 -0.6008
 6760TIP3    H141771   6.258   2.690   0.100  1.1011  1.4736 -0.8995
 6760TIP3    H241772   6.254   2.615  -0.032 -0.6860  0.7928 -0.4905
 6761TIP3   OH241773   4.481   4.187  14.107  0.2866  0.4048 -0.4925
 6761TIP3    H141774   4.412   4.165  14.170 -0.6874  1.5900 -1.1024
 6761TIP3    H241775   4.521   4.267  14.142  0.1870  0.6920 -1.0166
 6762TIP3   OH241776   5.629   4.580  17.240 -0.3750  0.1112  0.0103
 6762TIP3    H141777   5.653   4.647  17.306  0.6001 -1.7875  1.7009
 6762TIP3    H241778   5.568   4.625  17.182 -0.3876  2.2510  1.5350
 6763TIP3   OH241779   4.426   2.663  13.548 -0.1659  0.5516  0.6623
 6763TIP3    H141780   4.440   2.569  13.546  0.3925  0.6403 -0.1597
 6763TIP3    H241781   4.354   2.676  13.610 -0.4690 -0.4415  0.5299
 6764TIP3   OH241782   4.519   1.366   0.806 -0.1654 -0.1740  0.0645
 6764TIP3    H141783   4.484   1.427   0.742  1.1073 -0.3343 -0.8279
 6764TIP3    H241784   4.614   1.381   0.805 -0.0036 -0.9555  1.0984
 6765TIP3   OH241785   4.587   0.374  11.750  0.1766  0.0915 -0.2651
 6765TIP3    H141786   4.554   0.397  11.837  2.6745  3.7927 -0.0703
 6765TIP3    H241787   4.671   0.330  11.767  0.5156  0.5220 -0.7866
 6766TIP3   OH241788   6.494   1.559   4.988  0.5201 -0.4236  0.1153
 6766TIP3    H141789   6.531   1.506   4.917 -0.5961  0.8923 -1.5357
 6766TIP3    H241790   6.430   1.501   5.029  1.8817 -1.5381  0.7444
 6767TIP3   OH241791   2.806   4.699  15.839  0.4699 -0.2820 -0.7743
 6767TIP3    H141792   2.730   4.752  15.817  1.1337  1.3388  0.5904
 6767TIP3    H241793   2.881   4.759  15.828  1.0882 -0.1883  2.7352
 6768TIP3   OH241794   1.162   3.674   5.020  0.4442 -0.1729 -0.4898
 6768TIP3    H141795   1.165   3.713   4.933 -1.7073 -2.0405 -1.4878
 6768TIP3    H241796   1.128   3.744   5.076  0.0883  0.4887 -1.5056
 6769TIP3   OH241797   0.737   3.182   3.178  0.1898  0.0664  0.3027
 6769TIP3    H141798   0.693   3.137   3.106 -0.8843  0.2761  0.8081
 6769TIP3    H241799   0.802   3.118   3.209 -0.1208 -0.4614 -0.1105
 6770TIP3   OH241800   3.881   4.232   5.071 -0.4183  0.6886 -0.6026
 6770TIP3    H141801   3.838   4.308   5.109 -2.0953 -0.7357  0.4822
 6770TIP3    H241802   3.934   4.267   5.000  0.6193  3.1263  1.2521
 6771TIP3   OH241803   3.127   0.274  17.189 -0.8709 -0.9993 -0.1356
 6771TIP3    H141804   3.179   0.235  17.259 -1.7175  0.4340  1.3755
 6771TIP3    H241805   3.059   0.210  17.171 -0.8540 -1.2378  0.6209
 6772TIP3   OH241806   5.578   0.564  11.787  0.1173 -0.4033 -0.1509
 6772TIP3    H141807   5.636   0.518  11.727  3.0624  1.5012  0.9973
 6772TIP3    H241808   5.624   0.563  11.871 -2.2770 -0.0802  1.2762
 6773TIP3   OH241809   5.809   1.390   5.979  0.8302  0.6237  0.3964
 6773TIP3    H141810   5.773   1.478   5.977  1.0529  0.7467  1.3948
 6773TIP3    H241811   5.903   1.402   5.991  0.9988  0.2682 -0.4897
 6774TIP3   OH241812   2.376   3.280  16.747  0.1398  0.0464  0.2702
 6774TIP3    H141813   2.427   3.241  16.817 -0.4959  0.8891  1.2205
 6774TIP3    H241814   2.302   3.323  16.791 -0.9953 -0.5013 -1.0011
 6775TIP3   OH241815   1.231   1.386  16.627 -0.6564 -1.1181 -0.0237
 6775TIP3    H141816   1.309   1.427  16.664  0.5959 -1.9847 -1.5639
 6775TIP3    H241817   1.203   1.446  16.557 -0.3298 -1.6408 -0.6106
 6776TIP3   OH241818   1.825   3.471   1.320  0.2728 -0.2531  0.1653
 6776TIP3    H141819   1.814   3.386   1.278  2.2754 -0.6419  0.3539
 6776TIP3    H241820   1.780   3.532   1.262 -1.4890 -1.4401  0.1977
 6777TIP3   OH241821   1.012   6.720  16.236  0.3304 -0.1901  0.2580
 6777TIP3    H141822   1.080   6.658  16.263 -0.4851 -0.5539  1.5332
 6777TIP3    H241823   1.011   6.786  16.305  0.2728  0.5268 -0.4190
 6778TIP3   OH241824   2.410   3.656  17.481  0.2841  0.0241 -0.5584
 6778TIP3    H141825   2.400   3.613  17.566  0.4995  0.6910 -0.1874
 6778TIP3    H241826   2.376   3.592  17.418 -2.1555  0.4293  0.2189
 6779TIP3   OH241827   0.009   6.712  15.562  0.4711  0.0760  0.4205
 6779TIP3    H141828  -0.065   6.772  15.562  0.7138  0.3828  0.1213
 6779TIP3    H241829   0.086   6.769  15.569  0.9234  0.1282 -3.2712
 6780TIP3   OH241830   5.927   3.189   2.009  0.2983 -0.1572 -0.0914
 6780TIP3    H141831   5.939   3.094   2.009  1.2022 -0.1000  2.5194
 6780TIP3    H241832   5.997   3.222   2.064 -0.6560  1.9527 -0.0645
 6781TIP3   OH241833   1.359   3.222  17.285  0.0832  0.0150 -0.7209
 6781TIP3    H141834   1.325   3.142  17.246 -1.3403  0.4114 -0.3254
 6781TIP3    H241835   1.298   3.290  17.258 -1.3004  0.2374  2.5928
 6782TIP3   OH241836   3.376   3.104   5.570  0.2899 -0.0007 -0.2178
 6782TIP3    H141837   3.395   3.013   5.548 -0.3109 -0.4417  0.9964
 6782TIP3    H241838   3.430   3.122   5.647  2.0097  1.3612 -1.6535
 6783TIP3   OH241839   3.613   4.242   4.462  0.5779 -0.2671  0.0052
 6783TIP3    H141840   3.579   4.231   4.373  1.8643  0.1811 -0.5616
 6783TIP3    H241841   3.661   4.161   4.479  0.4435 -0.2972  0.2428
 6784TIP3   OH241842   2.575   2.157  13.826 -0.0336  0.1752  0.0954
 6784TIP3    H141843   2.604   2.075  13.865  1.0095  0.2209 -0.5373
 6784TIP3    H241844   2.509   2.132  13.762  0.3021 -0.1765 -0.1144
 6785TIP3   OH241845   1.837   5.722   5.466  0.6577 -0.0538  0.1882
 6785TIP3    H141846   1.789   5.804   5.466  0.0820 -0.3519  1.8547
 6785TIP3    H241847   1.886   5.723   5.384 -0.8537  1.0369 -0.7532
 6786TIP3   OH241848   4.867   1.487   5.183 -0.2409  0.1126 -0.3800
 6786TIP3    H141849   4.823   1.501   5.099  0.6240  3.2130 -0.4520
 6786TIP3    H241850   4.819   1.543   5.244  0.7346 -0.0781  0.5858
 6787TIP3   OH241851   5.810   6.361   5.094 -0.2366 -0.3284  0.1436
 6787TIP3    H141852   5.790   6.454   5.086  0.4421 -0.2852 -1.4849
 6787TIP3    H241853   5.904   6.357   5.110  0.3260 -0.7500 -2.7657
 6788TIP3   OH241854   2.320   3.077  10.709  0.1654  0.1810 -0.1470
 6788TIP3    H141855   2.333   3.042  10.621  1.5462 -0.7918  0.4087
 6788TIP3    H241856   2.330   3.001  10.767  0.0266  0.9292  0.8916
 6789TIP3   OH241857   2.005   2.810  14.312 -0.2426 -0.1025  0.5854
 6789TIP3    H141858   1.966   2.785  14.396 -1.0089  1.2160  0.6536
 6789TIP3    H241859   2.072   2.743  14.295  0.4116 -0.0143  2.5819
 6790TIP3   OH241860   4.725   0.932  12.314  0.3863 -0.2037 -0.4393
 6790TIP3    H141861   4.680   1.015  12.327  0.9846  0.0314  0.2108
 6790TIP3    H241862   4.769   0.941  12.230  2.1577  0.9666  0.5603
 6791TIP3   OH241863   5.592   6.437   4.197 -0.2303  0.7008 -0.3730
 6791TIP3    H141864   5.620   6.528   4.188 -1.6385  1.3211  1.0722
 6791TIP3    H241865   5.659   6.396   4.252 -1.0366  1.6350  1.3563
 6792TIP3   OH241866   1.442   1.275  14.896 -0.0302 -0.3589 -0.1270
 6792TIP3    H141867   1.500   1.293  14.822  0.0248 -0.2879 -0.0664
 6792TIP3    H241868   1.406   1.360  14.921  0.3713 -0.3024  0.2761
 6793TIP3   OH241869   6.454   4.714  17.275 -0.3363 -0.3488  0.2711
 6793TIP3    H141870   6.431   4.701  17.183 -1.6865  0.3549  0.4827
 6793TIP3    H241871   6.442   4.807  17.290 -2.3992 -0.7803  1.7134
 6794TIP3   OH241872   6.662   3.386  16.364  0.2843  0.0160  0.3730
 6794TIP3    H141873   6.659   3.300  16.322  1.1428  0.2917 -0.2804
 6794TIP3    H241874   6.577   3.395  16.407 -1.1331  0.2086 -2.2886
 6795TIP3   OH241875   4.841   0.644  15.692 -0.0632  0.6007  0.8620
 6795TIP3    H141876   4.756   0.672  15.724 -0.8876 -2.5122  1.7923
 6795TIP3    H241877   4.826   0.623  15.600  0.4266  2.5082  0.3069
 6796TIP3   OH241878   4.621   4.317  12.007  0.1759 -0.1530 -0.1582
 6796TIP3    H141879   4.642   4.313  12.100  1.0067 -0.5200 -0.3478
 6796TIP3    H241880   4.589   4.407  11.993 -2.6861 -0.8852  0.9985
 6797TIP3   OH241881   2.410   5.720   5.185 -0.0908 -0.3033  0.5787
 6797TIP3    H141882   2.351   5.649   5.158  0.1075 -1.0154  1.9158
 6797TIP3    H241883   2.497   5.689   5.162 -0.0860 -0.0485  0.2539
 6798TIP3   OH241884   2.326   3.045   3.897  0.2350  0.3515  0.0941
 6798TIP3    H141885   2.318   3.086   3.984 -0.3066  2.0038 -0.6832
 6798TIP3    H241886   2.362   3.115   3.842  1.1998 -0.8809 -0.8799
 6799TIP3   OH241887   4.393   1.830   4.049  0.0379 -0.9977 -0.8745
 6799TIP3    H141888   4.402   1.885   3.971 -0.8113  1.3270  0.5482
 6799TIP3    H241889   4.483   1.819   4.081  0.1218  1.3067 -0.1350
 6800TIP3   OH241890   2.949   3.155  16.744 -0.2085  1.2241 -0.0245
 6800TIP3    H141891   2.957   3.091  16.815 -0.6121  2.1104  0.8417
 6800TIP3    H241892   2.919   3.235  16.787 -1.5527  1.4783 -1.3480
 6801TIP3   OH241893   2.569   1.174   1.852 -0.2504  0.3240  0.1973
 6801TIP3    H141894   2.542   1.247   1.796 -0.3158 -0.2918 -0.5942
 6801TIP3    H241895   2.604   1.216   1.931  1.4445  1.3089 -0.9973
 6802TIP3   OH241896   1.281   4.625   0.206  0.5819  0.3205  0.3123
 6802TIP3    H141897   1.323   4.704   0.173  1.1815 -0.2104 -0.2179
 6802TIP3    H241898   1.317   4.554   0.152 -0.4997 -0.2282  0.2832
 6803TIP3   OH241899   4.921   0.355  16.678 -0.2755 -0.1136 -0.0420
 6803TIP3    H141900   4.886   0.266  16.673 -0.5583  0.0521 -1.2846
 6803TIP3    H241901   4.876   0.402  16.608  2.9066 -0.0382 -2.2141
 6804TIP3   OH241902   0.530   6.486   2.467 -0.0817  0.1474 -0.5757
 6804TIP3    H141903   0.449   6.435   2.462 -1.0373  1.4616  0.5482
 6804TIP3    H241904   0.532   6.537   2.386 -0.6276  0.4377 -0.4124
 6805TIP3   OH241905   6.431   2.341   4.299  0.2862 -0.1165  0.0953
 6805TIP3    H141906   6.378   2.408   4.343 -1.3944 -0.4829 -1.2453
 6805TIP3    H241907   6.517   2.382   4.289  0.0153  0.8892  1.4631
 6806TIP3   OH241908   3.604   5.948   4.631  0.5424  0.3991  0.3932
 6806TIP3    H141909   3.656   5.975   4.707  0.2975  1.2917  0.2493
 6806TIP3    H241910   3.667   5.949   4.558  0.1393  2.5509  0.0013
 6807TIP3   OH241911   1.255   6.135   2.438  0.3653 -0.0012 -0.3318
 6807TIP3    H141912   1.229   6.076   2.509  1.7564  0.0272  0.2262
 6807TIP3    H241913   1.346   6.157   2.457  0.4151  0.9103 -1.5188
 6808TIP3   OH241914   0.487   4.603  11.289  0.5710  0.3254  0.0229
 6808TIP3    H141915   0.457   4.583  11.201  0.1237 -1.1345  0.4861
 6808TIP3    H241916   0.574   4.640  11.277  0.9193 -0.7891 -0.9620
 6809TIP3   OH241917   1.863   6.775  12.273  0.8881 -0.3233 -0.4093
 6809TIP3    H141918   1.956   6.779  12.293  0.8850  2.2756 -0.6030
 6809TIP3    H241919   1.851   6.838  12.202 -1.2126  0.3336  0.4585
 6810TIP3   OH241920   0.111   0.970   5.335 -0.1132  0.0403 -0.4875
 6810TIP3    H141921   0.195   1.010   5.357  0.1297 -1.3360  1.2821
 6810TIP3    H241922   0.134   0.891   5.287 -0.4656  0.3898 -1.2424
 6811TIP3   OH241923   2.058   3.045   1.558 -0.7989 -0.4614 -0.3194
 6811TIP3    H141924   2.149   3.018   1.541 -0.3573  0.4665  0.4543
 6811TIP3    H241925   2.021   2.972   1.607  0.0479 -0.1756  0.7987
 6812TIP3   OH241926   1.949   3.671  15.377 -0.2592 -0.7061 -0.1166
 6812TIP3    H141927   2.024   3.719  15.412  0.9715 -1.0862 -2.0629
 6812TIP3    H241928   1.951   3.587  15.423 -1.5257  0.4461  2.2096
 6813TIP3   OH241929   0.870   0.511   1.977 -0.0517 -0.1972 -0.2895
 6813TIP3    H141930   0.882   0.490   1.884 -1.8221  1.0707 -0.8365
 6813TIP3    H241931   0.960   0.513   2.012  0.7104  0.0298 -2.1278
 6814TIP3   OH241932   1.506   1.125   3.694  0.1392  0.2169  0.2816
 6814TIP3    H141933   1.537   1.063   3.759 -0.8137 -0.7217 -0.1404
 6814TIP3    H241934   1.423   1.158   3.729  0.5788  1.1836  0.4497
 6815TIP3   OH241935   2.077   0.002   3.323  0.2095  0.1404 -0.7439
 6815TIP3    H141936   2.127   0.083   3.316  0.9142 -0.3805 -2.2940
 6815TIP3    H241937   2.022   0.014   3.400  2.2713  0.9851  0.6944
 6816TIP3   OH241938   2.695   5.088   3.911 -0.4599  0.1862 -0.5758
 6816TIP3    H141939   2.637   5.155   3.875  1.2887  1.0169 -1.9537
 6816TIP3    H241940   2.776   5.134   3.931 -0.0484 -1.0624  0.7635
 6817TIP3   OH241941   5.195   5.939   4.231  0.2119  0.2510 -0.2876
 6817TIP3    H141942   5.270   5.881   4.218 -0.8430 -0.8101 -2.0724
 6817TIP3    H241943   5.156   5.947   4.144 -3.9170 -2.3196  1.0094
 6818TIP3   OH241944   5.706   4.014  11.229 -0.0898 -0.2991 -0.2963
 6818TIP3    H141945   5.641   3.950  11.199 -0.4463 -0.5451  0.9270
 6818TIP3    H241946   5.727   3.986  11.318  1.5561 -0.0986 -0.5876
 6819TIP3   OH241947   2.161   5.396  14.766 -0.0804 -0.2794 -0.0201
 6819TIP3    H141948   2.164   5.473  14.823 -0.1906  0.1641 -0.6044
 6819TIP3    H241949   2.110   5.425  14.690 -1.8274 -1.5038  0.6038
 6820TIP3   OH241950   2.409   2.269   4.863 -0.4295 -0.3329  0.6054
 6820TIP3    H141951   2.370   2.185   4.887  0.4128 -0.8598  0.1705
 6820TIP3    H241952   2.378   2.330   4.930 -2.7195 -0.4979 -0.1991
 6821TIP3   OH241953   0.010   2.030   2.816  0.5679  0.0676  0.4091
 6821TIP3    H141954  -0.039   2.035   2.898  1.9315 -0.6770  1.3007
 6821TIP3    H241955   0.102   2.025   2.843  1.1184  0.8047 -1.1931
 6822TIP3   OH241956   1.409   3.430  14.610  0.5593 -0.2834 -0.6953
 6822TIP3    H141957   1.384   3.482  14.534  1.3471  1.1749  0.0102
 6822TIP3    H241958   1.389   3.485  14.686 -0.7773 -1.9480  0.2262
 6823TIP3   OH241959   1.955   3.620   3.219  0.2361 -0.1599  0.1541
 6823TIP3    H141960   1.989   3.709   3.218  0.3368 -0.1884  0.7286
 6823TIP3    H241961   1.869   3.626   3.177  0.5245  0.0909 -0.3972
 6824TIP3   OH241962   0.222   4.862  17.085 -0.4146  0.4891 -0.4280
 6824TIP3    H141963   0.147   4.891  17.136  0.4911  2.3847 -0.0756
 6824TIP3    H241964   0.298   4.895  17.133  0.7413 -2.1885 -0.2677
 6825TIP3   OH241965   2.241   1.808   4.340 -0.6624 -0.2030 -0.1184
 6825TIP3    H141966   2.314   1.758   4.376 -0.0801 -0.3077 -1.3962
 6825TIP3    H241967   2.177   1.811   4.411  0.5921 -0.0513  1.0459
 6826TIP3   OH241968   0.859   3.299   1.561  0.2260 -0.5045 -0.1120
 6826TIP3    H141969   0.800   3.333   1.629  0.4970 -0.6312  0.1872
 6826TIP3    H241970   0.945   3.299   1.602  0.5806  0.4694 -0.8228
 6827TIP3   OH241971   0.022   5.235  12.962 -0.4873  0.6587 -0.0149
 6827TIP3    H141972   0.050   5.323  12.937 -1.0721  0.6453 -0.7590
 6827TIP3    H241973   0.072   5.215  13.042 -0.5318  1.7547  0.2977
 6828TIP3   OH241974   3.087   2.344  11.239 -0.0310 -0.5910 -0.7214
 6828TIP3    H141975   3.171   2.387  11.257 -0.7616  0.9208 -0.8352
 6828TIP3    H241976   3.077   2.349  11.144  0.5042 -2.2755 -0.9017
 6829TIP3   OH241977   6.265   0.835  14.591 -0.1077 -0.2997  0.5262
 6829TIP3    H141978   6.300   0.815  14.504 -1.5414 -0.8767  0.0391
 6829TIP3    H241979   6.336   0.880  14.637 -0.1174  2.3310 -1.7918
 6830TIP3   OH241980   1.396   2.309  15.866  0.1856 -0.4907 -0.0128
 6830TIP3    H141981   1.393   2.309  15.962  1.2514  0.6583  0.0428
 6830TIP3    H241982   1.308   2.336  15.839 -0.3385 -1.5046  0.6003
 6831TIP3   OH241983   0.451   6.076  16.532  0.0515  0.3847 -0.0262
 6831TIP3    H141984   0.362   6.040  16.528  0.2793 -0.1761 -0.1654
 6831TIP3    H241985   0.439   6.168  16.556 -0.4491 -0.2166  2.2364
 6832TIP3   OH241986   0.824   2.819  17.286 -0.3060 -0.5926  0.0096
 6832TIP3    H141987   0.745   2.867  17.263  1.1557  2.2046  0.4216
 6832TIP3    H241988   0.831   2.829  17.381  0.7116 -0.5168 -0.0641
 6833TIP3   OH241989   3.220   5.470  15.656  0.5727  0.0941  0.0923
 6833TIP3    H141990   3.243   5.532  15.726 -0.6873  1.1234 -0.3698
 6833TIP3    H241991   3.256   5.387  15.686  2.3502  1.0384  0.7151
 6834TIP3   OH241992   1.256   6.779   4.400  0.0509 -0.2334  1.1047
 6834TIP3    H141993   1.224   6.863   4.368  0.5825 -1.4328 -3.1621
 6834TIP3    H241994   1.178   6.734   4.433 -0.6718  0.9124  0.9902
 6835TIP3   OH241995   1.906   1.717   3.881  0.0611 -0.6229  0.0040
 6835TIP3    H141996   1.821   1.673   3.876 -0.7580  1.0097 -1.6443
 6835TIP3    H241997   1.894   1.785   3.947  0.6197 -1.3903  0.9205
 6836TIP3   OH241998   1.615   5.599   2.516 -0.4774  0.5793 -0.0911
 6836TIP3    H141999   1.532   5.626   2.477 -0.6607  1.8131  1.0593
 6836TIP3    H242000   1.591   5.573   2.605  0.2596  0.1693 -0.0120
 6837TIP3   OH242001   4.144   5.972   2.893  0.3815 -0.8445 -0.7060
 6837TIP3    H142002   4.154   5.962   2.988  1.1937 -0.9295 -0.7904
 6837TIP3    H242003   4.183   6.057   2.874  1.5103 -1.4385 -1.1372
 6838TIP3   OH242004   3.387   5.284  17.419  0.6243  0.0940  0.5000
 6838TIP3    H142005   3.393   5.202  17.469  1.0898  1.2612  2.4776
 6838TIP3    H242006   3.474   5.295  17.380  0.6977 -0.1354  0.5956
 6839TIP3   OH242007   2.487   0.679   4.276 -0.0237  0.1485  0.2266
 6839TIP3    H142008   2.423   0.652   4.342  0.3159  0.0822  0.5344
 6839TIP3    H242009   2.441   0.743   4.222  0.2204  1.5012  1.5730
 6840TIP3   OH242010   3.739   0.093   5.568  0.3347  0.3246  0.0534
 6840TIP3    H142011   3.748   0.135   5.483 -0.2789 -0.5415 -0.4635
 6840TIP3    H242012   3.648   0.062   5.570  0.4055  0.1459  0.9319
 6841TIP3   OH242013   2.296   4.976  16.605  0.4150 -0.4695 -0.1471
 6841TIP3    H142014   2.331   4.895  16.642 -1.0398  0.4268  3.6930
 6841TIP3    H242015   2.201   4.961  16.602  0.2613  0.5809 -0.7754
 6842TIP3   OH242016   2.133   0.208  15.870  0.1011  0.3070 -0.2420
 6842TIP3    H142017   2.143   0.261  15.949 -0.7990  1.3536 -0.7960
 6842TIP3    H242018   2.212   0.155  15.866  0.0237  0.0213  1.5163
 6843TIP3   OH242019   2.528   2.678   3.947  0.1417  0.1081  0.3699
 6843TIP3    H142020   2.595   2.737   3.911  0.3470 -0.6057 -0.4589
 6843TIP3    H242021   2.578   2.617   4.001  0.0029  0.3423  0.7605
 6844TIP3   OH242022   3.999   1.397   5.344  0.1589 -0.3048 -0.4174
 6844TIP3    H142023   3.942   1.430   5.413  1.8368  2.3442 -0.1761
 6844TIP3    H242024   3.944   1.336   5.294 -1.8665 -0.3054  1.6672
 6845TIP3   OH242025   5.129   1.355  13.307 -0.1513 -0.7853 -0.0880
 6845TIP3    H142026   5.113   1.430  13.250 -1.8668 -2.9021 -2.6731
 6845TIP3    H242027   5.197   1.305  13.263  0.4706 -1.1364  1.2162
 6846TIP3   OH242028   2.856   2.031  14.147 -0.1580 -0.2550 -0.1468
 6846TIP3    H142029   2.874   1.997  14.059  0.9975  2.0507 -0.8667
 6846TIP3    H242030   2.939   2.069  14.175 -1.5055  2.5857  0.2665
 6847TIP3   OH242031   6.445   3.233  17.043  0.3869 -0.2917 -0.2539
 6847TIP3    H142032   6.526   3.257  16.996  1.3346 -0.6754  1.1130
 6847TIP3    H242033   6.417   3.315  17.085  2.1062 -0.8366  2.1805
 6848TIP3   OH242034   0.190   4.513   2.104 -0.8303  0.0946  0.1882
 6848TIP3    H142035   0.259   4.563   2.059 -1.4945 -0.1119 -1.1077
 6848TIP3    H242036   0.238   4.450   2.158  0.0068  0.1431 -0.4622
 6849TIP3   OH242037   5.515   5.514   2.206  1.1524  0.0023 -0.0990
 6849TIP3    H142038   5.434   5.559   2.229  1.4686  0.2664  0.5187
 6849TIP3    H242039   5.503   5.425   2.238  0.9619 -0.0635 -0.3458
 6850TIP3   OH242040   6.093   5.733   0.102  0.1186  0.5774 -0.0213
 6850TIP3    H142041   6.061   5.643   0.099  0.5446  0.3130  1.7425
 6850TIP3    H242042   6.148   5.742   0.024 -1.2369 -0.1424 -1.0929
 6851TIP3   OH242043   3.131   6.580  14.076 -0.1019 -0.5626 -0.0033
 6851TIP3    H142044   3.196   6.635  14.120  0.8134 -1.2782 -0.4291
 6851TIP3    H242045   3.047   6.613  14.107  0.4754  0.0281  0.9807
 6852TIP3   OH242046   2.975   2.646  16.370  0.3695 -0.1274 -0.3508
 6852TIP3    H142047   3.042   2.668  16.434 -0.0472  0.9787 -0.2572
 6852TIP3    H242048   2.897   2.629  16.422  0.5046 -1.1456 -0.4715
 6853TIP3   OH242049   5.729   0.777  12.273 -0.1305  0.3362 -0.4378
 6853TIP3    H142050   5.670   0.852  12.263 -0.8324 -0.2312 -0.6125
 6853TIP3    H242051   5.699   0.734  12.353 -0.2629 -0.2333 -0.7933
 6854TIP3   OH242052   0.866   3.713  12.797  0.3977 -0.1724 -0.3169
 6854TIP3    H142053   0.773   3.729  12.814  0.1662 -0.6558 -1.0779
 6854TIP3    H242054   0.904   3.801  12.793 -0.6876  0.2927 -3.4405
 6855TIP3   OH242055   0.236   3.212  15.367 -0.1085  0.0339  0.0121
 6855TIP3    H142056   0.198   3.300  15.365 -1.3323 -0.4822 -0.1706
 6855TIP3    H242057   0.241   3.186  15.275 -2.4034 -1.1612  0.1575
 6856TIP3   OH242058   4.461   1.921  13.498  0.0189 -0.3452  0.1951
 6856TIP3    H142059   4.426   1.854  13.438 -2.0038  0.2037  0.6705
 6856TIP3    H242060   4.453   2.003  13.449 -2.3842  0.2254  1.3683
 6857TIP3   OH242061   3.551   2.578   4.592 -0.6708  0.4535  0.2585
 6857TIP3    H142062   3.627   2.616   4.635 -0.6540 -0.5831  1.1963
 6857TIP3    H242063   3.476   2.621   4.633 -0.6156  0.9336 -0.1351
 6858TIP3   OH242064   6.116   2.511   1.992 -0.4552  0.0643 -0.8875
 6858TIP3    H142065   6.039   2.454   1.996  0.7218 -1.8222 -2.7824
 6858TIP3    H242066   6.167   2.488   2.069 -0.4029 -0.8242 -1.1824
 6859TIP3   OH242067   0.435   2.461   2.726  0.2824 -0.0191  0.0329
 6859TIP3    H142068   0.481   2.383   2.694 -1.0045 -0.3950 -1.0003
 6859TIP3    H242069   0.490   2.534   2.700  1.9532 -0.5704  1.7599
 6860TIP3   OH242070   3.857   2.150   4.657  0.5359 -0.5826 -0.3009
 6860TIP3    H142071   3.823   2.213   4.721  1.1916 -0.0348 -0.4846
 6860TIP3    H242072   3.921   2.098   4.706  0.6325 -0.5303 -0.3724
 6861TIP3   OH242073   1.704   4.916  16.114 -0.1145 -0.1502 -0.2237
 6861TIP3    H142074   1.725   4.860  16.039 -1.2805 -0.3649 -0.3973
 6861TIP3    H242075   1.642   4.981  16.079 -1.8200 -1.1355  0.8682
 6862TIP3   OH242076   4.374   1.419   3.089  0.2586  0.2320 -0.2639
 6862TIP3    H142077   4.318   1.379   3.156 -0.8170  1.3231 -0.4773
 6862TIP3    H242078   4.327   1.498   3.062  2.1402  1.5160 -0.0638
 6863TIP3   OH242079   0.196   4.076   2.895  0.0057 -0.3661 -0.0242
 6863TIP3    H142080   0.146   4.030   2.962 -1.0406 -0.1564 -0.6375
 6863TIP3    H242081   0.187   4.022   2.816  1.4929 -0.7778  0.0642
 6864TIP3   OH242082   2.415   2.838  13.019  0.1335 -0.0990 -0.0715
 6864TIP3    H142083   2.324   2.865  13.006  0.2820  0.2090 -0.4931
 6864TIP3    H242084   2.427   2.841  13.114 -0.7798 -1.7525  0.1459
 6865TIP3   OH242085   2.625   4.168  17.356  0.2318  0.4475 -0.3136
 6865TIP3    H142086   2.690   4.237  17.344  0.0555  0.3734 -1.7566
 6865TIP3    H242087   2.677   4.093  17.387  0.8892  0.3152 -1.6766
 6866TIP3   OH242088   6.391   2.857   2.567 -0.3275 -0.2699 -0.0953
 6866TIP3    H142089   6.335   2.819   2.635  1.1849  1.2497  2.1128
 6866TIP3    H242090   6.455   2.910   2.615  2.4470 -1.1406 -2.5219
 6867TIP3   OH242091   2.157   4.524   2.729 -0.2660  0.2841  0.4350
 6867TIP3    H142092   2.198   4.441   2.707 -1.3181 -0.1600  0.1120
 6867TIP3    H242093   2.081   4.530   2.671 -0.1515  1.5168  0.3841
 6868TIP3   OH242094   4.037   5.734  12.613  0.0057  0.0128  0.5953
 6868TIP3    H142095   4.057   5.827  12.617 -0.7405  0.1685  0.6762
 6868TIP3    H242096   4.043   5.713  12.519  2.0232 -0.2806  0.7445
 6869TIP3   OH242097   2.825   4.094   4.704 -0.0644  0.4197  0.3985
 6869TIP3    H142098   2.883   4.120   4.633 -0.6081 -1.5206 -0.8194
 6869TIP3    H242099   2.863   4.134   4.782  2.2210  0.2019 -0.5352
 6870TIP3   OH242100   2.878   4.199  15.822 -0.0566 -0.4014 -0.4220
 6870TIP3    H142101   2.809   4.170  15.882  0.0940 -1.3157 -0.6853
 6870TIP3    H242102   2.844   4.281  15.786 -0.8190 -0.6186 -0.2293
 6871TIP3   OH242103   4.831   2.583   2.321 -0.4447 -0.1036 -0.5172
 6871TIP3    H142104   4.766   2.584   2.392 -1.6536  3.2727 -1.4966
 6871TIP3    H242105   4.901   2.640   2.351 -0.0530 -0.1745 -1.2688
 6872TIP3   OH242106   3.796   3.236   0.277  0.4532 -0.1864  0.4509
 6872TIP3    H142107   3.728   3.271   0.336  1.4014 -0.7107  1.8892
 6872TIP3    H242108   3.854   3.310   0.261 -1.5420  0.9418 -2.6095
 6873TIP3   OH242109   1.863   5.525  13.624 -0.6485 -0.5303  0.4621
 6873TIP3    H142110   1.836   5.613  13.595 -2.3197 -0.6594  1.5247
 6873TIP3    H242111   1.957   5.534  13.642 -1.0360  1.3904  1.7871
 6874TIP3   OH242112   2.856   4.865   1.323 -0.4928  0.3626  0.1327
 6874TIP3    H142113   2.887   4.907   1.243 -0.5511 -0.4217 -0.3103
 6874TIP3    H242114   2.821   4.781   1.294  0.3071 -0.3264  1.0946
 6875TIP3   OH242115   6.287   6.406  11.971  0.0637  0.0952 -0.0953
 6875TIP3    H142116   6.257   6.369  11.887 -1.4299  0.5547  0.1986
 6875TIP3    H242117   6.320   6.493  11.948 -0.0149  0.0847 -0.2500
 6876TIP3   OH242118   6.544   3.551   3.857  0.5059  0.2990  0.1483
 6876TIP3    H142119   6.628   3.567   3.900  2.0035 -0.0550 -2.4047
 6876TIP3    H242120   6.514   3.468   3.893  3.6093 -2.0023 -2.0330
 6877TIP3   OH242121   5.037   1.392   1.489  0.0584  0.5331 -0.4197
 6877TIP3    H142122   5.096   1.324   1.458 -1.1215 -0.5509 -0.3788
 6877TIP3    H242123   5.007   1.435   1.409  1.0269  1.2262 -0.4293
 6878TIP3   OH242124   1.939   1.150   2.283 -0.4198 -0.1102  0.1892
 6878TIP3    H142125   1.902   1.239   2.282  0.4743  0.3086  1.7238
 6878TIP3    H242126   1.982   1.142   2.198 -2.4226  0.0437 -0.9176
 6879TIP3   OH242127   5.976   2.758   4.946 -0.6148 -0.7515 -0.0585
 6879TIP3    H142128   5.953   2.676   4.989 -0.3588 -0.6249  0.3330
 6879TIP3    H242129   5.993   2.819   5.019  3.0727 -1.3793 -0.2048
 6880TIP3   OH242130   0.272   2.004  13.701  0.5767  0.2591  0.0163
 6880TIP3    H142131   0.313   1.931  13.748  0.9449 -1.4253 -2.6392
 6880TIP3    H242132   0.344   2.065  13.685  0.5838  0.5247  1.0585
 6881TIP3   OH242133   4.390   0.719   4.102 -0.3722  0.2268  0.8188
 6881TIP3    H142134   4.340   0.670   4.037 -3.1452  1.3074  1.9977
 6881TIP3    H242135   4.436   0.651   4.152  1.2788 -0.6721 -1.6619
 6882TIP3   OH242136   3.360   2.186   7.022 -0.3880  0.1184  0.3417
 6882TIP3    H142137   3.425   2.250   6.991  1.3795 -0.7842  2.0190
 6882TIP3    H242138   3.342   2.211   7.112 -2.1193  0.1011  0.0362
 6883TIP3   OH242139   2.757   3.763  15.392  0.5239  0.7865 -0.6339
 6883TIP3    H142140   2.812   3.823  15.344  0.5361  0.1553 -1.4295
 6883TIP3    H242141   2.689   3.737  15.330 -0.7491  1.6206  0.3461
 6884TIP3   OH242142   2.524   1.438   2.333 -0.1666 -0.4722 -0.0610
 6884TIP3    H142143   2.601   1.383   2.348  0.0940 -0.3607 -0.9808
 6884TIP3    H242144   2.482   1.400   2.256 -1.3174 -0.8321  0.7250
 6885TIP3   OH242145   6.766   3.426   0.831  0.3707  0.3238 -0.3821
 6885TIP3    H142146   6.683   3.473   0.823  1.3100  2.0266 -0.6220
 6885TIP3    H242147   6.747   3.352   0.888 -0.9408  1.5697  0.8577
 6886TIP3   OH242148   2.421   3.842   0.282 -0.1341 -0.0099  0.2191
 6886TIP3    H142149   2.401   3.811   0.370 -0.2617 -0.5465  0.0063
 6886TIP3    H242150   2.516   3.857   0.282 -0.0676 -0.4282  0.3188
 6887TIP3   OH242151   0.053   0.079   6.083  0.1511 -0.5081 -0.5131
 6887TIP3    H142152   0.022   0.161   6.122 -1.5564 -0.9912 -0.7657
 6887TIP3    H242153   0.131   0.056   6.133  0.6117  1.2133 -0.3870
 6888TIP3   OH242154   5.132   3.424  11.524  0.1692 -0.1517  0.4460
 6888TIP3    H142155   5.056   3.439  11.468 -0.1052 -1.0077  0.5639
 6888TIP3    H242156   5.100   3.444  11.613  0.2989  0.2019  0.4132
 6889TIP3   OH242157   5.726   0.283   3.151  0.2870  0.2733 -0.0396
 6889TIP3    H142158   5.767   0.257   3.069 -1.5451 -0.6308 -0.7207
 6889TIP3    H242159   5.757   0.373   3.167  0.0930  0.7474 -2.1134
 6890TIP3   OH242160   5.649   1.034   1.886 -0.0157 -0.1729  0.8283
 6890TIP3    H142161   5.648   0.939   1.886 -0.4873 -0.1710  0.7754
 6890TIP3    H242162   5.696   1.058   1.806  0.5701 -0.3599  1.1120
 6891TIP3   OH242163   3.445   3.685  12.372 -0.4168  0.0963  0.0850
 6891TIP3    H142164   3.423   3.671  12.464  2.8661 -0.5677  0.8957
 6891TIP3    H242165   3.444   3.780  12.361 -1.1125  0.1691  0.6818
 6892TIP3   OH242166   6.736   6.534   1.514  0.0484 -0.3705  0.0402
 6892TIP3    H142167   6.815   6.587   1.503 -0.5859  0.1063 -2.9153
 6892TIP3    H242168   6.665   6.589   1.480 -1.1834 -1.7483  0.2739
 6893TIP3   OH242169   0.819   0.966   4.947  0.1862  0.5382 -0.1465
 6893TIP3    H142170   0.830   0.976   5.041  0.3627 -0.0700 -0.1021
 6893TIP3    H242171   0.840   0.875   4.929 -0.4065  0.4983 -0.6950
 6894TIP3   OH242172   3.648   1.013   2.161  0.0010 -0.2681  0.5443
 6894TIP3    H142173   3.583   0.943   2.158 -0.0161 -0.2684  0.8998
 6894TIP3    H242174   3.685   1.007   2.249 -1.1856  1.2382  1.1911
 6895TIP3   OH242175   3.366   4.392  14.098  0.3412  0.4880  0.6035
 6895TIP3    H142176   3.395   4.304  14.123 -0.3006  0.1360  0.1536
 6895TIP3    H242177   3.271   4.384  14.092  0.2944  1.1746  0.3818
 6896TIP3   OH242178   1.117   0.111   3.545 -0.2310 -0.5514  0.2448
 6896TIP3    H142179   1.094   0.173   3.476  1.0829 -1.3238 -0.9354
 6896TIP3    H242180   1.151   0.166   3.616 -0.9722  0.2036  0.0364
 6897TIP3   OH242181   3.114   6.267   6.381 -0.2815  0.2911 -0.2623
 6897TIP3    H142182   3.162   6.226   6.453 -1.1060 -0.1289  0.0649
 6897TIP3    H242183   3.148   6.356   6.377 -1.1354  0.7674  1.5545
 6898TIP3   OH242184   2.079   5.189  10.696 -0.2066 -0.3527 -0.7582
 6898TIP3    H142185   2.135   5.137  10.755  2.1096  0.1738 -2.3309
 6898TIP3    H242186   2.026   5.123  10.650 -0.8455 -0.8915  0.7027
 6899TIP3   OH242187   3.004   2.907   0.071 -0.3596  0.3352 -0.0943
 6899TIP3    H142188   2.920   2.938   0.037 -0.9139 -0.4591  0.4988
 6899TIP3    H242189   3.065   2.916  -0.003 -1.1171  0.3100 -0.7343
 6900TIP3   OH242190   0.577   0.102  15.888  0.7160  0.1250  0.3071
 6900TIP3    H142191   0.632   0.138  15.818  2.0137 -0.6521  0.8863
 6900TIP3    H242192   0.613   0.015  15.903 -1.0088 -0.6158  0.3857
 6901TIP3   OH242193   0.894   3.387  11.795 -0.7421 -0.2988 -0.0899
 6901TIP3    H142194   0.813   3.340  11.774 -1.0964  1.0936 -2.2189
 6901TIP3    H242195   0.865   3.469  11.835 -0.3313 -0.2164  0.0483
 6902TIP3   OH242196   2.886   2.688   1.932 -0.1296 -0.1206 -0.4864
 6902TIP3    H142197   2.931   2.666   2.013  0.5571  0.8805 -0.5683
 6902TIP3    H242198   2.823   2.756   1.957 -0.6040 -0.5010 -0.6278
 6903TIP3   OH242199   0.553   6.382   0.618  0.0430  0.1056 -0.0691
 6903TIP3    H142200   0.541   6.320   0.545 -1.7910 -1.0185  1.0975
 6903TIP3    H242201   0.599   6.331   0.685  0.8506  0.8327 -0.0613
 6904TIP3   OH242202   4.363   2.642  14.772  0.0616  0.4173 -0.5904
 6904TIP3    H142203   4.329   2.644  14.683  1.1654  1.3046 -1.0097
 6904TIP3    H242204   4.286   2.630  14.827 -0.5430 -1.1908 -1.6982
 6905TIP3   OH242205   5.994   1.642   2.028  0.3398  0.1416 -0.2719
 6905TIP3    H142206   6.021   1.564   1.980 -1.2390 -0.1270 -0.7535
 6905TIP3    H242207   6.042   1.714   1.985  1.6285 -0.4973  0.0387
 6906TIP3   OH242208   2.763   2.462  15.402 -0.1878 -0.0872  0.5898
 6906TIP3    H142209   2.847   2.508  15.407  0.7064 -1.4820 -0.5745
 6906TIP3    H242210   2.697   2.529  15.416  1.1285  1.0187  1.7090
 6907TIP3   OH242211   6.511   5.107   3.776 -0.0522 -0.1643  0.2892
 6907TIP3    H142212   6.531   5.191   3.816 -0.8384 -0.3368  1.0812
 6907TIP3    H242213   6.497   5.048   3.850  1.0358 -1.1439 -0.2523
 6908TIP3   OH242214   1.030   4.867  13.162 -0.8160 -0.1396 -0.5110
 6908TIP3    H142215   1.124   4.878  13.174 -0.9630  0.0158  0.7084
 6908TIP3    H242216   0.995   4.956  13.163 -0.9622 -0.1874 -1.1386
 6909TIP3   OH242217   2.610   3.289  16.932 -0.5301  0.3252 -0.2128
 6909TIP3    H142218   2.567   3.284  17.018  0.5406 -0.2692  0.3080
 6909TIP3    H242219   2.660   3.371  16.935  0.6629 -0.3951  0.3124
 6910TIP3   OH242220   0.116   5.831   1.812  0.2295  0.3031  0.0707
 6910TIP3    H142221   0.122   5.739   1.836  2.8811 -0.0938 -1.6551
 6910TIP3    H242222   0.135   5.833   1.719 -3.1386  2.3586 -0.7332
 6911TIP3   OH242223   5.978   4.044  13.673 -0.0693  0.2193 -0.2019
 6911TIP3    H142224   5.989   4.062  13.766 -1.3754 -0.2464  0.0546
 6911TIP3    H242225   5.928   4.118  13.640 -1.4218 -0.5991 -0.0825
 6912TIP3   OH242226   3.939   2.652   2.136  0.1160 -0.4041  0.1244
 6912TIP3    H142227   3.967   2.566   2.168  3.2445 -0.0482 -1.2736
 6912TIP3    H242228   3.922   2.703   2.215  1.4359 -1.3774  1.0730
 6913TIP3   OH242229   5.679   6.435   0.304 -0.2947  0.3522 -0.0220
 6913TIP3    H142230   5.698   6.525   0.277  0.3800  0.2167 -0.0133
 6913TIP3    H242231   5.764   6.397   0.325 -0.3829 -0.7617 -1.4688
 6914TIP3   OH242232   1.121   4.481  10.539 -0.0030 -0.0558  1.2876
 6914TIP3    H142233   1.039   4.440  10.511 -0.4274 -0.4724  3.0327
 6914TIP3    H242234   1.189   4.434  10.490 -0.8214  1.1501 -1.1627
 6915TIP3   OH242235   3.333   3.863   4.053  0.0866 -0.1456 -0.2660
 6915TIP3    H142236   3.241   3.887   4.038  0.0832 -1.1859 -2.2761
 6915TIP3    H242237   3.330   3.773   4.083  0.4138  0.2443  0.9901
 6916TIP3   OH242238   6.399   3.389   1.608  0.1371 -0.5549  0.0953
 6916TIP3    H142239   6.409   3.365   1.701 -0.0646  0.4753  0.3965
 6916TIP3    H242240   6.487   3.419   1.583 -0.2927  1.2413  0.5907
 6917TIP3   OH242241   3.538   3.873  11.986 -0.3484 -0.1301  0.6048
 6917TIP3    H142242   3.593   3.833  12.054  0.2366 -0.6695 -0.1767
 6917TIP3    H242243   3.527   3.805  11.920 -2.6834 -0.3344  1.1160
 6918TIP3   OH242244   2.486   0.609  13.890  0.2850  0.4512 -0.2097
 6918TIP3    H142245   2.462   0.550  13.961  0.9931  1.2477  0.7195
 6918TIP3    H242246   2.579   0.592  13.875  0.5278  1.4042  0.1544
 6919TIP3   OH242247   2.823   0.773   1.601  0.3265 -0.2887 -0.4971
 6919TIP3    H142248   2.794   0.818   1.681  0.3033 -0.6436 -0.3079
 6919TIP3    H242249   2.885   0.707   1.631 -1.1618 -1.7798 -0.5481
 6920TIP3   OH242250   6.035   5.278  11.871  0.0280 -0.1768 -0.4755
 6920TIP3    H142251   6.122   5.298  11.906  0.8243 -0.7486 -2.0459
 6920TIP3    H242252   5.978   5.346  11.906  0.7269 -0.7616  1.9837
 6921TIP3   OH242253   0.080   2.106   0.235  0.3129 -0.3475  0.0005
 6921TIP3    H142254   0.053   2.014   0.239 -1.2999 -0.2043 -3.7318
 6921TIP3    H242255   0.176   2.102   0.228  0.4999 -1.5190  2.3300
 6922TIP3   OH242256   0.902   3.510   1.231  0.0334  0.0254  0.4952
 6922TIP3    H142257   0.861   3.577   1.286 -0.3958 -0.3526  0.6406
 6922TIP3    H242258   0.905   3.548   1.144 -0.2483  0.2160  0.5692
 6923TIP3   OH242259   5.904   0.903  16.027 -0.5669  0.0798  0.1308
 6923TIP3    H142260   5.858   0.876  16.107 -1.6602  0.6907 -0.2817
 6923TIP3    H242261   5.837   0.902  15.959  0.3872 -0.5914 -0.8364
 6924TIP3   OH242262   0.025   6.228  13.918  0.2168  0.3507  0.4659
 6924TIP3    H142263  -0.032   6.294  13.959  1.5108  2.2899 -0.6907
 6924TIP3    H242264  -0.034   6.178  13.862 -0.6675  1.1698  0.6294
 6925TIP3   OH242265   1.847   1.440   3.344 -0.3007  0.4888  0.2650
 6925TIP3    H142266   1.916   1.461   3.281 -0.5689  1.4876  0.2811
 6925TIP3    H242267   1.775   1.407   3.291 -0.5538  1.3963  0.0134
 6926TIP3   OH242268   0.689   3.098   1.134 -0.4549  1.0230 -0.1345
 6926TIP3    H142269   0.619   3.142   1.181  0.9785  1.7047  1.4692
 6926TIP3    H242270   0.769   3.140   1.165  0.6614  0.7198 -2.3648
 6927TIP3   OH242271   6.366   4.632   5.823  0.2666 -0.0522  0.0793
 6927TIP3    H142272   6.358   4.539   5.843  0.8274  0.1769  1.4926
 6927TIP3    H242273   6.369   4.675   5.909 -2.2068  1.4885 -0.4764
 6928TIP3   OH242274   6.382   2.525   5.854 -0.7827  0.3350 -0.0069
 6928TIP3    H142275   6.443   2.572   5.910 -0.9887  1.3530 -0.6012
 6928TIP3    H242276   6.360   2.588   5.785 -1.0903 -0.6368 -0.8197
 6929TIP3   OH242277   6.589   6.412   0.527 -0.0906  0.5431  0.1102
 6929TIP3    H142278   6.582   6.459   0.610 -1.1218 -1.8442  1.4809
 6929TIP3    H242279   6.509   6.434   0.480  0.4176  1.7747 -0.2132
 6930TIP3   OH242280   4.855   5.284   2.888  0.4886 -0.1632 -0.6699
 6930TIP3    H142281   4.823   5.197   2.914  2.2733 -1.2554 -1.8648
 6930TIP3    H242282   4.927   5.302   2.949 -0.4593  0.9453  0.1681
 6931TIP3   OH242283   5.084   6.476  11.587  0.0020  0.4973  0.0692
 6931TIP3    H142284   5.133   6.395  11.580 -0.0766  0.5627 -1.5445
 6931TIP3    H242285   5.150   6.545  11.586 -0.0572  0.5912 -2.2224
 6932TIP3   OH242286   5.960   4.515   3.558  0.3888 -0.3841  1.2050
 6932TIP3    H142287   5.923   4.595   3.594  1.0726  0.1632  0.7065
 6932TIP3    H242288   5.978   4.460   3.635  0.8240  0.3270  1.6171
 6933TIP3   OH242289   6.282   0.160   1.075  0.1590  0.1461 -0.3660
 6933TIP3    H142290   6.273   0.228   1.142  2.2027 -1.3438  1.5911
 6933TIP3    H242291   6.192   0.131   1.059 -0.4242 -0.0089  2.4919
 6934TIP3   OH242292   3.365   2.131  14.897 -0.5420 -0.0983 -0.0657
 6934TIP3    H142293   3.390   2.073  14.968 -1.4428 -0.2905  0.1114
 6934TIP3    H242294   3.436   2.194  14.891 -0.9348  0.5858  1.7411
 6935TIP3   OH242295   2.960   6.384  11.616 -0.5819 -0.0191  0.1271
 6935TIP3    H142296   2.872   6.409  11.644 -0.7326 -0.1057 -0.2688
 6935TIP3    H242297   3.011   6.380  11.697 -0.9587 -0.0337  0.3623
 6936TIP3   OH242298   6.225   3.872  14.254 -0.2528  0.2735  0.0207
 6936TIP3    H142299   6.265   3.866  14.167  0.8545 -0.6892  0.5645
 6936TIP3    H242300   6.294   3.910  14.309 -0.4509 -0.4307  0.7689
 6937TIP3   OH242301   2.718   3.778  15.705 -0.3310 -0.0220 -0.4208
 6937TIP3    H142302   2.732   3.734  15.622  0.9098 -0.4927  0.0121
 6937TIP3    H242303   2.704   3.708  15.768  0.1369  0.2672  0.0112
 6938TIP3   OH242304   3.404   1.753  13.198 -0.0100  0.2778  0.0658
 6938TIP3    H142305   3.409   1.710  13.283 -1.2355 -0.0261  0.0007
 6938TIP3    H242306   3.354   1.692  13.143 -0.6964  1.2198 -0.3819
 6939TIP3   OH242307   5.199   2.982  14.862 -0.2963 -0.5322 -0.1120
 6939TIP3    H142308   5.269   3.022  14.811 -0.0064 -0.9295 -0.0383
 6939TIP3    H242309   5.213   2.888  14.851 -1.5319 -0.6287 -1.0771
 6940TIP3   OH242310   5.774   4.280  11.846  0.4602 -0.1520 -0.2167
 6940TIP3    H142311   5.751   4.266  11.754 -0.6259 -2.5464  0.3219
 6940TIP3    H242312   5.766   4.374  11.859 -1.5018  0.0148 -2.0549
 6941TIP3   OH242313   3.187   0.487   4.628  0.0267 -0.1611  0.9136
 6941TIP3    H142314   3.095   0.496   4.606  0.4413 -0.3771 -1.0568
 6941TIP3    H242315   3.196   0.533   4.711 -1.4424  1.7677  0.0747
 6942TIP3   OH242316   5.005   4.536  14.146  0.3641 -0.3021  0.2184
 6942TIP3    H142317   4.923   4.552  14.193  0.9471 -1.2334  1.6547
 6942TIP3    H242318   5.073   4.556  14.210  1.2404 -0.2657 -0.7074
 6943TIP3   OH242319   6.434   4.748  11.870 -0.2424 -0.3354  0.2767
 6943TIP3    H142320   6.519   4.783  11.845 -0.9212 -0.1622 -2.0032
 6943TIP3    H242321   6.440   4.654  11.851 -0.9323 -0.1203 -1.1291
 6944TIP3   OH242322   0.799   0.602  13.469  0.6977  0.2608 -0.4922
 6944TIP3    H142323   0.744   0.630  13.395 -0.2209  0.8122  0.3681
 6944TIP3    H242324   0.770   0.513  13.487 -0.3767  0.7537  0.3359
 6945TIP3   OH242325   3.450   0.117   2.537  0.6780 -0.0538 -0.3041
 6945TIP3    H142326   3.491   0.044   2.584 -0.1090 -0.3701 -0.0809
 6945TIP3    H242327   3.453   0.190   2.599 -0.5687 -0.5338  0.3676
 6946TIP3   OH242328   3.433   5.613  14.437 -0.3210 -0.0983 -0.3085
 6946TIP3    H142329   3.522   5.649  14.429 -1.1198  2.0609 -0.0451
 6946TIP3    H242330   3.446   5.529  14.482  1.4606  0.9287  1.2832
 6947TIP3   OH242331   3.149   4.298   4.786  0.1207  0.4008  0.2941
 6947TIP3    H142332   3.219   4.232   4.796 -2.4251 -2.4349  0.8197
 6947TIP3    H242333   3.103   4.297   4.870 -1.5166  1.0138 -0.5653
 6948TIP3   OH242334   4.942   3.547   4.249 -0.4923  0.1449 -0.0743
 6948TIP3    H142335   4.906   3.627   4.212 -0.1189  1.3772  2.0551
 6948TIP3    H242336   4.977   3.499   4.174 -3.9489  0.1601 -1.9104
 6949TIP3   OH242337   4.494   3.701  12.848  0.1712 -0.2367 -0.8275
 6949TIP3    H142338   4.586   3.716  12.823 -0.1703  1.7215 -1.0381
 6949TIP3    H242339   4.446   3.711  12.766 -0.3578  0.1650 -0.4712
 6950TIP3   OH242340   0.817   0.054  15.104  0.3036  0.1591 -0.4795
 6950TIP3    H142341   0.831   0.061  15.009  1.8171 -0.0147 -0.2895
 6950TIP3    H242342   0.884   0.110  15.142  1.1168 -1.4495  0.5448
 6951TIP3   OH242343   6.324   1.515   2.889  0.1596  0.0473 -0.2336
 6951TIP3    H142344   6.390   1.505   2.820  2.9259  0.0855  2.2085
 6951TIP3    H242345   6.279   1.430   2.892  1.3307 -0.6173 -0.8039
 6952TIP3   OH242346   2.343   0.757  13.090  0.0868 -0.5627  0.2287
 6952TIP3    H142347   2.419   0.809  13.063  0.8700 -1.7218  0.1506
 6952TIP3    H242348   2.351   0.675  13.041 -1.9170 -0.2241 -0.7492
 6953TIP3   OH242349   4.315   5.293   3.698  0.3493 -0.0409 -0.0147
 6953TIP3    H142350   4.346   5.230   3.633  0.0913  0.6776 -0.8668
 6953TIP3    H242351   4.391   5.348   3.716 -0.0420  0.8968 -1.1073
 6954TIP3   OH242352   6.512   6.764  15.976 -0.2826  0.0589  0.3442
 6954TIP3    H142353   6.585   6.825  15.965 -0.2636  0.4224  2.2501
 6954TIP3    H242354   6.434   6.816  15.963 -0.2441  0.1539  0.4996
 6955TIP3   OH242355   5.896   5.591   6.036 -0.1188 -0.9054 -0.0275
 6955TIP3    H142356   5.891   5.564   5.945 -1.5108 -0.0397 -0.2508
 6955TIP3    H242357   5.860   5.680   6.036  0.2832 -0.7228  1.2960
 6956TIP3   OH242358   5.686   3.886  12.124  0.5637  0.3612 -0.2016
 6956TIP3    H142359   5.745   3.816  12.098 -0.4603 -0.5466 -0.1291
 6956TIP3    H242360   5.729   3.966  12.093  2.4878 -0.1234  1.0275
 6957TIP3   OH242361   1.364   6.512  14.961 -0.0637  0.6863  0.6065
 6957TIP3    H142362   1.277   6.471  14.959 -0.2040  1.0005  0.1491
 6957TIP3    H242363   1.421   6.449  14.916  0.1009  0.1366  1.5650
 6958TIP3   OH242364   6.663   5.566   3.196  0.0934  0.2444  0.0616
 6958TIP3    H142365   6.651   5.608   3.112  3.7734  2.1911  0.2779
 6958TIP3    H242366   6.719   5.491   3.178 -1.2437 -0.9004  0.5028
 6959TIP3   OH242367   2.744   0.639  16.182 -0.4240  0.7642  0.6992
 6959TIP3    H142368   2.726   0.730  16.205 -1.6903  0.5656  0.5797
 6959TIP3    H242369   2.664   0.592  16.206 -0.5786  0.0209 -1.0771
 6960TIP3   OH242370   4.702   5.277  13.033 -0.8845  0.1907  0.8658
 6960TIP3    H142371   4.615   5.248  13.005 -1.4470  2.0403  0.6044
 6960TIP3    H242372   4.702   5.263  13.128 -0.8320 -1.3354  0.6789
 6961TIP3   OH242373   0.046   5.257  16.014 -0.3138  0.2103  0.6563
 6961TIP3    H142374   0.062   5.350  15.996  0.0739 -0.0189 -0.2171
 6961TIP3    H242375   0.133   5.218  16.016 -0.5228 -0.2825  0.2235
 6962TIP3   OH242376   1.027   0.239  13.672 -0.5543 -0.4244  0.2677
 6962TIP3    H142377   1.003   0.325  13.706 -0.2064 -0.2057 -0.0326
 6962TIP3    H242378   1.108   0.254  13.623 -2.1013 -0.3410 -2.4334
 6963TIP3   OH242379   2.642   4.015   3.401  0.2256 -0.5696  0.0575
 6963TIP3    H142380   2.659   3.921   3.399 -0.2032 -0.6362 -0.6905
 6963TIP3    H242381   2.588   4.032   3.324  0.8994  0.4148 -0.2201
 6964TIP3   OH242382   2.569   2.379  16.396 -0.1773  0.0191  0.7025
 6964TIP3    H142383   2.634   2.327  16.347 -0.6994 -1.6665  1.6995
 6964TIP3    H242384   2.489   2.369  16.345 -0.2871 -0.2224  0.9166
 6965TIP3   OH242385   0.451   5.264  15.530  0.0975  0.4436 -0.6626
 6965TIP3    H142386   0.414   5.352  15.528 -1.1640 -0.0469  0.1013
 6965TIP3    H242387   0.517   5.268  15.599 -2.1955  0.0076  1.7180
 6966TIP3   OH242388   0.677   5.382  16.688 -0.1054  0.5918  0.2676
 6966TIP3    H142389   0.762   5.421  16.706  0.3830 -0.4431  0.3162
 6966TIP3    H242390   0.697   5.291  16.665 -1.2380  0.1575  0.8877
 6967TIP3   OH242391   1.758   0.275   6.063  0.2801  0.2476  0.3580
 6967TIP3    H142392   1.721   0.326   5.990 -0.3599  0.6951  0.9871
 6967TIP3    H242393   1.814   0.337   6.109 -0.8149  0.5114  1.3620
 6968TIP3   OH242394   0.773   0.272   4.105  0.2576  0.3247 -0.0030
 6968TIP3    H142395   0.815   0.356   4.127  0.0931  0.4891 -0.3084
 6968TIP3    H242396   0.685   0.280   4.143  0.0901  0.4713 -0.4171
 6969TIP3   OH242397   2.798   1.434  13.148 -0.5181  0.1737  0.6675
 6969TIP3    H142398   2.799   1.429  13.244 -0.7714  0.9247  0.7204
 6969TIP3    H242399   2.849   1.358  13.119 -0.2753  0.0465  1.4016
 6970TIP3   OH242400   0.440   1.591  11.852  0.4616  0.2563 -0.2613
 6970TIP3    H142401   0.362   1.555  11.894  0.1403 -1.2469 -2.0226
 6970TIP3    H242402   0.410   1.615  11.764  1.4014  2.1479 -0.1186
 6971TIP3   OH242403   6.420   1.549  11.919 -0.3203 -0.2588  0.0698
 6971TIP3    H142404   6.343   1.584  11.964 -0.3616  0.8212 -0.8004
 6971TIP3    H242405   6.495   1.590  11.962 -0.0947 -2.3747  1.8574
 6972TIP3   OH242406   6.583   5.879   1.719 -0.3200 -0.4188  0.4275
 6972TIP3    H142407   6.667   5.917   1.747  0.0446 -2.0462  1.6565
 6972TIP3    H242408   6.545   5.843   1.799 -1.2792 -1.4284 -0.4541
 6973TIP3   OH242409   3.863   5.340   1.490 -0.0932 -0.1732 -0.2024
 6973TIP3    H142410   3.803   5.407   1.522 -0.9969 -0.5424 -1.0998
 6973TIP3    H242411   3.880   5.363   1.399  0.4082 -0.5934 -0.2257
 6974TIP3   OH242412   2.991   0.804  14.339 -0.0327  0.0171  0.1373
 6974TIP3    H142413   2.934   0.844  14.405  1.1413 -0.4162  1.4473
 6974TIP3    H242414   3.044   0.877  14.306 -1.5427  0.5059 -1.3862
 6975TIP3   OH242415   1.196   2.877   5.184 -0.5368  0.5715 -0.9267
 6975TIP3    H142416   1.208   2.907   5.273 -1.2366  0.8248 -0.9109
 6975TIP3    H242417   1.281   2.889   5.142  0.2797 -1.1130  0.1546
 6976TIP3   OH242418   4.052   0.751   0.170 -0.3949 -0.2113 -0.0413
 6976TIP3    H142419   4.064   0.676   0.228 -0.7880  0.1245  0.4829
 6976TIP3    H242420   4.139   0.771   0.138 -0.4224 -1.6224 -1.1169
 6977TIP3   OH242421   0.128   3.940  15.379 -0.0746  0.2830 -0.2824
 6977TIP3    H142422   0.034   3.924  15.376  0.0422 -0.4242 -2.4557
 6977TIP3    H242423   0.163   3.889  15.306  2.1031 -0.0370  0.9050
 6978TIP3   OH242424   5.738   2.135   0.718 -0.1441  0.7896  0.0660
 6978TIP3    H142425   5.797   2.202   0.753 -0.0472  0.5570  0.3503
 6978TIP3    H242426   5.657   2.181   0.699 -0.3251  0.8476  0.9516
 6979TIP3   OH242427   0.498   5.141  14.197 -0.1393 -0.6555 -0.2714
 6979TIP3    H142428   0.454   5.219  14.232  0.8671 -0.7784  1.3486
 6979TIP3    H242429   0.572   5.176  14.146 -0.2661 -0.5304 -0.3700
 6980TIP3   OH242430   4.805   5.654  16.254  0.1902 -0.5279 -0.5279
 6980TIP3    H142431   4.778   5.650  16.162 -1.1528  0.8360 -0.2510
 6980TIP3    H242432   4.765   5.736  16.287 -1.2414 -2.0325  1.8125
 6981TIP3   OH242433   3.740   4.162   6.258 -0.0169 -0.1201  0.1221
 6981TIP3    H142434   3.666   4.107   6.283 -0.1288  0.3105  0.7818
 6981TIP3    H242435   3.729   4.242   6.311  1.5648 -0.5423  1.1488
 6982TIP3   OH242436   3.193   6.200   3.932 -0.6354  0.0830 -0.0118
 6982TIP3    H142437   3.283   6.233   3.940 -1.0006  1.4129 -0.9958
 6982TIP3    H242438   3.162   6.193   4.022 -0.2536  1.7466  0.2864
 6983TIP3   OH242439   1.764   5.624  17.510  0.3611 -0.3398 -0.0923
 6983TIP3    H142440   1.755   5.703  17.563  1.1028  0.2211 -0.7783
 6983TIP3    H242441   1.812   5.563  17.566 -1.5747 -0.9163  1.0421
 6984TIP3   OH242442   5.155   2.825  11.743  0.2318 -0.2640 -0.0534
 6984TIP3    H142443   5.177   2.892  11.808 -0.3698  0.7960 -0.9141
 6984TIP3    H242444   5.240   2.788  11.718  0.4342 -1.1376  1.7565
 6985TIP3   OH242445   5.717   3.169  11.108 -0.2808  0.8780  0.7151
 6985TIP3    H142446   5.719   3.178  11.203  1.3345  1.4046  0.6545
 6985TIP3    H242447   5.803   3.132  11.085 -1.6010 -1.8303 -0.3087
 6986TIP3   OH242448   0.055   6.552  16.298 -0.0344 -0.3392 -0.1590
 6986TIP3    H142449   0.015   6.537  16.384  0.5885 -3.1338 -0.2486
 6986TIP3    H242450   0.024   6.479  16.244 -1.4480  2.0154 -2.7937
 6987TIP3   OH242451   3.063   3.555   3.925 -0.2585  0.2113 -0.5074
 6987TIP3    H142452   3.139   3.503   3.900  0.7927  1.2045  0.4535
 6987TIP3    H242453   2.988   3.504   3.896  0.7091 -1.7950  0.3115
 6988TIP3   OH242454   5.588   5.773   0.231 -1.1462  0.1363  0.5548
 6988TIP3    H142455   5.637   5.844   0.190 -0.2656 -1.1725 -0.7571
 6988TIP3    H242456   5.649   5.736   0.295 -1.3917  0.1813  0.8155
 6989TIP3   OH242457   0.613   2.882   1.719  0.0480  0.3506  0.1784
 6989TIP3    H142458   0.588   2.802   1.672  0.1567  1.4419 -1.8122
 6989TIP3    H242459   0.707   2.872   1.733 -0.2152 -0.6136  1.4931
 6990TIP3   OH242460   2.343   2.346   1.510  0.4133  0.5326  0.3315
 6990TIP3    H142461   2.431   2.307   1.507  0.4720  0.5725  1.4133
 6990TIP3    H242462   2.303   2.309   1.589  0.0777  1.8457  0.7881
 6991TIP3   OH242463   2.976   2.257   2.822 -0.3680  0.1253  0.4921
 6991TIP3    H142464   3.000   2.301   2.740 -2.8252 -1.9093 -1.5025
 6991TIP3    H242465   3.046   2.193   2.836  0.1763  0.6201  0.0940
 6992TIP3   OH242466   0.678   2.493   5.923 -0.5333 -0.6464 -0.4074
 6992TIP3    H142467   0.614   2.428   5.952 -1.0683 -0.8521 -1.9859
 6992TIP3    H242468   0.762   2.459   5.955 -1.1212 -0.6383  1.2311
 6993TIP3   OH242469   0.236   0.162  12.129  0.6013 -0.4919 -0.6215
 6993TIP3    H142470   0.170   0.096  12.107  0.0341  0.0400 -0.5558
 6993TIP3    H242471   0.315   0.133  12.084 -0.0168 -0.4675 -1.7648
 6994TIP3   OH242472   5.959   3.635  11.467  0.5162 -0.1894 -0.1060
 6994TIP3    H142473   5.958   3.722  11.427 -3.0603 -0.4051 -0.7757
 6994TIP3    H242474   5.907   3.644  11.547  2.3459 -1.1981  1.2959
 6995TIP3   OH242475   0.249   0.236   5.635  0.0136  0.0909 -0.6223
 6995TIP3    H142476   0.267   0.212   5.544 -1.4839  1.7164 -1.4083
 6995TIP3    H242477   0.309   0.182   5.687  0.3747 -1.4342 -2.5160
 6996TIP3   OH242478   3.762   2.435  12.789  0.2574 -0.6321  0.6999
 6996TIP3    H142479   3.670   2.433  12.761 -0.6860  0.9988  3.3148
 6996TIP3    H242480   3.784   2.528  12.792  1.8980 -0.9888  0.4651
 6997TIP3   OH242481   1.985   0.837   5.432 -0.2813 -0.4997  0.0884
 6997TIP3    H142482   2.054   0.901   5.417 -0.9491  0.2074 -0.0160
 6997TIP3    H242483   1.985   0.782   5.353  1.0486 -1.3654  0.6611
 6998TIP3   OH242484   6.651   2.310  12.844 -0.1207 -0.2469 -0.5703
 6998TIP3    H142485   6.657   2.304  12.940  1.4340  1.4133 -0.5267
 6998TIP3    H242486   6.728   2.360  12.818 -1.4625  0.9398 -2.5270
 6999TIP3   OH242487   1.732   5.176   1.100 -0.1790 -0.4722 -0.2343
 6999TIP3    H142488   1.643   5.154   1.126  0.1137  1.4652  3.0852
 6999TIP3    H242489   1.734   5.272   1.100  2.0675 -0.4543  0.6924
 7000TIP3   OH242490   6.201   2.491  12.246 -0.9729  0.0838 -0.1087
 7000TIP3    H142491   6.195   2.585  12.229 -1.1385  0.3294  1.1685
 7000TIP3    H242492   6.149   2.450  12.178 -0.6397  0.8968 -0.8635
 7001TIP3   OH242493   4.786   3.726   1.812  0.3169  0.1214 -0.1999
 7001TIP3    H142494   4.841   3.649   1.823 -0.0214  0.0332  1.0651
 7001TIP3    H242495   4.748   3.741   1.899 -2.6060 -0.5326 -1.2460
 7002TIP3   OH242496   1.313   6.705   0.520  0.2731 -0.0598  0.0717
 7002TIP3    H142497   1.337   6.638   0.583  0.7792  0.9883  1.0421
 7002TIP3    H242498   1.228   6.678   0.486  1.1796 -2.0023 -0.7718
 7003TIP3   OH242499   1.394   5.940  16.229  0.2433  0.6188  0.3088
 7003TIP3    H142500   1.453   5.879  16.185  0.3188  1.6005 -1.0058
 7003TIP3    H242501   1.381   5.902  16.316 -1.9028 -2.7877 -1.2484
 7004TIP3   OH242502   2.989   4.583   4.893  0.1345  0.1524 -0.3198
 7004TIP3    H142503   2.940   4.539   4.823 -1.0646 -0.0818  0.6221
 7004TIP3    H242504   3.042   4.514   4.932  0.6758  0.2476 -0.8716
 7005TIP3   OH242505   2.172   6.548   2.265  0.2611  0.7215 -0.2666
 7005TIP3    H142506   2.250   6.592   2.296  0.8610 -0.4491 -0.0473
 7005TIP3    H242507   2.194   6.454   2.269 -0.9890  0.3919 -0.6154
 7006TIP3   OH242508   1.299   3.733  16.458 -0.1739 -0.0382 -0.5046
 7006TIP3    H142509   1.387   3.732  16.421 -0.4583 -0.0664 -1.2088
 7006TIP3    H242510   1.311   3.762  16.548  0.6238 -0.6506 -0.4001
 7007TIP3   OH242511   4.744   1.576  16.181 -0.1015  0.0006 -0.0140
 7007TIP3    H142512   4.743   1.640  16.252  3.0543 -1.5722  1.6807
 7007TIP3    H242513   4.652   1.551  16.169 -0.9031  1.3960  2.4984
 7008TIP3   OH242514   0.390   2.126   1.354 -0.5714 -0.1495  0.1851
 7008TIP3    H142515   0.404   2.072   1.433  3.5426  2.7527  1.8216
 7008TIP3    H242516   0.304   2.166   1.367 -0.9906 -1.4940  2.0447
 7009TIP3   OH242517   5.699   5.409  15.881  0.3788  0.5139 -0.0037
 7009TIP3    H142518   5.740   5.496  15.877  0.6459  0.3887 -0.0355
 7009TIP3    H242519   5.606   5.427  15.890  0.5088  0.8045  0.8224
 7010TIP3   OH242520   2.923   0.454   5.033  0.0522 -0.5312  0.2833
 7010TIP3    H142521   2.958   0.506   5.106  1.7968 -1.4162  0.1330
 7010TIP3    H242522   2.942   0.364   5.058 -1.4477 -1.0112 -0.2233
 7011TIP3   OH242523   1.687   6.170  14.699 -0.3284 -0.1343 -0.4637
 7011TIP3    H142524   1.644   6.238  14.751  0.4568 -0.7179  1.0113
 7011TIP3    H242525   1.619   6.104  14.686 -0.4442 -0.1403  0.1312
 7012TIP3   OH242526   2.476   5.571   0.963 -0.2397 -0.2603 -0.7441
 7012TIP3    H142527   2.439   5.647   0.919  1.6433  1.4511  0.4246
 7012TIP3    H242528   2.401   5.527   1.002 -1.3387  1.4181 -0.8527
 7013TIP3   OH242529   4.454   4.460  13.670 -0.2488 -0.7439  0.1910
 7013TIP3    H142530   4.476   4.525  13.603 -1.6242  0.2784  0.6645
 7013TIP3    H242531   4.406   4.510  13.737  0.2648 -1.9108  1.4861
 7014TIP3   OH242532   4.380   6.214   6.026 -0.3786  0.0077 -0.3100
 7014TIP3    H142533   4.452   6.256   6.073 -1.2482  0.2866  0.7984
 7014TIP3    H242534   4.317   6.284   6.011 -0.4216 -0.2256 -1.3082
 7015TIP3   OH242535   6.616   1.692   2.165  0.4717  0.6628 -0.4115
 7015TIP3    H142536   6.541   1.654   2.119  1.6745 -1.6418 -0.6218
 7015TIP3    H242537   6.581   1.719   2.250 -0.6884  0.1349 -0.6983
 7016TIP3   OH242538   3.833   5.274   3.762  0.1302  0.0265 -0.3244
 7016TIP3    H142539   3.827   5.202   3.825 -1.1407 -1.6597 -2.2606
 7016TIP3    H242540   3.923   5.269   3.728  0.3521  0.0128  0.2532
 7017TIP3   OH242541   4.234   6.737  14.803  0.2899 -0.0990 -0.6069
 7017TIP3    H142542   4.275   6.747  14.717  0.9525 -1.9278 -0.5431
 7017TIP3    H242543   4.228   6.827  14.837 -0.3285  0.7032 -2.6865
 7018TIP3   OH242544   1.075   6.439  14.927  0.3622  0.0503 -0.1722
 7018TIP3    H142545   1.002   6.459  14.869  2.9342 -2.1275 -4.6959
 7018TIP3    H242546   1.045   6.365  14.981 -1.6551  1.2046  0.3680
 7019TIP3   OH242547   3.990   1.595   3.448  0.3680  0.1011 -0.1486
 7019TIP3    H142548   3.947   1.583   3.533 -0.3010  0.7287 -0.3896
 7019TIP3    H242549   4.033   1.681   3.455 -0.3828  0.5284 -0.7310
 7020TIP3   OH242550   6.392   6.332  15.344 -0.0646  0.5822 -0.0463
 7020TIP3    H142551   6.470   6.347  15.398 -0.7263 -0.7941  1.3500
 7020TIP3    H242552   6.333   6.403  15.368  0.6504  1.5395 -0.9945
 7021TIP3   OH242553   0.232   4.851  14.055  0.0250 -0.4823  0.0926
 7021TIP3    H142554   0.210   4.784  13.990  1.3602  0.3869 -1.3162
 7021TIP3    H242555   0.246   4.930  14.003  1.4190  0.1768  1.4134
 7022TIP3   OH242556   2.640   5.316   1.809  0.4999 -0.2145  0.2678
 7022TIP3    H142557   2.612   5.407   1.798  1.4681  0.0277 -0.3002
 7022TIP3    H242558   2.600   5.270   1.736 -0.2581 -0.3257  0.7358
 7023TIP3   OH242559   5.833   5.559  16.654  0.0137  0.8318  0.0228
 7023TIP3    H142560   5.921   5.558  16.615  0.0040  0.4209  0.0149
 7023TIP3    H242561   5.824   5.474  16.696 -0.7363  0.5082 -0.7657
 7024TIP3   OH242562   2.403   5.545   1.855 -0.1639 -0.0515  0.0749
 7024TIP3    H142563   2.481   5.583   1.814  0.3130  0.0336  1.0424
 7024TIP3    H242564   2.339   5.616   1.855 -0.4796 -0.3125 -1.3166
 7025TIP3   OH242565   3.144   1.899   0.486  0.5604  0.8501 -0.0938
 7025TIP3    H142566   3.074   1.953   0.525  2.0250  1.8934  1.2580
 7025TIP3    H242567   3.217   1.960   0.475  1.4377 -0.3211 -0.9969
 7026TIP3   OH242568   6.249   0.273   1.612  0.3911 -0.3732 -0.0501
 7026TIP3    H142569   6.307   0.221   1.667  0.0517 -1.3443 -0.5901
 7026TIP3    H242570   6.275   0.252   1.523 -0.3430 -0.3044 -0.2877
 7027TIP3   OH242571   5.174   4.434  13.581  0.1895  0.2505 -0.3512
 7027TIP3    H142572   5.098   4.383  13.553  0.7169 -1.0485  0.4867
 7027TIP3    H242573   5.247   4.395  13.534  0.5968  0.2626  0.2687
 7028TIP3   OH242574   2.497   2.514   3.088 -0.4290  0.3229  0.7675
 7028TIP3    H142575   2.442   2.547   3.159 -0.5244 -1.6437  1.6688
 7028TIP3    H242576   2.586   2.534   3.116 -0.5748  2.1932  0.0018
 7029TIP3   OH242577   0.323   4.881  11.263  0.0196  0.1451  0.5722
 7029TIP3    H142578   0.249   4.897  11.204 -0.4146  1.9595  1.5611
 7029TIP3    H242579   0.340   4.787  11.253  0.0924  0.3604 -2.5430
 7030TIP3   OH242580   1.717   2.168   4.235 -0.4388  0.5657 -0.1635
 7030TIP3    H142581   1.787   2.212   4.283 -0.6248 -0.2630  0.8915
 7030TIP3    H242582   1.747   2.169   4.144  0.6965  0.7052  0.1936
 7031TIP3   OH242583   3.830   6.453   5.001  0.4895  0.3020  0.3418
 7031TIP3    H142584   3.766   6.523   5.002 -0.6759 -0.5081 -3.1157
 7031TIP3    H242585   3.780   6.373   5.016  0.6993 -0.2691 -1.6421
 7032TIP3   OH242586   5.963   1.879  12.571 -0.0145 -0.0144  0.0624
 7032TIP3    H142587   5.930   1.868  12.661 -1.8167 -0.7786 -0.6457
 7032TIP3    H242588   5.905   1.945  12.532  1.2053  0.8473 -0.3476
 7033TIP3   OH242589   3.333   2.921   5.808  0.2692 -0.9585 -0.2834
 7033TIP3    H142590   3.420   2.927   5.769  0.2202  1.3171 -0.1859
 7033TIP3    H242591   3.337   2.978   5.884 -0.5883 -2.8610  1.2803
 7034TIP3   OH242592   3.332   4.268   2.949  0.4510  0.2785 -0.1006
 7034TIP3    H142593   3.265   4.252   2.882 -0.5302  1.1942  0.6334
 7034TIP3    H242594   3.415   4.261   2.901 -0.2307  1.3048 -1.5296
 7035TIP3   OH242595   0.439   4.329   4.296 -0.2603 -0.2485 -0.3723
 7035TIP3    H142596   0.379   4.402   4.281  1.7849  1.6339  0.0614
 7035TIP3    H242597   0.468   4.304   4.208  0.6598  0.9789 -0.4526
 7036TIP3   OH242598   5.091   5.223   2.260  0.6500 -0.0234  0.3231
 7036TIP3    H142599   5.077   5.181   2.176  0.2684 -2.1107  1.3686
 7036TIP3    H242600   5.182   5.255   2.256  0.0867  1.5050 -1.4790
 7037TIP3   OH242601   0.612   6.132   4.465 -0.1963  0.5046 -0.0943
 7037TIP3    H142602   0.705   6.112   4.450  0.0147  0.6122  0.9983
 7037TIP3    H242603   0.576   6.143   4.377  0.1716 -2.4634 -0.7457
 7038TIP3   OH242604   1.784   1.473   2.611 -0.0669  0.9101 -0.1753
 7038TIP3    H142605   1.772   1.451   2.703 -0.4278  1.6896 -0.0325
 7038TIP3    H242606   1.741   1.557   2.600 -2.3970 -0.3486 -1.6458
 7039TIP3   OH242607   0.847   4.966  16.451  0.5773  0.0739 -0.2294
 7039TIP3    H142608   0.802   4.988  16.369  0.4437 -0.7878 -0.4025
 7039TIP3    H242609   0.913   4.901  16.425  0.1624 -0.6250  0.4170
 7040TIP3   OH242610   0.782   6.316   4.807 -0.5616 -0.2151 -0.5230
 7040TIP3    H142611   0.826   6.236   4.780 -0.0506  0.5384 -2.0147
 7040TIP3    H242612   0.709   6.326   4.746 -0.4332  0.6023 -0.5593
 7041TIP3   OH242613   6.515   3.879   3.325  0.1076 -0.1882  0.4994
 7041TIP3    H142614   6.507   3.806   3.386 -1.1173  1.3836  2.3713
 7041TIP3    H242615   6.540   3.953   3.380  0.7676  0.9305 -1.2270
 7042TIP3   OH242616   4.862   5.339  17.033  0.2996 -0.3170  0.0935
 7042TIP3    H142617   4.769   5.335  17.053  0.1535  0.5830 -0.3783
 7042TIP3    H242618   4.896   5.253  17.060 -0.4514 -0.2605  1.2896
 7043TIP3   OH242619   1.080   0.587  14.552  0.3732 -0.0691  0.7375
 7043TIP3    H142620   1.154   0.576  14.492  0.2835  0.6731  0.4852
 7043TIP3    H242621   1.004   0.600  14.495 -0.1723 -1.9146  0.9607
 7044TIP3   OH242622   0.613   3.732   3.266  0.1118  0.1274 -0.2237
 7044TIP3    H142623   0.691   3.788   3.268  0.0964  0.1754 -0.6755
 7044TIP3    H242624   0.576   3.747   3.179 -0.2387 -0.1195 -0.1197
 7045TIP3   OH242625   5.119   6.254  13.034  0.1135 -0.3352  0.0819
 7045TIP3    H142626   5.107   6.164  13.005  1.8659 -0.5366 -0.1161
 7045TIP3    H242627   5.089   6.308  12.961  0.4528 -0.7919 -0.4018
 7046TIP3   OH242628   0.085   5.969  15.361  0.0423  0.5493  0.0572
 7046TIP3    H142629   0.151   6.038  15.371  0.7770 -0.0112 -0.8010
 7046TIP3    H242630   0.014   6.010  15.313 -0.0470  1.0324  0.5875
 7047TIP3   OH242631   5.792   2.655   5.668  0.8570  0.1540  0.0999
 7047TIP3    H142632   5.878   2.617   5.650  0.2737 -0.3441 -1.9448
 7047TIP3    H242633   5.741   2.583   5.704  0.3474 -0.5452 -1.8807
 7048TIP3   OH242634   5.695   1.957   0.985 -0.8542  0.2290 -0.5245
 7048TIP3    H142635   5.786   1.948   0.955 -0.7424  0.3800 -0.2381
 7048TIP3    H242636   5.675   1.874   1.026 -0.2004  0.8463  1.1162
 7049TIP3   OH242637   2.255   1.338   0.765  0.6206 -0.1729 -0.5833
 7049TIP3    H142638   2.288   1.271   0.705 -0.4955 -1.0420 -0.2535
 7049TIP3    H242639   2.162   1.345   0.745  0.2963 -0.2135  0.7866
 7050TIP3   OH242640   5.629   1.660   2.826  0.8160  0.1265 -0.1919
 7050TIP3    H142641   5.685   1.711   2.767 -0.7797 -0.6769 -2.5333
 7050TIP3    H242642   5.691   1.616   2.884  2.5383  0.6122 -1.5513
 7051TIP3   OH242643   6.444   5.949  10.872 -0.2745  0.5469  0.0735
 7051TIP3    H142644   6.357   5.935  10.910 -0.0497  0.3678  0.5335
 7051TIP3    H242645   6.431   5.942  10.778 -0.5956 -0.4597  0.1816
 7052TIP3   OH242646   3.940   3.649  12.383  0.4014 -0.4010 -0.0864
 7052TIP3    H142647   3.862   3.593  12.377 -1.3863  2.0227 -1.6497
 7052TIP3    H242648   3.936   3.686  12.471 -0.0542 -0.5074 -0.0563
 7053TIP3   OH242649   4.588   0.475   5.161  0.4906 -0.4686  0.1227
 7053TIP3    H142650   4.668   0.456   5.210  1.1793  2.1121  0.1379
 7053TIP3    H242651   4.521   0.488   5.228  0.2154 -1.8220  0.1377
 7054TIP3   OH242652   4.745   5.055  15.057 -0.0625  0.2545  0.3956
 7054TIP3    H142653   4.804   5.002  15.002 -0.8188 -0.8851  0.6569
 7054TIP3    H242654   4.768   5.145  15.035 -0.7704 -0.1267 -2.3172
 7055TIP3   OH242655   3.187   2.091   4.194  0.1579 -0.5347 -0.0619
 7055TIP3    H142656   3.272   2.125   4.166 -0.4248  0.9059 -0.2138
 7055TIP3    H242657   3.172   2.134   4.279  0.6692 -2.7084  1.2043
 7056TIP3   OH242658   3.934   2.047   3.577  0.6207  0.2089 -0.0920
 7056TIP3    H142659   3.848   2.057   3.535 -0.1037  0.3144  1.3746
 7056TIP3    H242660   3.974   1.973   3.530  0.2310  0.8837 -1.5668
 7057TIP3   OH242661   1.223   3.172   5.918 -0.1653 -0.1422 -0.0796
 7057TIP3    H142662   1.190   3.104   5.860  0.5949 -1.1753  0.6581
 7057TIP3    H242663   1.243   3.246   5.860  0.9064 -1.2635 -1.2102
 7058TIP3   OH242664   3.973   1.015  12.788  0.3296  0.3590 -0.9088
 7058TIP3    H142665   3.890   1.062  12.782  0.2085  0.3235  0.3604
 7058TIP3    H242666   3.995   0.994  12.697 -1.4310 -0.2822 -1.2192
 7059TIP3   OH242667   3.727   4.641   3.153 -0.1651  0.0565 -0.2617
 7059TIP3    H142668   3.695   4.552   3.165 -1.1761  0.2863 -1.1384
 7059TIP3    H242669   3.820   4.636   3.176 -0.4829 -0.9432  0.9231
 7060TIP3   OH242670   5.619   2.855  17.474  0.2077 -0.1337 -0.1691
 7060TIP3    H142671   5.618   2.872  17.380 -1.1638  1.1704  0.0483
 7060TIP3    H242672   5.545   2.905  17.508  0.3676 -1.0062  1.5380
 7061TIP3   OH242673   6.740   5.625   0.912 -0.2348 -0.3732  0.4424
 7061TIP3    H142674   6.735   5.621   0.817 -0.5235 -2.0445  0.4991
 7061TIP3    H242675   6.678   5.694   0.937 -0.1891  0.0462 -0.5667
 7062TIP3   OH242676   5.056   3.834  12.189  0.2339  0.4098 -0.1236
 7062TIP3    H142677   4.991   3.905  12.193  0.2123  0.4076 -0.3813
 7062TIP3    H242678   5.015   3.768  12.133  0.4182  0.3627 -0.2026
 7063TIP3   OH242679   2.851   1.214  16.192 -0.1456  0.1257 -0.2656
 7063TIP3    H142680   2.771   1.183  16.235  0.4771 -3.0029 -1.1558
 7063TIP3    H242681   2.822   1.250  16.109 -0.6858 -0.3486 -0.2816
 7064TIP3   OH242682   1.878   3.638   0.137 -0.0261 -0.4158 -0.2115
 7064TIP3    H142683   1.970   3.629   0.160  0.5927  0.4006 -2.2246
 7064TIP3    H242684   1.842   3.549   0.146  0.7950 -0.6469  1.0627
 7065TIP3   OH242685   6.782   6.648  14.134 -0.2561  0.0231  0.1690
 7065TIP3    H142686   6.746   6.736  14.144  0.1891  0.2462 -0.1286
 7065TIP3    H242687   6.840   6.637  14.209 -0.1578  0.0643  0.1000
 7066TIP3   OH242688   6.077   6.298  17.410  0.5032 -0.0182 -0.2729
 7066TIP3    H142689   6.002   6.245  17.433  0.8091 -0.4464 -0.2586
 7066TIP3    H242690   6.063   6.322  17.318  1.3365 -1.7945 -0.9047
 7067TIP3   OH242691   5.338   3.752  16.962  0.4911  0.3483  0.1982
 7067TIP3    H142692   5.312   3.664  16.991 -0.8651  0.4614 -0.5555
 7067TIP3    H242693   5.343   3.803  17.042  1.6217 -0.4823  0.6790
 7068TIP3   OH242694   5.893   0.144   6.261  0.2374 -0.1612  0.2345
 7068TIP3    H142695   5.854   0.111   6.341 -1.9354 -1.2547 -1.1752
 7068TIP3    H242696   5.924   0.065   6.215 -1.8968 -0.0254 -1.6140
 7069TIP3   OH242697   6.107   2.055   5.751  0.1158 -0.6852 -0.3877
 7069TIP3    H142698   6.198   2.073   5.727  0.3482 -4.1929 -3.0001
 7069TIP3    H242699   6.110   1.968   5.791 -2.0073 -0.4830  0.3118
 7070TIP3   OH242700   6.509   2.217  16.488  0.4645 -0.2942 -0.3596
 7070TIP3    H142701   6.422   2.249  16.510  0.9531 -0.5744  2.2877
 7070TIP3    H242702   6.514   2.223  16.393 -1.5168  2.0996 -0.3937
 7071TIP3   OH242703   6.010   1.591   1.602 -0.5032 -0.0634 -0.5011
 7071TIP3    H142704   5.953   1.668   1.604 -1.5679 -0.8024  1.8261
 7071TIP3    H242705   5.953   1.519   1.578  0.0278 -0.4395 -0.6598
 7072TIP3   OH242706   4.622   4.281  15.127  0.1255  0.1715  0.6004
 7072TIP3    H142707   4.648   4.218  15.195  0.7838 -0.7641 -0.4809
 7072TIP3    H242708   4.700   4.334  15.112 -0.6499  1.8446  2.0639
 7073TIP3   OH242709   2.196   5.303   4.379  0.5132 -0.1655  1.1132
 7073TIP3    H142710   2.105   5.318   4.404  0.8817  0.2380  2.2551
 7073TIP3    H242711   2.198   5.211   4.350 -0.7584  0.4858 -1.3640
 7074TIP3   OH242712   6.036   2.283   1.160  0.3431 -0.3234 -0.2273
 7074TIP3    H142713   5.943   2.264   1.145  0.3260 -0.3784 -0.0625
 7074TIP3    H242714   6.047   2.374   1.134  0.6969 -0.8992 -2.2144
 7075TIP3   OH242715   4.015   2.107  16.524  0.5188  0.5554 -0.1874
 7075TIP3    H142716   4.107   2.132  16.538  0.3779 -0.0930  2.3142
 7075TIP3    H242717   3.986   2.074  16.609 -1.7641 -0.1888 -1.1901
 7076TIP3   OH242718   5.671   6.104   6.408  0.1704 -0.2433 -0.4630
 7076TIP3    H142719   5.750   6.132   6.455 -0.2427  0.3409 -0.0838
 7076TIP3    H242720   5.628   6.042   6.468 -0.0846  0.0945 -0.2871
 7077TIP3   OH242721   4.372   6.505  16.564 -0.0658 -0.7739 -0.5512
 7077TIP3    H142722   4.386   6.542  16.651 -1.0068  0.6674 -0.9864
 7077TIP3    H242723   4.288   6.458  16.572 -1.6005  1.6726 -1.3385
 7078TIP3   OH242724   2.212   0.327  17.460  0.2890  0.2768  0.6497
 7078TIP3    H142725   2.129   0.373  17.443 -0.3347 -1.2469 -0.7225
 7078TIP3    H242726   2.236   0.290  17.375  1.5900 -0.5953  1.3693
 7079TIP3   OH242727   5.200   0.141  15.103  0.2478 -0.7870 -0.5440
 7079TIP3    H142728   5.274   0.102  15.149 -0.4114 -1.5802 -0.1380
 7079TIP3    H242729   5.207   0.106  15.014 -1.0712 -2.9419  0.1311
 7080TIP3   OH242730   2.907   2.378  14.694 -0.1996  0.2010 -0.3572
 7080TIP3    H142731   2.894   2.284  14.701  1.2213  0.0559  0.6628
 7080TIP3    H242732   2.882   2.412  14.780 -0.1512  0.6818 -0.5289
 7081TIP3   OH242733   3.018   6.243  11.395  0.1300  0.6871 -0.2603
 7081TIP3    H142734   2.992   6.286  11.476  2.1869 -0.4815  1.1289
 7081TIP3    H242735   2.993   6.151  11.409  0.0821  0.5607 -1.1591
 7082TIP3   OH242736   4.340   4.119   0.376 -0.1036 -0.1188  0.1898
 7082TIP3    H142737   4.428   4.090   0.402  0.3376  0.9740 -0.0409
 7082TIP3    H242738   4.282   4.053   0.414  0.7220 -0.1581  1.4635
 7083TIP3   OH242739   1.371   6.543  12.552  0.2155  0.1597  0.0462
 7083TIP3    H142740   1.324   6.563  12.471 -0.7292 -2.2842 -0.0951
 7083TIP3    H242741   1.311   6.485  12.600  1.3831  0.3629  1.8090
 7084TIP3   OH242742   6.692   0.853   1.398  0.3770  0.1903  0.3962
 7084TIP3    H142743   6.762   0.860   1.334  0.0328 -1.7336 -0.2513
 7084TIP3    H242744   6.715   0.917   1.466  1.3143  1.4974 -1.0852
 7085TIP3   OH242745   1.882   0.461   6.252  0.0515 -0.3733 -0.0750
 7085TIP3    H142746   1.933   0.508   6.319 -1.2946 -0.5542  1.1317
 7085TIP3    H242747   1.827   0.528   6.213 -0.0743 -0.4938 -0.1051
 7086TIP3   OH242748   0.795   3.249   5.674 -0.2911 -0.2018 -0.1978
 7086TIP3    H142749   0.707   3.269   5.642  0.3019  1.7786 -0.6754
 7086TIP3    H242750   0.846   3.328   5.657  2.1400 -1.9715 -1.8408
 7087TIP3   OH242751   6.072   0.741  15.682  0.0355  0.0341 -0.1928
 7087TIP3    H142752   6.075   0.727  15.587 -0.9644 -0.3092 -0.1908
 7087TIP3    H242753   5.980   0.762  15.699  0.3554  0.8171  0.6053
 7088TIP3   OH242754   0.871   6.525   4.169  0.8797  0.5541  0.1009
 7088TIP3    H142755   0.946   6.481   4.129  0.0410  1.5126 -2.8246
 7088TIP3    H242756   0.883   6.618   4.148 -1.2431  0.6934 -0.7686
 7089TIP3   OH242757   3.011   5.070  13.165 -0.4000  0.2997  0.2144
 7089TIP3    H142758   2.976   4.984  13.141  0.6823 -0.1777  0.2624
 7089TIP3    H242759   3.062   5.098  13.089 -0.5667  0.8008  0.2840
 7090TIP3   OH242760   2.348   3.310   4.642  0.1488 -0.2842 -0.7359
 7090TIP3    H142761   2.307   3.273   4.720 -0.8432  0.2358 -0.9909
 7090TIP3    H242762   2.376   3.234   4.591  3.7224 -0.7013  1.5245
 7091TIP3   OH242763   4.828   5.421   4.829  0.6087 -0.2139  0.0006
 7091TIP3    H142764   4.771   5.419   4.752  0.0813  0.9941  0.3381
 7091TIP3    H242765   4.912   5.452   4.795  0.7094 -0.7905 -0.2836
 7092TIP3   OH242766   4.151   2.760  11.062 -0.3413 -0.3399 -0.3660
 7092TIP3    H142767   4.148   2.671  11.027 -0.2334 -0.6445  0.3868
 7092TIP3    H242768   4.141   2.816  10.985  2.5364 -0.9226 -1.2840
 7093TIP3   OH242769   3.099   5.492  13.173 -1.1627  0.8660  0.2559
 7093TIP3    H142770   3.159   5.566  13.172  0.5462 -0.4294 -1.4362
 7093TIP3    H242771   3.079   5.476  13.081  0.2073 -1.9773  0.3312
 7094TIP3   OH242772   5.373   6.434  17.398  0.0253 -0.4882  0.1647
 7094TIP3    H142773   5.313   6.442  17.473 -0.0853 -1.7762  0.2433
 7094TIP3    H242774   5.457   6.410  17.438  0.7144  1.6286  0.0826
 7095TIP3   OH242775   6.744   3.362  17.367  0.3340  0.4426  0.5339
 7095TIP3    H142776   6.668   3.394  17.319 -1.4071 -0.9350  2.2045
 7095TIP3    H242777   6.782   3.295  17.310 -1.0393 -0.4040  0.5866
 7096TIP3   OH242778   1.817   3.798   0.370 -0.5683 -0.1903  0.2947
 7096TIP3    H142779   1.842   3.740   0.442  0.0148  1.0310  1.0943
 7096TIP3    H242780   1.858   3.758   0.293  0.2748 -0.5572  0.9124
 7097TIP3   OH242781   5.107   3.742  14.856 -0.0642  0.0258  0.2862
 7097TIP3    H142782   5.089   3.767  14.946  1.4066  0.5180  0.4689
 7097TIP3    H242783   5.070   3.813  14.803  1.4583  1.1578  0.6635
 7098TIP3   OH242784   6.344   5.859  13.645  0.2370 -0.0073 -0.2800
 7098TIP3    H142785   6.331   5.947  13.680 -0.8134 -0.4250  0.4612
 7098TIP3    H242786   6.368   5.806  13.721 -2.6750 -1.0566  0.0622
 7099TIP3   OH242787   5.239   6.757  14.885  0.2312 -0.4224 -0.3199
 7099TIP3    H142788   5.263   6.742  14.794 -1.1567 -1.5660 -0.5412
 7099TIP3    H242789   5.259   6.674  14.930  0.9929  0.1590  0.4451
 7100TIP3   OH242790   5.219   2.391  17.464 -0.2396  0.6719 -0.1780
 7100TIP3    H142791   5.126   2.414  17.465 -0.0896  1.3579 -0.9306
 7100TIP3    H242792   5.227   2.326  17.394 -0.5925 -1.4863  1.6742
 7101TIP3   OH242793   5.201   0.173   5.710 -0.3398  0.2239  0.3871
 7101TIP3    H142794   5.192   0.251   5.765 -1.4903  0.5433 -0.2405
 7101TIP3    H242795   5.275   0.125   5.749  0.9352  2.0273  0.2856
 7102TIP3   OH242796   6.585   2.424  13.113  0.6019  0.2696  0.6321
 7102TIP3    H142797   6.511   2.484  13.123 -0.3544 -0.1452 -2.5993
 7102TIP3    H242798   6.552   2.339  13.143 -0.5717 -0.0514 -1.3685
 7103TIP3   OH242799   6.034   4.985   1.258  0.4868 -0.0009  0.2959
 7103TIP3    H142800   6.030   4.975   1.163 -0.7133 -0.3817  0.3766
 7103TIP3    H242801   5.961   4.933   1.291  1.6764 -0.9688  1.5163
 7104TIP3   OH242802   3.588   4.760   2.950 -0.0235 -0.0877 -0.1330
 7104TIP3    H142803   3.652   4.737   3.017 -2.2074  1.9001  2.8727
 7104TIP3    H242804   3.510   4.709   2.973 -2.4374  4.0432  2.1031
 7105TIP3   OH242805   6.284   3.889  10.688 -0.0120  0.1875 -0.2912
 7105TIP3    H142806   6.311   3.800  10.666  0.4243  0.2275  0.0769
 7105TIP3    H242807   6.200   3.901  10.643  0.0757 -0.3035 -0.5833
 7106TIP3   OH242808   5.842   3.543   6.539 -0.1524  0.0136 -0.1241
 7106TIP3    H142809   5.773   3.478   6.526  0.6243 -0.9164  0.2787
 7106TIP3    H242810   5.806   3.603   6.604 -1.3183  0.6668 -1.3285
 7107TIP3   OH242811   1.479   3.059  16.723  0.0057 -0.5807 -0.3270
 7107TIP3    H142812   1.570   3.086  16.726  0.0679 -0.8409  1.4180
 7107TIP3    H242813   1.470   3.012  16.640  1.2734  0.0312 -0.8317
 7108TIP3   OH242814   3.266   4.077   4.361  0.2608  0.3502  0.3361
 7108TIP3    H142815   3.276   4.159   4.409 -0.1151 -0.2665  1.5060
 7108TIP3    H242816   3.328   4.084   4.288 -1.4583  2.6801 -1.0567
 7109TIP3   OH242817   0.750   5.316   5.484  0.0183  0.4746 -0.2061
 7109TIP3    H142818   0.771   5.386   5.422  0.4441  0.2981 -0.2656
 7109TIP3    H242819   0.793   5.238   5.448 -0.8899  0.0576 -0.4149
 7110TIP3   OH242820   0.840   0.984   3.230 -0.1499  0.0386  0.4141
 7110TIP3    H142821   0.903   1.044   3.269 -0.3919  1.2224 -0.9136
 7110TIP3    H242822   0.894   0.922   3.181  0.0487  1.5347 -1.4009
 7111TIP3   OH242823   1.159   3.509  13.589  0.0591  0.4067 -0.4067
 7111TIP3    H142824   1.230   3.445  13.590  1.6281  2.0400 -1.9015
 7111TIP3    H242825   1.149   3.535  13.681 -1.9000 -3.1977  0.5996
 7112TIP3   OH242826   6.335   3.885  11.331  0.1625 -1.0408  0.0076
 7112TIP3    H142827   6.313   3.793  11.313 -0.8884 -0.4392 -2.1522
 7112TIP3    H242828   6.429   3.890  11.319  0.1923 -1.7968 -0.1396
 7113TIP3   OH242829   6.244   6.705   5.893  0.0747 -0.4285 -0.1974
 7113TIP3    H142830   6.166   6.659   5.861 -0.2975  0.7879 -1.0692
 7113TIP3    H242831   6.211   6.786   5.930  0.7758 -0.6521  0.9638
 7114TIP3   OH242832   4.657   4.189  13.168 -0.1910  0.1656 -0.0798
 7114TIP3    H142833   4.600   4.229  13.103  0.0363  1.2141  0.3553
 7114TIP3    H242834   4.599   4.169  13.242 -0.2327  0.0296 -0.1489
 7115TIP3   OH242835   4.585   0.020  15.442 -0.1210 -0.5239  0.2128
 7115TIP3    H142836   4.564  -0.064  15.402  1.6325 -0.9149  0.0237
 7115TIP3    H242837   4.527   0.082  15.398 -0.4061 -1.4055 -0.7151
 7116TIP3   OH242838   0.043   4.987  16.239 -0.1863 -0.5056 -0.0000
 7116TIP3    H142839   0.121   5.027  16.278  1.3313 -2.0458 -1.2690
 7116TIP3    H242840   0.077   4.914  16.186 -2.3820 -0.4863 -1.6003
 7117TIP3   OH242841   5.869   2.680  12.486  0.2300 -0.2783  0.1425
 7117TIP3    H142842   5.854   2.715  12.399 -2.5093 -2.8780 -0.6268
 7117TIP3    H242843   5.800   2.720  12.540  0.9350  0.1310  0.7569
 7118TIP3   OH242844   3.774   6.718  12.987 -0.3639 -0.0671 -0.2480
 7118TIP3    H142845   3.842   6.757  12.931  0.3039 -1.1204 -0.1881
 7118TIP3    H242846   3.820   6.654  13.040 -0.7626  1.5972  2.3015
 7119TIP3   OH242847   4.482   0.503   2.933 -0.0793  0.6501  0.2450
 7119TIP3    H142848   4.441   0.433   2.983 -0.7527  0.3000 -0.7708
 7119TIP3    H242849   4.427   0.580   2.948  1.2488  1.2840  2.2181
 7120TIP3   OH242850   2.564   5.164  14.747  0.3007 -0.5267  0.6291
 7120TIP3    H142851   2.544   5.168  14.840  1.3871 -1.1451  0.9023
 7120TIP3    H242852   2.558   5.071  14.724 -0.4275 -0.3321 -0.0374
 7121TIP3   OH242853   0.155   6.138   3.658 -0.3285  0.3605 -0.2562
 7121TIP3    H142854   0.123   6.194   3.587  1.8767  1.8186 -0.1973
 7121TIP3    H242855   0.153   6.050   3.621 -0.0869  0.9693 -1.8434
 7122TIP3   OH242856   4.051   1.826   4.319  0.6465 -0.6690 -0.3182
 7122TIP3    H142857   3.972   1.858   4.276  0.9400 -0.2345 -0.5389
 7122TIP3    H242858   4.101   1.785   4.248 -0.0261 -2.2307  0.0706
 7123TIP3   OH242859   6.610   0.127  15.621 -0.0104  0.3741  0.6556
 7123TIP3    H142860   6.591   0.191  15.690  1.0371  1.1333  0.2649
 7123TIP3    H242861   6.635   0.180  15.546  2.6521 -0.4716  0.8394
 7124TIP3   OH242862   2.929   4.313   4.224 -0.2624 -0.2062 -0.1999
 7124TIP3    H142863   2.864   4.315   4.154 -0.8200 -0.4245  0.3032
 7124TIP3    H242864   2.996   4.252   4.192 -0.5781 -0.4074 -0.4933
 7125TIP3   OH242865   2.608   2.796  12.468 -0.1058  0.6070  0.2531
 7125TIP3    H142866   2.513   2.785  12.472 -0.1236 -0.9657 -2.0553
 7125TIP3    H242867   2.620   2.878  12.421 -0.2420  1.9479  2.4632
 7126TIP3   OH242868   5.034   5.150   3.270 -0.1520  0.5313 -0.0690
 7126TIP3    H142869   5.043   5.192   3.356 -1.1515 -0.5841  0.5993
 7126TIP3    H242870   5.112   5.095   3.263 -0.0611  0.6332  0.1116
 7127TIP3   OH242871   2.611   4.905  12.682 -0.5926  0.0011  0.2730
 7127TIP3    H142872   2.706   4.889  12.674 -0.7191 -0.5557 -0.2161
 7127TIP3    H242873   2.582   4.838  12.745 -0.7369 -0.1333  0.0627
 7128TIP3   OH242874   3.980   1.709   1.517  0.2398 -0.0017 -0.5220
 7128TIP3    H142875   3.983   1.805   1.520 -0.8552  0.0574  2.8609
 7128TIP3    H242876   3.895   1.688   1.479  0.5936  0.3212 -1.5278
 7129TIP3   OH242877   5.512   1.215   2.445  0.2265 -0.2106  0.6168
 7129TIP3    H142878   5.593   1.265   2.433  0.4382 -0.6738  0.0511
 7129TIP3    H242879   5.501   1.168   2.362  0.4855 -1.7559  1.4088
 7130TIP3   OH242880   5.714   0.308  16.856 -0.4872  0.2149 -0.1646
 7130TIP3    H142881   5.647   0.341  16.797  0.0183 -0.2866 -1.0488
 7130TIP3    H242882   5.666   0.264  16.926 -1.0919 -0.1175 -0.7740
 7131TIP3   OH242883   2.458   5.158   4.431 -0.2424 -0.1728 -0.4317
 7131TIP3    H142884   2.463   5.063   4.418  1.4000 -0.1627 -0.0935
 7131TIP3    H242885   2.440   5.169   4.525  2.4136 -0.1762  0.1437
 7132TIP3   OH242886   0.610   3.504   4.040 -0.6976 -0.0502  0.2134
 7132TIP3    H142887   0.570   3.585   4.070  0.3298  1.6356 -2.5879
 7132TIP3    H242888   0.703   3.515   4.057 -0.6874 -1.3707  1.2164
 7133TIP3   OH242889   1.538   0.521  16.565  0.1955  0.2113  0.4903
 7133TIP3    H142890   1.560   0.432  16.536 -1.0897 -0.7153  2.1657
 7133TIP3    H242891   1.542   0.574  16.485  2.7304 -0.9543 -0.2535
 7134TIP3   OH242892   2.864   0.084   3.783 -0.3183 -0.5462  0.1077
 7134TIP3    H142893   2.776   0.070   3.747 -1.4302 -0.2219  2.4515
 7134TIP3    H242894   2.891  -0.002   3.815 -0.2106 -0.4551  0.2625
 7135TIP3   OH242895   2.666   2.067  10.886  0.1265 -0.2736  0.1787
 7135TIP3    H142896   2.585   2.092  10.842 -0.3475 -0.9351  0.6639
 7135TIP3    H242897   2.705   2.002  10.828 -0.2503 -0.7732  0.4698
 7136TIP3   OH242898   1.065   2.331   0.749  0.0412  0.4793  0.1534
 7136TIP3    H142899   1.001   2.328   0.679 -0.5487  2.2521  0.5783
 7136TIP3    H242900   1.055   2.247   0.794 -1.1809  0.2736 -0.4674
 7137TIP3   OH242901   2.674   2.152  17.303 -0.4297 -0.2493 -0.7233
 7137TIP3    H142902   2.721   2.156  17.386 -0.1441  1.3655 -0.9322
 7137TIP3    H242903   2.724   2.209  17.244 -0.7257 -1.2272 -1.9625
 7138TIP3   OH242904   2.990   1.076   5.981  0.0435 -0.4754  0.0484
 7138TIP3    H142905   2.905   1.120   5.974  0.4794  0.2213 -1.3573
 7138TIP3    H242906   3.035   1.122   6.052 -0.0028  0.5131 -0.5412
 7139TIP3   OH242907   0.828   5.756  17.284 -0.3860  0.3354  0.2263
 7139TIP3    H142908   0.858   5.823  17.345  0.2484  0.1396  0.1421
 7139TIP3    H242909   0.825   5.676  17.336 -0.9379  0.3902  0.2770
 7140TIP3   OH242910   1.421   2.586  13.867 -0.1822  0.3419  0.4367
 7140TIP3    H142911   1.507   2.624  13.886 -0.0499  0.6318 -0.6584
 7140TIP3    H242912   1.421   2.502  13.914  0.7633  0.2698  0.3287
 7141TIP3   OH242913   1.897   5.176   1.930 -0.4423 -0.3528  0.2684
 7141TIP3    H142914   1.805   5.187   1.905 -0.0984  0.7081 -0.5691
 7141TIP3    H242915   1.939   5.257   1.903  0.7797 -0.8941  0.5074
 7142TIP3   OH242916   0.073   2.156  16.865 -0.4411  0.0870  0.1416
 7142TIP3    H142917   0.003   2.145  16.929  1.4573  1.2355  2.5722
 7142TIP3    H242918   0.072   2.250  16.844  0.5016  0.1657  0.3964
 7143TIP3   OH242919   5.086   5.393   4.711  0.2878 -0.2064 -0.1618
 7143TIP3    H142920   5.077   5.298   4.709  1.0154 -0.3105  1.0414
 7143TIP3    H242921   5.172   5.409   4.750 -1.1021  0.9741  2.6501
 7144TIP3   OH242922   6.597   3.242  16.800 -0.4902 -0.3214  0.0971
 7144TIP3    H142923   6.658   3.181  16.759  0.8336  0.1073  1.3278
 7144TIP3    H242924   6.511   3.218  16.765  0.3430 -1.0791 -1.5325
 7145TIP3   OH242925   6.780   6.335   2.945 -0.7218  0.2145  0.3311
 7145TIP3    H142926   6.794   6.242   2.927  1.0159  0.3846  0.6348
 7145TIP3    H242927   6.753   6.338   3.037  1.3815  0.1256  1.0007
 7146TIP3   OH242928   3.896   6.482   6.738  0.3352  0.1118 -0.7791
 7146TIP3    H142929   3.809   6.473   6.777  1.0986 -0.5830  0.9035
 7146TIP3    H242930   3.892   6.430   6.658 -0.7469 -0.0622 -0.6320
 7147TIP3   OH242931   1.928   5.936  11.942 -0.5740  0.3665 -0.2163
 7147TIP3    H142932   1.857   5.999  11.948 -0.4682  0.4838 -0.1925
 7147TIP3    H242933   1.902   5.864  12.000 -0.8499  0.2361 -0.5004
 7148TIP3   OH242934   4.081   4.686   5.711 -0.1370  0.1852 -0.0166
 7148TIP3    H142935   3.991   4.660   5.729 -0.2223  0.0994 -0.5727
 7148TIP3    H242936   4.084   4.699   5.617  0.7360 -0.9648 -0.1638
 7149TIP3   OH242937   1.477   6.151  15.016 -0.4763  0.2235  0.2261
 7149TIP3    H142938   1.457   6.159  15.109 -0.6579 -0.5399  0.2599
 7149TIP3    H242939   1.509   6.061  15.006 -2.1880 -0.3204 -0.7551
 7150TIP3   OH242940   1.538   4.229  14.312  0.3589 -0.0313  0.3714
 7150TIP3    H142941   1.608   4.294  14.308 -1.0222  1.4420 -0.8915
 7150TIP3    H242942   1.528   4.210  14.406  1.4400  0.8306  0.6710
 7151TIP3   OH242943   0.400   2.285   0.756 -0.1334  0.7044  0.1648
 7151TIP3    H142944   0.312   2.277   0.794 -0.3462  0.6541 -0.3252
 7151TIP3    H242945   0.396   2.364   0.702 -0.9162 -0.9945 -2.4827
 7152TIP3   OH242946   3.794   1.958   1.915 -0.0219  0.7518  0.2991
 7152TIP3    H142947   3.790   1.937   2.008 -1.0187  1.5648  0.4581
 7152TIP3    H242948   3.738   1.892   1.874  1.2829 -0.2806  0.1275
 7153TIP3   OH242949   0.031   1.245  14.211  0.4193 -0.2677 -0.6809
 7153TIP3    H142950   0.049   1.185  14.283 -0.1340 -1.5097 -1.5373
 7153TIP3    H242951   0.109   1.299  14.205  0.4233 -0.0537  0.9170
 7154TIP3   OH242952   2.689   5.660   1.412 -0.6582  0.0629  0.1088
 7154TIP3    H142953   2.757   5.715   1.374 -1.1576  2.3607  2.2266
 7154TIP3    H242954   2.621   5.655   1.345  0.7655 -0.7149 -1.3242
 7155TIP3   OH242955   4.733   2.921  16.829 -0.2703 -0.5004  0.2650
 7155TIP3    H142956   4.778   2.896  16.909  0.9582 -0.4057 -0.3718
 7155TIP3    H242957   4.726   3.016  16.833 -0.2884 -0.5027  0.2890
 7156TIP3   OH242958   3.429   0.650  13.360  0.4537  0.7110 -0.1827
 7156TIP3    H142959   3.423   0.624  13.268  1.2918  0.3134 -0.1293
 7156TIP3    H242960   3.481   0.581  13.401  1.1794  1.5459  0.3280
 7157TIP3   OH242961   2.340   2.142  14.817 -0.1049 -0.2868 -0.0783
 7157TIP3    H142962   2.428   2.173  14.795 -0.6344  0.6683 -0.9457
 7157TIP3    H242963   2.306   2.106  14.735 -0.8736  0.2283  0.0015
 7158TIP3   OH242964   3.514   2.523  17.207  0.5502  0.2137 -0.4698
 7158TIP3    H142965   3.445   2.590  17.214  0.7292  0.3679 -0.1418
 7158TIP3    H242966   3.531   2.498  17.298 -0.8767 -1.6733 -0.6556
 7159TIP3   OH242967   5.753   1.107  17.396 -0.1439 -0.1324  0.0778
 7159TIP3    H142968   5.726   1.018  17.420  0.6108 -0.0596  1.2794
 7159TIP3    H242969   5.684   1.163  17.430  0.8835 -0.0344  2.1893
 7160TIP3   OH242970   2.434   5.626  15.281 -0.6230  0.9579 -0.2639
 7160TIP3    H142971   2.469   5.686  15.215  0.6157  0.0279 -0.5004
 7160TIP3    H242972   2.498   5.628  15.352  0.2552 -1.1534 -0.9165
 7161TIP3   OH242973   4.862   4.768   6.316  0.2776  0.6590  0.0709
 7161TIP3    H142974   4.835   4.683   6.351 -0.1063  0.3189 -1.0031
 7161TIP3    H242975   4.862   4.827   6.391 -0.3349 -0.0829  0.6654
 7162TIP3   OH242976   0.024   5.406   0.437 -0.2837  0.6896  0.1040
 7162TIP3    H142977  -0.043   5.378   0.374  0.3305  0.7092 -0.5747
 7162TIP3    H242978   0.060   5.325   0.472 -1.5933  0.6840  1.4995
 7163TIP3   OH242979   4.975   3.423   3.293  0.3970 -0.4744 -0.2658
 7163TIP3    H142980   4.973   3.331   3.265  0.5048 -0.9040  1.0593
 7163TIP3    H242981   4.884   3.443   3.316  0.3020 -0.1153 -0.9294
 7164TIP3   OH242982   5.000   3.442  11.279 -0.3291 -0.0774 -0.1451
 7164TIP3    H142983   4.956   3.524  11.302 -2.2326  0.0379 -3.4621
 7164TIP3    H242984   5.063   3.467  11.211  2.8252 -0.7569  2.2655
 7165TIP3   OH242985   5.351   0.272  12.675  0.5130 -0.6579 -0.1120
 7165TIP3    H142986   5.353   0.230  12.761  1.2439 -1.1967 -0.3792
 7165TIP3    H242987   5.280   0.229  12.628  0.2956 -0.5588  0.1276
 7166TIP3   OH242988   5.386   0.553  12.658  0.0926  0.4476  0.7297
 7166TIP3    H142989   5.374   0.531  12.566 -0.1873  0.2989  0.7991
 7166TIP3    H242990   5.400   0.468  12.701  2.2815  0.6526  0.5449
 7167TIP3   OH242991   3.326   2.225  12.415 -0.1610  0.0735  0.3118
 7167TIP3    H142992   3.325   2.286  12.341 -2.3737 -0.2059  0.0514
 7167TIP3    H242993   3.347   2.140  12.377 -0.4476  0.0781  0.1467
 7168TIP3   OH242994   2.535   2.740  14.360  0.3331  0.6768 -0.5403
 7168TIP3    H142995   2.575   2.797  14.293 -1.5756  0.5918 -1.8378
 7168TIP3    H242996   2.525   2.796  14.436  3.8952  0.4002  0.3188
 7169TIP3   OH242997   5.815   4.784   5.024  0.0007  0.3532  0.0717
 7169TIP3    H142998   5.892   4.781   5.081 -0.4287  1.8773  0.7810
 7169TIP3    H242999   5.783   4.694   5.023  0.6384  0.0768  1.3954
 7170TIP3   OH243000   3.864   5.012   1.401  0.1125  0.3124 -0.4105
 7170TIP3    H143001   3.864   5.027   1.495 -0.7081  0.8016 -0.4842
 7170TIP3    H243002   3.823   4.926   1.390  1.5173 -0.4177 -0.2418
 7171TIP3   OH243003   1.090   5.704   0.941  0.1715 -0.4202 -0.5397
 7171TIP3    H143004   1.063   5.617   0.909 -0.9832 -0.0538 -0.6013
 7171TIP3    H243005   1.186   5.703   0.933  0.1015 -1.2770 -1.6198
 7172TIP3   OH243006   6.476   3.932  12.426 -0.2752 -0.0272 -0.1153
 7172TIP3    H143007   6.546   3.985  12.465  0.0339 -0.6166  0.1415
 7172TIP3    H243008   6.445   3.985  12.352 -0.0170  0.5398  0.1729
 7173TIP3   OH243009   5.452   1.856  14.260 -0.1932  0.2521  1.1900
 7173TIP3    H143010   5.503   1.935  14.279  1.3945 -0.5082  0.3474
 7173TIP3    H243011   5.484   1.790  14.322  0.6608 -0.5307 -0.0279
 7174TIP3   OH243012   1.893   6.124  14.394 -0.0624  0.4033  0.1322
 7174TIP3    H143013   1.890   6.187  14.322  0.9923 -0.9931 -1.1763
 7174TIP3    H243014   1.801   6.110  14.417 -0.5099 -0.0981 -1.8187
 7175TIP3   OH243015   6.173   3.800  10.927 -0.0215  0.7973  0.2393
 7175TIP3    H143016   6.238   3.845  10.872 -1.2385 -0.0127 -2.0036
 7175TIP3    H243017   6.225   3.742  10.983  1.2269 -1.1031 -2.6565
 7176TIP3   OH243018   0.886   2.380   2.250  0.5017 -0.3151 -0.0536
 7176TIP3    H143019   0.797   2.406   2.274  0.8031  1.3856 -0.7090
 7176TIP3    H243020   0.876   2.292   2.213 -1.0277  0.1565 -0.8402
 7177TIP3   OH243021   2.587   0.642   4.534 -0.6640 -0.1180  0.4352
 7177TIP3    H143022   2.672   0.687   4.536 -1.5544  1.7785 -1.1729
 7177TIP3    H243023   2.608   0.554   4.503  0.8464 -0.1139  1.3155
 7178TIP3   OH243024   0.689   2.282   1.686  0.3136 -0.2838 -0.4514
 7178TIP3    H143025   0.767   2.313   1.731 -0.8703  0.7307  1.0250
 7178TIP3    H243026   0.675   2.194   1.720 -0.1936  0.2270  0.7186
 7179TIP3   OH243027   1.997   5.007  15.633 -0.2851  0.2278 -0.3223
 7179TIP3    H143028   1.912   5.018  15.591  0.5349 -1.1433 -2.5116
 7179TIP3    H243029   1.991   4.921  15.676  0.2197 -0.2538 -1.1797
 7180TIP3   OH243030   2.488   1.415  11.747 -0.7080 -0.1367 -0.0558
 7180TIP3    H143031   2.572   1.386  11.783 -0.2234  0.4514 -0.6725
 7180TIP3    H243032   2.451   1.473  11.813 -0.0445  0.5698 -0.2861
 7181TIP3   OH243033   4.464   6.113   1.068 -0.0386  0.2717  0.1444
 7181TIP3    H143034   4.511   6.092   0.988 -1.1378  1.1922 -0.7929
 7181TIP3    H243035   4.380   6.148   1.037 -0.7300  0.0797  1.7143
 7182TIP3   OH243036   2.261   5.043  14.897 -0.6144  0.0042  0.9313
 7182TIP3    H143037   2.283   4.949  14.890 -2.0071 -0.3788  1.4783
 7182TIP3    H243038   2.316   5.074  14.969 -1.6501 -0.8866  2.1346
 7183TIP3   OH243039   5.920   0.189   4.441  0.2555  0.2690  0.3545
 7183TIP3    H143040   5.959   0.189   4.353 -1.6286  1.1617 -0.5364
 7183TIP3    H243041   5.906   0.097   4.461 -1.3951  0.0953 -1.3136
 7184TIP3   OH243042   2.548   3.847   1.001  0.2196 -0.4746  0.4819
 7184TIP3    H143043   2.486   3.775   1.013  0.6056 -1.2582 -1.7273
 7184TIP3    H243044   2.627   3.806   0.966  0.4066  0.9807 -0.9618
 7185TIP3   OH243045   5.217   6.172   3.976  0.0961 -0.1501 -0.7043
 7185TIP3    H143046   5.144   6.215   3.930 -0.0099  0.0098 -0.3886
 7185TIP3    H243047   5.198   6.079   3.967 -0.5097 -0.0958 -0.0446
 7186TIP3   OH243048   4.720   3.033   1.653  0.0103  0.1646  0.6240
 7186TIP3    H143049   4.652   2.966   1.665 -0.4363  0.5833  0.4657
 7186TIP3    H243050   4.699   3.074   1.569  1.2652 -0.6183 -0.0992
 7187TIP3   OH243051   5.882   4.972   2.510  0.2185  0.4265 -0.4082
 7187TIP3    H143052   5.918   5.004   2.593  0.1442  0.6013 -0.4435
 7187TIP3    H243053   5.790   5.000   2.511  0.8421  2.8609 -1.7498
 7188TIP3   OH243054   3.520   5.829   3.417 -0.4580 -0.0323  0.5261
 7188TIP3    H143055   3.426   5.808   3.421 -0.2464 -0.8610  1.9136
 7188TIP3    H243056   3.561   5.763   3.472  1.0199 -0.0134 -0.5001
 7189TIP3   OH243057   5.589   6.647   0.014  0.5632  0.1997  0.1241
 7189TIP3    H143058   5.651   6.575   0.004  2.0748  1.4048  0.4330
 7189TIP3    H243059   5.506   6.604   0.039  0.7921 -1.5731 -1.8653
 7190TIP3   OH243060   3.698   3.561  13.163  0.3208 -0.2990  0.4163
 7190TIP3    H143061   3.740   3.645  13.179  1.4920 -1.0888  1.8026
 7190TIP3    H243062   3.604   3.578  13.172  0.6181  0.3507  3.7780
 7191TIP3   OH243063   0.198   2.185  16.082 -0.5861  0.6906  0.1420
 7191TIP3    H143064   0.275   2.212  16.033  0.7411  1.1934  2.3754
 7191TIP3    H243065   0.154   2.267  16.105 -0.6882  0.5143  0.5832
 7192TIP3   OH243066   5.977   4.762  13.063  0.3832 -0.1388 -0.0927
 7192TIP3    H143067   6.055   4.707  13.072 -0.5662 -1.7032 -0.7998
 7192TIP3    H243068   5.943   4.769  13.153 -0.7523 -2.7886 -0.2106
 7193TIP3   OH243069   1.272   1.120  13.203 -0.3763  0.1746  0.2162
 7193TIP3    H143070   1.184   1.131  13.240 -0.0115  0.6326  0.9565
 7193TIP3    H243071   1.288   1.201  13.154 -0.6573 -0.2213 -0.5481
 7194TIP3   OH243072   6.256   0.326   3.175  0.4378 -0.7634  0.2161
 7194TIP3    H143073   6.214   0.251   3.217 -1.3649 -0.8146 -1.5130
 7194TIP3    H243074   6.319   0.286   3.114  0.8165 -0.7976  0.6274
 7195TIP3   OH243075   6.420   1.079   5.579  0.3349 -0.2791 -0.4006
 7195TIP3    H143076   6.434   0.987   5.601  0.2983 -0.5220 -1.3547
 7195TIP3    H243077   6.494   1.101   5.521 -0.4831 -0.1469 -1.4167
 7196TIP3   OH243078   3.291   5.011  14.635 -0.1533  0.3238 -0.1729
 7196TIP3    H143079   3.377   5.039  14.607  0.3405  0.2470  1.1704
 7196TIP3    H243080   3.274   5.061  14.715 -0.4720 -1.1013  0.6882
 7197TIP3   OH243081   3.361   4.225   2.265  0.3576 -0.2650 -0.3334
 7197TIP3    H143082   3.296   4.156   2.273  0.3556 -0.2085  0.2090
 7197TIP3    H243083   3.443   4.179   2.245  0.4547 -0.4736  0.5069
 7198TIP3   OH243084   2.563   6.051  13.677 -0.4912  0.1211 -0.1601
 7198TIP3    H143085   2.583   5.959  13.659  0.7469  0.7020 -2.0730
 7198TIP3    H243086   2.647   6.088  13.705 -0.8744  0.7802  0.1253
 7199TIP3   OH243087   4.396   0.153  15.307  0.1745 -0.3949  0.2743
 7199TIP3    H143088   4.404   0.110  15.221  0.2404  0.4950 -0.1763
 7199TIP3    H243089   4.370   0.243  15.286  1.4602  0.1955  1.1335
 7200TIP3   OH243090   2.697   4.516   5.717  0.2392  0.0547 -0.0135
 7200TIP3    H143091   2.676   4.458   5.790  3.0810 -1.5005 -0.2828
 7200TIP3    H243092   2.655   4.475   5.641  1.0647 -0.9240  0.0361
 7201TIP3   OH243093   3.647   2.823  16.668 -0.1989 -0.1317 -0.5929
 7201TIP3    H143094   3.728   2.873  16.653  0.7702 -1.2510  0.5904
 7201TIP3    H243095   3.675   2.749  16.723 -1.9628 -0.7959 -0.5296
 7202TIP3   OH243096   0.848   5.263  15.482  0.2021  0.3995 -0.1039
 7202TIP3    H143097   0.897   5.181  15.480  0.8277  0.7585 -2.0925
 7202TIP3    H243098   0.904   5.324  15.529  0.2202 -0.0161  0.4201
 7203TIP3   OH243099   3.291   1.720  15.813  0.7299 -0.2757 -0.7013
 7203TIP3    H143100   3.327   1.641  15.854  3.2095  0.6796 -0.8132
 7203TIP3    H243101   3.243   1.689  15.737  1.4816 -1.7061 -0.6275
 7204TIP3   OH243102   6.578   6.176   6.102 -0.0357  0.1160 -0.1051
 7204TIP3    H143103   6.641   6.226   6.154  1.3246 -0.1187 -1.4632
 7204TIP3    H243104   6.498   6.178   6.154 -0.0965  3.7054 -0.0623
 7205TIP3   OH243105   6.254   5.139  15.747 -0.0021 -0.8303 -0.3506
 7205TIP3    H143106   6.313   5.202  15.707  1.3747 -2.0360 -0.2699
 7205TIP3    H243107   6.208   5.189  15.814  2.0374 -0.1879  0.6473
 7206TIP3   OH243108   1.867   5.991   3.637 -0.1520  0.5793  0.2878
 7206TIP3    H143109   1.944   5.936   3.625 -0.6702 -0.2188  0.4637
 7206TIP3    H243110   1.800   5.931   3.671 -0.3984  1.5728  1.6345
 7207TIP3   OH243111   4.225   1.111   1.541  0.3415 -0.5779  0.1101
 7207TIP3    H143112   4.206   1.190   1.592  1.1620  1.3291 -2.3185
 7207TIP3    H243113   4.312   1.127   1.504  0.0249 -2.1074 -1.4196
 7208TIP3   OH243114   4.085   6.109  15.960 -0.0557 -0.0787  0.2327
 7208TIP3    H143115   4.100   6.128  15.868  0.3111 -0.9096  0.1116
 7208TIP3    H243116   4.015   6.044  15.960 -0.1754  0.0480  0.5481
 7209TIP3   OH243117   3.864   5.686   1.828  0.2919  0.0387  0.5845
 7209TIP3    H143118   3.885   5.773   1.863 -2.8833  0.9512  0.5489
 7209TIP3    H243119   3.850   5.632   1.906 -0.4959  0.3576  0.6779
 7210TIP3   OH243120   5.395   4.337  14.361  0.6615  0.6865 -0.7888
 7210TIP3    H143121   5.360   4.252  14.386 -1.6577  1.1885 -2.0159
 7210TIP3    H243122   5.436   4.322  14.276  0.9696  0.6406 -0.6329
 7211TIP3   OH243123   1.039   6.671   3.286 -0.4359  0.1604  0.0141
 7211TIP3    H143124   0.944   6.666   3.285 -0.4641  0.7226 -0.5943
 7211TIP3    H243125   1.060   6.714   3.369 -0.8643  2.4636 -0.9994
 7212TIP3   OH243126   3.738   2.677  13.898  0.4173  0.2315 -0.1293
 7212TIP3    H143127   3.661   2.728  13.921  0.3392 -0.4854  1.2723
 7212TIP3    H243128   3.756   2.700  13.807  0.0929  2.3751  0.2992
 7213TIP3   OH243129   3.561   6.518  14.922 -0.3307 -0.0345  0.3819
 7213TIP3    H143130   3.473   6.482  14.924 -0.4828  0.3189  0.1431
 7213TIP3    H243131   3.550   6.610  14.948 -0.2966  0.5297 -1.4770
 7214TIP3   OH243132   6.277   2.470   3.134  0.4675 -0.1433 -0.4590
 7214TIP3    H143133   6.352   2.519   3.099  2.2348  0.5843  3.7915
 7214TIP3    H243134   6.314   2.385   3.159 -0.6913 -0.6530 -0.4286
 7215TIP3   OH243135   1.425   0.917   2.255  0.3603  0.1236 -0.0156
 7215TIP3    H143136   1.474   0.989   2.216  0.4731 -1.4767 -3.1391
 7215TIP3    H243137   1.411   0.943   2.346  2.5290  2.9148 -0.3738
 7216TIP3   OH243138   5.918   2.682   2.290  0.3245  0.0071 -0.2862
 7216TIP3    H143139   5.875   2.633   2.360  1.8708  0.5029  1.0742
 7216TIP3    H243140   5.910   2.626   2.213 -1.0466 -0.7460  0.3683
 7217TIP3   OH243141   5.753   0.141   3.572  0.6355 -0.5774 -0.1521
 7217TIP3    H143142   5.716   0.163   3.658 -0.5098  0.5160 -0.8781
 7217TIP3    H243143   5.848   0.146   3.585  0.5547  3.0985  0.2813
 7218TIP3   OH243144   3.065   5.424  15.413  0.3771  0.0468  0.3487
 7218TIP3    H143145   3.083   5.337  15.378 -0.0947 -0.1868  0.6683
 7218TIP3    H243146   3.126   5.434  15.486  0.5126  0.0298  0.2373
 7219TIP3   OH243147   6.743   0.349   6.537 -0.1898  0.0718  0.1659
 7219TIP3    H143148   6.667   0.402   6.514 -0.7585  1.3627  4.2885
 7219TIP3    H243149   6.812   0.412   6.556  0.8327 -0.9360 -0.0682
 7220TIP3   OH243150   3.729   0.272  11.806 -0.1914 -0.2302 -0.3208
 7220TIP3    H143151   3.682   0.221  11.740  0.6251  0.4680 -1.4892
 7220TIP3    H243152   3.752   0.209  11.874 -3.0457 -0.5233  0.4624
 7221TIP3   OH243153   2.401   5.874  15.732 -0.5830  0.2388 -0.0072
 7221TIP3    H143154   2.484   5.848  15.691 -1.5490  0.0464 -1.9099
 7221TIP3    H243155   2.376   5.797  15.784 -0.6104 -0.5328 -1.1231
 7222TIP3   OH243156   2.215   5.104  12.218 -0.3325  0.2571  0.5009
 7222TIP3    H143157   2.279   5.061  12.162  0.4075  1.6118  0.2616
 7222TIP3    H243158   2.254   5.100  12.306 -0.6106 -0.1948  0.6079
 7223TIP3   OH243159   0.736   3.071  14.452 -0.0613  0.1663 -0.3191
 7223TIP3    H143160   0.819   3.088  14.498 -0.0264 -1.1321  0.1476
 7223TIP3    H243161   0.737   3.131  14.378  0.8843  0.8025  0.1815
 7224TIP3   OH243162   3.807   4.954  12.786  0.2716 -0.3880 -0.0046
 7224TIP3    H143163   3.774   4.914  12.706  0.0377  0.0740 -0.1415
 7224TIP3    H243164   3.871   5.019  12.756  0.1142 -0.1469  0.1816
 7225TIP3   OH243165   1.338   2.305  14.876  0.3208 -0.8514  0.1239
 7225TIP3    H143166   1.278   2.373  14.847  0.6314 -0.0366  1.2835
 7225TIP3    H243167   1.387   2.346  14.948  1.9839 -1.6112 -0.5254
 7226TIP3   OH243168   3.244   0.073  12.505 -0.5426 -0.0554 -0.0980
 7226TIP3    H143169   3.252   0.119  12.421  2.4870  0.9566  0.6102
 7226TIP3    H243170   3.232  -0.019  12.481  0.7209  0.1532 -1.6843
 7227TIP3   OH243171   4.075   4.744   5.448 -0.2521 -0.0375 -0.1819
 7227TIP3    H143172   4.134   4.729   5.374  0.3334  0.0174  0.2732
 7227TIP3    H243173   4.000   4.790   5.410 -0.2929 -0.6642 -0.8781
 7228TIP3   OH243174   0.976   2.928   1.296 -0.7453 -0.2373 -0.4951
 7228TIP3    H143175   0.957   2.975   1.215 -2.2160 -1.1365 -0.7136
 7228TIP3    H243176   0.939   2.984   1.365  0.0173  0.2583 -0.4709
 7229TIP3   OH243177   4.897   3.350   5.045  0.0286  0.5061 -0.0561
 7229TIP3    H143178   4.889   3.432   4.995  0.0718  1.0589  0.8281
 7229TIP3    H243179   4.898   3.282   4.978  2.0826  1.3354 -0.9524
 7230TIP3   OH243180   3.207   5.318   5.840 -0.6188  0.0621  0.4246
 7230TIP3    H143181   3.238   5.408   5.834  0.8270 -0.3744  0.9947
 7230TIP3    H243182   3.264   5.269   5.783 -1.0600 -0.5874  0.5295
 7231TIP3   OH243183   2.854   2.599   5.970 -0.0615 -0.3135  0.0789
 7231TIP3    H143184   2.921   2.612   5.903 -0.2678 -1.3871 -0.3571
 7231TIP3    H243185   2.902   2.599   6.052  0.9033 -3.4087 -0.3486
 7232TIP3   OH243186   6.578   1.244  15.402  0.2375 -0.1972 -0.2435
 7232TIP3    H143187   6.506   1.307  15.409  1.1405  0.6878  2.0243
 7232TIP3    H243188   6.561   1.182  15.473  0.2731 -1.6036 -1.4145
 7233TIP3   OH243189   2.000   1.213   2.972 -0.3590  0.1157  0.5460
 7233TIP3    H143190   2.005   1.172   3.058 -0.2383  0.3199  0.6388
 7233TIP3    H243191   1.993   1.140   2.911  0.1716 -0.0543  0.6839
 7234TIP3   OH243192   0.395   2.112  12.789  0.2168 -0.0568 -0.2840
 7234TIP3    H143193   0.311   2.109  12.743 -0.1453 -0.0355  0.3680
 7234TIP3    H243194   0.420   2.204  12.788  0.4274 -0.1133 -0.8117
 7235TIP3   OH243195   3.683   3.178   6.169 -0.0572 -0.0360 -0.4429
 7235TIP3    H143196   3.595   3.215   6.176  0.3821  0.9035  0.3563
 7235TIP3    H243197   3.716   3.210   6.085 -0.0563  0.5729 -0.2143
 7236TIP3   OH243198   0.046   0.097   0.071 -0.0389  0.3890 -0.1878
 7236TIP3    H143199   0.019   0.013   0.107 -0.3642  0.7452  0.4130
 7236TIP3    H243200  -0.006   0.107  -0.008  0.2760 -0.1425 -0.4698
 7237TIP3   OH243201   5.153   0.585  15.817 -0.1680 -0.2783  0.0258
 7237TIP3    H143202   5.102   0.632  15.751  0.0762  0.1662  0.1478
 7237TIP3    H243203   5.159   0.496  15.784 -0.4094 -0.1580 -0.3443
 7238TIP3   OH243204   0.369   2.031   6.117  0.0174 -0.5027 -0.0454
 7238TIP3    H143205   0.291   2.012   6.169  0.5720  1.0270  1.4304
 7238TIP3    H243206   0.435   1.970   6.149 -0.3855 -1.4300 -0.9207
 7239TIP3   OH243207   5.956   5.749   2.796 -1.2852  0.0354 -0.0969
 7239TIP3    H143208   5.966   5.767   2.889 -0.8290 -0.4791 -0.0388
 7239TIP3    H243209   5.890   5.681   2.791 -0.5546 -0.6930 -0.0639
 7240TIP3   OH243210   6.168   6.263  16.133 -0.4608 -0.3862 -0.6912
 7240TIP3    H143211   6.224   6.289  16.060  0.2062  1.0658  0.2895
 7240TIP3    H243212   6.095   6.215  16.092  1.0210 -1.5713 -2.0669
 7241TIP3   OH243213   5.462   1.860  16.526 -0.4444  0.3476 -0.1393
 7241TIP3    H143214   5.512   1.780  16.512 -0.4800  0.5167 -1.3959
 7241TIP3    H243215   5.372   1.830  16.537 -0.6503  0.2451 -1.7933
 7242TIP3   OH243216   6.213   3.489  14.368 -0.0669 -0.5094 -0.0979
 7242TIP3    H143217   6.172   3.412  14.329 -0.1251  0.1977 -1.5081
 7242TIP3    H243218   6.204   3.557  14.301 -0.7159  0.9481  1.4049
 7243TIP3   OH243219   1.650   4.780  13.190  0.0225  0.4270 -0.5768
 7243TIP3    H143220   1.661   4.875  13.188  0.7501  0.3716  0.1440
 7243TIP3    H243221   1.718   4.748  13.130  1.3983  0.2663  0.9952
 7244TIP3   OH243222   4.701   1.276  11.602  0.1715 -0.2732 -0.7212
 7244TIP3    H143223   4.668   1.343  11.662  0.0133 -0.9024 -0.0981
 7244TIP3    H243224   4.787   1.308  11.576  2.0445 -1.7839  2.9038
 7245TIP3   OH243225   1.156   5.802  16.777  0.4898 -0.5858  0.2348
 7245TIP3    H143226   1.175   5.713  16.804  0.9103 -0.7939 -0.6880
 7245TIP3    H243227   1.221   5.856  16.822  0.2794 -0.7506  0.7359
 7246TIP3   OH243228   3.707   3.822   2.048 -0.8786 -0.2932  0.0856
 7246TIP3    H143229   3.642   3.774   1.997 -0.9629 -1.5584  1.3478
 7246TIP3    H243230   3.699   3.788   2.137  0.2359  0.8656  0.6696
 7247TIP3   OH243231   3.547   0.779   5.445  0.3845 -0.6074  0.2109
 7247TIP3    H143232   3.566   0.782   5.351  2.1726  0.6020  0.5558
 7247TIP3    H243233   3.628   0.747   5.485  0.5737  1.3198  1.5190
 7248TIP3   OH243234   0.369   6.348  16.562  0.2284 -0.1837  0.1119
 7248TIP3    H143235   0.347   6.406  16.489  0.0392 -0.4033 -0.0079
 7248TIP3    H243236   0.308   6.372  16.632 -0.2513 -0.6277 -0.1381
 7249TIP3   OH243237   0.857   5.701   5.776 -0.0420  0.0085  0.3488
 7249TIP3    H143238   0.773   5.741   5.754 -1.0282 -1.4147  1.3374
 7249TIP3    H243239   0.853   5.614   5.737  0.4540 -0.5323  1.4437
 7250TIP3   OH243240   0.067   3.379  14.274  0.5544  0.5137  0.2424
 7250TIP3    H143241   0.090   3.440  14.343  0.8431 -0.2054  0.7966
 7250TIP3    H243242   0.142   3.320  14.268 -0.3128 -0.6678  0.7201
 7251TIP3   OH243243   2.902   6.581   3.381  0.3139 -0.1039  0.2510
 7251TIP3    H143244   2.884   6.662   3.333 -1.9915  0.3365  1.7202
 7251TIP3    H243245   2.996   6.587   3.402  0.1782  2.2841  0.4728
 7252TIP3   OH243246   3.134   5.023   1.414 -0.3728  0.1088 -0.7137
 7252TIP3    H143247   3.069   5.092   1.396  0.9040  0.8711 -2.8017
 7252TIP3    H243248   3.083   4.951   1.450 -1.9796  1.6008  0.1526
 7253TIP3   OH243249   1.868   3.877   2.372  0.8100 -0.2416  0.2757
 7253TIP3    H143250   1.798   3.872   2.307 -1.3704 -1.7307  2.5530
 7253TIP3    H243251   1.944   3.839   2.329  0.0724  0.7026 -2.0341
 7254TIP3   OH243252   4.151   6.077  13.560 -0.1957  0.4856  0.0770
 7254TIP3    H143253   4.209   6.035  13.624 -0.0058  2.4039  1.2606
 7254TIP3    H243254   4.088   6.126  13.613 -0.7157  1.2523 -1.1956
 7255TIP3   OH243255   1.660   6.089   6.406  0.0275 -0.0602 -0.2165
 7255TIP3    H143256   1.732   6.067   6.465 -0.2887 -1.8893 -0.4651
 7255TIP3    H243257   1.609   6.009   6.399 -0.9208  0.6262 -1.6036
 7256TIP3   OH243258   0.039   5.748   6.584  0.2566 -0.3585 -0.1647
 7256TIP3    H143259  -0.013   5.742   6.664  1.2150 -1.0487  0.4318
 7256TIP3    H243260   0.026   5.837   6.553 -1.2740 -0.5196 -0.0424
 7257TIP3   OH243261   2.562   4.822  13.070 -0.3669 -0.2980 -0.5768
 7257TIP3    H143262   2.535   4.908  13.039 -1.4566 -1.1670 -2.2150
 7257TIP3    H243263   2.577   4.772  12.990 -0.0597 -1.7310  0.3401
 7258TIP3   OH243264   6.197   6.411   6.579 -0.2186 -0.0920  0.1566
 7258TIP3    H143265   6.107   6.440   6.595  0.0897  0.5534  0.7571
 7258TIP3    H243266   6.187   6.325   6.538 -1.1422  0.6954 -1.3871
 7259TIP3   OH243267   0.624   2.673   0.593  0.2124  0.1704  0.6477
 7259TIP3    H143268   0.586   2.734   0.530  0.2057 -1.1577 -0.6977
 7259TIP3    H243269   0.700   2.636   0.547  0.9621  0.0952  1.9134
 7260TIP3   OH243270   3.901   6.489  14.723  0.0607 -0.1317 -0.4890
 7260TIP3    H143271   3.973   6.489  14.785 -0.4618 -0.3086  0.1271
 7260TIP3    H243272   3.853   6.569  14.742 -0.0492 -0.1378 -0.7341
 7261TIP3   OH243273   2.990   2.809   4.352  0.1511 -0.5354 -0.0787
 7261TIP3    H143274   2.990   2.715   4.367 -0.5966 -1.0628 -2.7036
 7261TIP3    H243275   2.897   2.833   4.349  0.2913 -0.0316 -0.8945
 7262TIP3   OH243276   4.635   1.878  14.609 -0.3024 -0.0160  0.1991
 7262TIP3    H143277   4.570   1.873  14.539 -1.4269  0.1625  1.1941
 7262TIP3    H243278   4.706   1.821  14.580 -0.9338 -0.2751 -0.8845
 7263TIP3   OH243279   4.200   6.486   2.341  0.4060  0.0590 -0.6301
 7263TIP3    H143280   4.293   6.465   2.330  0.1015 -0.9626 -1.4447
 7263TIP3    H243281   4.184   6.558   2.281  0.6077  0.0442 -0.7010
 7264TIP3   OH243282   4.510   0.669  14.996  0.2881  0.3640 -0.1232
 7264TIP3    H143283   4.458   0.617  15.057 -1.1322 -1.5870 -2.8257
 7264TIP3    H243284   4.566   0.606  14.952  1.5521  1.7792 -0.6265
 7265TIP3   OH243285   1.580   2.196   5.276 -0.1030 -0.7213 -0.1531
 7265TIP3    H143286   1.644   2.243   5.329  0.0894 -1.5480  0.3701
 7265TIP3    H243287   1.628   2.171   5.197 -0.1067 -0.3508 -0.2736
 7266TIP3   OH243288   2.523   1.718  13.004  0.2757 -0.2107  0.5722
 7266TIP3    H143289   2.500   1.628  13.026  0.9888 -0.0855  1.9750
 7266TIP3    H243290   2.460   1.772  13.052 -0.1972  0.0402 -0.3246
 7267TIP3   OH243291   0.769   5.349  11.314  0.5650  0.0346 -0.2711
 7267TIP3    H143292   0.735   5.377  11.229  1.8366  1.8133 -0.2493
 7267TIP3    H243293   0.861   5.331  11.298  0.5592 -0.7725  0.5123
 7268TIP3   OH243294   6.427   0.626   1.677  0.2508 -0.0721 -0.0565
 7268TIP3    H143295   6.337   0.594   1.683  0.4460 -1.4216 -2.8772
 7268TIP3    H243296   6.480   0.548   1.666  1.4792  0.8394 -0.8953
 7269TIP3   OH243297   1.026   6.457   1.925 -0.3569  0.5266 -0.3337
 7269TIP3    H143298   1.054   6.516   1.995 -0.0270  0.2701 -0.2474
 7269TIP3    H243299   1.097   6.461   1.861 -0.2115  0.0307 -0.2089
 7270TIP3   OH243300   0.237   1.955   0.752 -0.8730 -0.0942 -0.4543
 7270TIP3    H143301   0.309   1.932   0.810 -1.4767 -0.1902  0.2704
 7270TIP3    H243302   0.212   1.873   0.710 -1.0525 -0.2001 -0.1403
 7271TIP3   OH243303   0.553   0.932  13.574  0.5004  0.0734 -0.2368
 7271TIP3    H143304   0.569   0.896  13.488 -1.8315  0.0418 -0.7287
 7271TIP3    H243305   0.494   1.006  13.559  1.2196  1.0102  1.2082
 7272TIP3   OH243306   3.668   5.122  16.477 -1.0569 -0.2001 -0.0666
 7272TIP3    H143307   3.752   5.138  16.435 -0.5886 -0.3427  0.7879
 7272TIP3    H243308   3.688   5.058  16.546 -1.7821  0.0856  0.4197
 7273TIP3   OH243309   2.877   4.424  16.180  0.0907  0.0399  0.0168
 7273TIP3    H143310   2.888   4.329  16.181  0.4327  0.0571 -0.9898
 7273TIP3    H243311   2.935   4.455  16.111 -1.3714  0.7975 -0.9211
 7274TIP3   OH243312   5.362   6.076   0.345  0.2324  0.0863 -0.1844
 7274TIP3    H143313   5.291   6.021   0.379 -0.5093  0.4357 -1.1349
 7274TIP3    H243314   5.330   6.165   0.353  0.2499  0.2108 -1.2993
 7275TIP3   OH243315   5.832   1.669   2.230  0.0184  0.5305 -0.5806
 7275TIP3    H143316   5.889   1.657   2.154 -0.8809  0.4733 -1.2623
 7275TIP3    H243317   5.873   1.740   2.280  1.7139 -0.7606 -0.0336
 7276TIP3   OH243318   4.888   0.327  13.396 -0.0801 -0.1053  0.6902
 7276TIP3    H143319   4.880   0.374  13.313 -2.4580 -1.3066  0.1274
 7276TIP3    H243320   4.906   0.395  13.461  0.6024  1.0144 -0.6152
 7277TIP3   OH243321   6.624   1.851   5.465 -0.2465  0.3118  0.3690
 7277TIP3    H143322   6.545   1.812   5.504 -0.2950 -0.6452 -0.6339
 7277TIP3    H243323   6.694   1.791   5.489  0.0555  0.7695  0.6351
 7278TIP3   OH243324   3.594   2.763  15.304 -0.0597 -0.0167 -0.1588
 7278TIP3    H143325   3.518   2.814  15.332  0.0606  0.8362 -1.3352
 7278TIP3    H243326   3.651   2.762  15.381  0.4625  2.6278 -0.4022
 7279TIP3   OH243327   2.588   4.049   1.187  0.4557  0.7573  0.1186
 7279TIP3    H143328   2.539   4.030   1.267  0.6029  2.2668  0.5975
 7279TIP3    H243329   2.578   3.971   1.133  1.5711 -0.9175  2.1922
 7280TIP3   OH243330   5.300   4.528  10.598  0.2119  0.2262  0.5691
 7280TIP3    H143331   5.265   4.527  10.688  1.0617 -1.5249  0.9145
 7280TIP3    H243332   5.222   4.531  10.543 -0.3216  1.8542  1.3297
 7281TIP3   OH243333   0.554   5.431  17.180  0.2615 -0.1636  0.2401
 7281TIP3    H143334   0.481   5.448  17.120 -0.2106  1.6553  1.2615
 7281TIP3    H243335   0.630   5.421  17.123 -0.5286 -0.5342 -0.7663
 7282TIP3   OH243336   5.423   3.877   2.099 -0.5629 -0.3878 -0.1193
 7282TIP3    H143337   5.359   3.833   2.154 -0.8363  0.0719 -0.0660
 7282TIP3    H243338   5.502   3.823   2.107 -0.5158 -0.1783  0.9450
 7283TIP3   OH243339   4.977   3.449  11.760 -0.0183 -0.0641 -0.4896
 7283TIP3    H143340   4.893   3.487  11.735  0.3575 -0.3361 -2.3105
 7283TIP3    H243341   4.954   3.376  11.817 -0.7971  2.0724  2.1245
 7284TIP3   OH243342   2.166   5.817   4.510 -0.2825  0.1190  0.2232
 7284TIP3    H143343   2.126   5.741   4.469 -1.0943 -0.2777  1.6512
 7284TIP3    H243344   2.260   5.804   4.499 -0.4603  0.0179 -1.4003
 7285TIP3   OH243345   2.150   3.322   5.732  0.0593  0.1396  0.1676
 7285TIP3    H143346   2.083   3.268   5.690 -1.5761  0.4876  2.1812
 7285TIP3    H243347   2.204   3.260   5.780 -0.2111  0.0353  0.3435
 7286TIP3   OH243348   5.638   2.194  15.321 -0.1945  0.2844  0.1506
 7286TIP3    H143349   5.582   2.118  15.303 -1.0218  1.0067 -0.4333
 7286TIP3    H243350   5.586   2.269  15.292  1.4357  0.9326 -1.2602
 7287TIP3   OH243351   2.746   5.330   2.070  0.2274 -0.1827 -0.3764
 7287TIP3    H143352   2.825   5.296   2.029  0.2346  0.2258 -0.7076
 7287TIP3    H243353   2.678   5.319   2.003  0.2003  0.3187 -0.4326
 7288TIP3   OH243354   0.898   2.742   2.253 -0.2835 -0.0109  0.1205
 7288TIP3    H143355   0.987   2.716   2.228 -0.7586 -0.1327 -1.6293
 7288TIP3    H243356   0.904   2.764   2.346  2.0459  2.0508 -0.4188
 7289TIP3   OH243357   3.357   1.154  10.809 -0.4527 -0.4435  0.3592
 7289TIP3    H143358   3.326   1.242  10.786 -1.1091 -0.6940  0.2563
 7289TIP3    H243359   3.279   1.099  10.801 -0.1451 -0.9589  0.8424
 7290TIP3   OH243360   2.731   2.783   3.718  0.3428 -0.9648  0.5048
 7290TIP3    H143361   2.749   2.849   3.785 -1.2179 -1.0071  0.9880
 7290TIP3    H243362   2.809   2.728   3.717  0.5924 -0.6641  1.9217
 7291TIP3   OH243363   6.754   2.464  15.133 -0.3112 -0.6570 -0.3388
 7291TIP3    H143364   6.724   2.555  15.126 -1.9040 -0.9027  2.0134
 7291TIP3    H243365   6.675   2.412  15.120  0.4374 -1.6772 -0.8721
 7292TIP3   OH243366   2.908   6.656   6.527 -0.1367 -0.2676 -0.0999
 7292TIP3    H143367   2.984   6.713   6.538 -1.7902  2.0053  0.5691
 7292TIP3    H243368   2.901   6.608   6.609  1.4492 -1.7601 -0.7797
 7293TIP3   OH243369   4.246   4.573  13.459  0.2534 -0.0061 -0.7739
 7293TIP3    H143370   4.275   4.664  13.452  0.6221 -0.1036 -0.5443
 7293TIP3    H243371   4.184   4.574  13.532  2.1181 -0.3768  0.9145
 7294TIP3   OH243372   2.181   2.879   2.947  0.6755  0.3025  0.0554
 7294TIP3    H143373   2.262   2.917   2.913 -0.2014  1.4086 -0.8686
 7294TIP3    H243374   2.136   2.952   2.990 -0.5363  0.0951 -0.8101
 7295TIP3   OH243375   1.881   4.729   0.240 -0.4125 -0.3881  0.4981
 7295TIP3    H143376   1.933   4.702   0.164  1.5955  1.0298  1.2796
 7295TIP3    H243377   1.862   4.648   0.286  1.3813 -0.9586  0.3036
 7296TIP3   OH243378   1.906   5.928  17.421 -0.4711  0.9885 -0.1133
 7296TIP3    H143379   1.863   5.989  17.480 -0.4412  0.9307 -0.0325
 7296TIP3    H243380   1.898   5.969  17.335  0.1195  1.4216  0.0286
 7297TIP3   OH243381   2.652   2.939  13.898  0.6687 -0.1835 -0.0614
 7297TIP3    H143382   2.635   2.847  13.880  1.6233 -0.3573 -0.1310
 7297TIP3    H243383   2.735   2.957  13.854  1.3777  0.2397  1.4022
 7298TIP3   OH243384   5.004   0.530   6.148 -0.5317  0.1769  0.1826
 7298TIP3    H143385   4.994   0.502   6.239 -3.6819 -1.6742 -0.5907
 7298TIP3    H243386   4.975   0.621   6.148 -0.6069  0.1568  1.0022
 7299TIP3   OH243387   5.614   2.087  14.277  0.1505  0.2991 -0.0227
 7299TIP3    H143388   5.605   2.164  14.333  0.3407  0.3592 -0.0751
 7299TIP3    H243389   5.706   2.085  14.252 -0.0160  0.5163 -0.6823
 7300TIP3   OH243390   6.575   0.704   5.421 -0.4407  0.1078 -0.1640
 7300TIP3    H143391   6.524   0.658   5.354  0.5752 -0.2996 -0.6806
 7300TIP3    H243392   6.594   0.789   5.382  2.3883 -1.0319 -1.5949
 7301TIP3   OH243393   2.755   2.975  12.745 -0.3445 -0.4053 -0.0061
 7301TIP3    H143394   2.698   3.047  12.772 -0.5950 -1.2482  1.8255
 7301TIP3    H243395   2.698   2.899  12.743  0.3143 -0.9079 -0.0732
 7302TIP3   OH243396   0.186   5.298   5.714  0.0605 -0.2435 -0.3444
 7302TIP3    H143397   0.160   5.361   5.648  1.6219 -0.8841 -1.6379
 7302TIP3    H243398   0.136   5.322   5.792 -1.8460  0.5133 -1.7456
 7303TIP3   OH243399   2.002   2.036  12.939 -0.2617 -0.2182  0.1772
 7303TIP3    H143400   1.931   2.005  12.995  1.7687  0.2678  3.3106
 7303TIP3    H243401   1.971   2.119  12.904 -2.4034 -1.5225 -1.2478
 7304TIP3   OH243402   4.430   4.004  13.076  0.5103  0.0337  0.3574
 7304TIP3    H143403   4.367   4.076  13.077  1.4444  0.8663  0.2373
 7304TIP3    H243404   4.453   3.991  13.168 -0.0282 -0.4564  0.4299
 7305TIP3   OH243405   3.748   4.173   1.161 -0.2634 -0.1130 -0.1695
 7305TIP3    H143406   3.777   4.252   1.207  0.9217 -0.3716 -0.4341
 7305TIP3    H243407   3.663   4.152   1.200  0.6957 -0.3336  1.9627
 7306TIP3   OH243408   6.315   0.508   6.145  0.6383 -0.6686  0.2172
 7306TIP3    H143409   6.301   0.469   6.231 -1.2591 -1.2134 -0.3073
 7306TIP3    H243410   6.289   0.600   6.156  0.4908 -0.7140  0.2433
 7307TIP3   OH243411   4.339   5.536  14.223 -0.5042 -0.3224 -0.7296
 7307TIP3    H143412   4.285   5.599  14.175  0.4080 -0.9224 -2.6861
 7307TIP3    H243413   4.383   5.589  14.290 -0.5341  0.9312 -1.6539
 7308TIP3   OH243414   3.700   0.834   2.378  0.2489 -0.2057 -0.0211
 7308TIP3    H143415   3.768   0.783   2.422  1.0461  2.0067  1.4375
 7308TIP3    H243416   3.632   0.846   2.445  0.1514  0.7781 -0.2901
 7309TIP3   OH243417   0.480   1.894   5.099 -0.6235  0.3930  0.5187
 7309TIP3    H143418   0.561   1.853   5.129 -0.8633 -1.1055 -0.7751
 7309TIP3    H243419   0.416   1.874   5.167 -0.4157 -0.2630  0.5232
 7310TIP3   OH243420   6.037   5.624   1.361 -0.0753  0.5989  0.7320
 7310TIP3    H143421   6.054   5.597   1.451  1.4688  0.6583  0.4898
 7310TIP3    H243422   5.949   5.594   1.342 -0.2575  0.2239  2.1288
 7311TIP3   OH243423   1.264   4.517   2.672  0.0031  0.7366  0.0121
 7311TIP3    H143424   1.196   4.570   2.631  1.1307  0.7221 -2.0491
 7311TIP3    H243425   1.338   4.577   2.683  0.9747 -0.1137 -1.4786
 7312TIP3   OH243426   1.249   2.273  14.511  0.3388  0.0357 -0.2129
 7312TIP3    H143427   1.325   2.238  14.557 -0.3412  0.1051  0.9825
 7312TIP3    H243428   1.174   2.229  14.550 -0.3918  1.4187  0.0011
 7313TIP3   OH243429   4.372   6.712   4.904  0.2443 -0.1717  0.1559
 7313TIP3    H143430   4.287   6.721   4.862  1.4089  0.6863 -2.2209
 7313TIP3    H243431   4.383   6.618   4.917 -1.0383 -0.2909  0.4784
 7314TIP3   OH243432   4.274   3.923   6.339 -0.4189  0.4069  0.2041
 7314TIP3    H143433   4.198   3.978   6.318 -1.3321 -1.0063 -0.2901
 7314TIP3    H243434   4.237   3.837   6.358  0.8999  0.1690  1.9043
 7315TIP3   OH243435   5.410   5.590  17.140 -0.1400 -0.2756  0.0769
 7315TIP3    H143436   5.420   5.662  17.079  0.0564  0.3530  0.8362
 7315TIP3    H243437   5.318   5.564  17.133 -0.5203  0.8507  0.6670
 7316TIP3   OH243438   1.432   0.432   2.705 -0.6430  0.0133 -0.0376
 7316TIP3    H143439   1.394   0.516   2.729 -0.4656 -0.3785  1.8269
 7316TIP3    H243440   1.386   0.406   2.625 -0.7907  1.7843 -0.5644
 7317TIP3   OH243441   2.962   1.129  12.831 -0.0667  0.0678  0.3459
 7317TIP3    H143442   2.888   1.159  12.778 -0.7889 -2.0615  0.0564
 7317TIP3    H243443   3.036   1.182  12.802 -0.7424 -0.1051 -1.8198
 7318TIP3   OH243444   6.001   6.764   5.190 -0.2371 -0.1685 -0.0491
 7318TIP3    H143445   6.004   6.859   5.184  0.6971 -0.1186  1.0044
 7318TIP3    H243446   6.062   6.742   5.260 -0.9006 -1.5074  0.1389
 7319TIP3   OH243447   4.417   2.249   4.907 -0.0673 -0.6554 -0.5264
 7319TIP3    H143448   4.477   2.242   4.833 -0.5727 -0.6368 -0.9382
 7319TIP3    H243449   4.458   2.196   4.976  0.4486 -0.5958 -0.7837
 7320TIP3   OH243450   3.743   4.990  17.488  0.2215 -0.0531  0.3748
 7320TIP3    H143451   3.701   5.008  17.572  0.3548 -0.2306  0.4799
 7320TIP3    H243452   3.719   5.064  17.433  1.3358  0.8108  1.0119
 7321TIP3   OH243453   1.550   2.754  13.314 -0.0491  0.2829  0.4186
 7321TIP3    H143454   1.607   2.709  13.376 -0.5036 -0.7571  0.0989
 7321TIP3    H243455   1.569   2.713  13.230 -1.3798 -0.2211  0.3338
 7322TIP3   OH243456   2.473   6.476   0.553 -0.1999 -0.0194  0.2570
 7322TIP3    H143457   2.507   6.460   0.641 -0.3586 -0.4485  0.2395
 7322TIP3    H243458   2.380   6.456   0.560 -0.0187 -1.1029 -0.2712
 7323TIP3   OH243459   2.034   5.189  12.992  0.5531  0.1926 -0.8257
 7323TIP3    H143460   2.073   5.149  13.069  0.9864 -1.4088 -1.8310
 7323TIP3    H243461   2.098   5.254  12.964  1.2829 -0.5497 -0.9176
 7324TIP3   OH243462   2.680   2.442  15.717  0.0928  0.7348  0.4344
 7324TIP3    H143463   2.670   2.421  15.624 -1.9940  1.2511  0.5047
 7324TIP3    H243464   2.645   2.530  15.726 -0.8762  0.2376  1.9030
 7325TIP3   OH243465   1.724   4.942   3.880  0.2324 -0.1247 -0.6227
 7325TIP3    H143466   1.813   4.930   3.848  0.0833  1.8306 -1.9002
 7325TIP3    H243467   1.674   4.971   3.803 -1.1558  0.3369  0.4135
 7326TIP3   OH243468   6.435   3.497   2.321  0.1849 -0.0975  0.0052
 7326TIP3    H143469   6.471   3.410   2.303 -1.8011 -0.9081 -0.3669
 7326TIP3    H243470   6.452   3.512   2.413  0.0459 -1.1635  0.2182
 7327TIP3   OH243471   6.590   2.445   3.960 -0.1917 -0.6990  0.0278
 7327TIP3    H143472   6.521   2.378   3.958 -1.5220  0.6110  0.4472
 7327TIP3    H243473   6.605   2.467   3.868  0.1911 -1.4957 -0.1072
 7328TIP3   OH243474   1.555   4.695   5.123  0.1463  0.3116  0.1745
 7328TIP3    H143475   1.483   4.737   5.169 -1.2273 -0.2340 -1.3559
 7328TIP3    H243476   1.603   4.766   5.082 -0.5603  0.5816 -0.1985
 7329TIP3   OH243477   3.230   2.474   4.892  0.1532  0.5390 -0.1706
 7329TIP3    H143478   3.199   2.425   4.968 -0.1348 -2.2298 -1.9510
 7329TIP3    H243479   3.324   2.480   4.904  0.2118 -0.6112  0.0279
 7330TIP3   OH243480   4.671   5.968  13.279  0.4388  0.1564 -0.1733
 7330TIP3    H143481   4.592   5.919  13.256  0.1512 -0.6837  2.2766
 7330TIP3    H243482   4.714   5.914  13.345  1.5827  1.9398  0.6241
 7331TIP3   OH243483   3.032   3.697  14.127 -0.2079  0.0738  0.2630
 7331TIP3    H143484   2.970   3.654  14.068  1.3515  0.0516 -1.4221
 7331TIP3    H243485   3.067   3.771  14.077  0.1905  0.8761  1.6501
 7332TIP3   OH243486   1.719   1.418   4.525  0.2721  0.0783  0.4640
 7332TIP3    H143487   1.663   1.495   4.511  0.0678 -0.4927 -2.4177
 7332TIP3    H243488   1.659   1.344   4.521  0.4582 -0.3557  3.2992
 7333TIP3   OH243489   3.236   5.896   6.034  0.0113 -0.3437 -0.2801
 7333TIP3    H143490   3.226   5.970   6.093  1.9470  0.8082 -1.2828
 7333TIP3    H243491   3.166   5.835   6.059  0.2995  0.3904  2.6645
 7334TIP3   OH243492   6.485   1.809  16.622  0.7670  0.0464  0.0699
 7334TIP3    H143493   6.501   1.762  16.704  0.7632  0.7387  0.4713
 7334TIP3    H243494   6.568   1.852  16.602  0.6325  0.2532 -0.0440
 7335TIP3   OH243495   4.144   0.380   3.258 -0.2951  0.0422  0.4547
 7335TIP3    H143496   4.132   0.433   3.179 -0.3306  0.0850  0.4889
 7335TIP3    H243497   4.191   0.302   3.227  0.7455  0.5950  0.5859
 7336TIP3   OH243498   6.139   5.591  16.591 -0.2078 -0.1461 -0.4201
 7336TIP3    H143499   6.139   5.524  16.659 -0.5613  1.6831  1.4728
 7336TIP3    H243500   6.154   5.673  16.637  1.2823  1.0277 -2.7693
 7337TIP3   OH243501   6.147   2.916  15.663  0.1476 -0.2426 -0.0782
 7337TIP3    H143502   6.118   3.000  15.698  0.9293 -0.0208  0.0387
 7337TIP3    H243503   6.224   2.894  15.715 -1.0446 -1.8923  1.1110
 7338TIP3   OH243504   5.370   0.353  12.028 -0.0888  0.1755  0.3784
 7338TIP3    H143505   5.456   0.318  12.005  0.1311 -1.1005  2.8475
 7338TIP3    H243506   5.318   0.343  11.948  2.0235  1.0546 -1.2027
 7339TIP3   OH243507   6.171   0.387  15.502 -0.2549 -0.2113 -0.2124
 7339TIP3    H143508   6.118   0.440  15.443 -1.4101 -0.5374  0.4826
 7339TIP3    H243509   6.116   0.311  15.521 -0.2717  0.2507  1.8826
 7340TIP3   OH243510   6.744   4.836   4.652 -0.8236 -0.3715  0.2431
 7340TIP3    H143511   6.829   4.874   4.628 -0.8429 -0.2570  0.3541
 7340TIP3    H243512   6.745   4.834   4.747  0.9399 -4.5933  0.3418
 7341TIP3   OH243513   3.471   0.960  11.292 -0.5208  0.2268  0.3758
 7341TIP3    H143514   3.443   1.021  11.224 -1.4452  1.9337  2.1767
 7341TIP3    H243515   3.390   0.917  11.321 -0.4132  0.7124  1.4600
 7342TIP3   OH243516   5.365   0.591   5.312 -0.5804  0.3810 -0.3706
 7342TIP3    H143517   5.401   0.513   5.269 -0.1413  0.4846 -0.1938
 7342TIP3    H243518   5.407   0.593   5.397 -1.1046  0.4379 -0.1070
 7343TIP3   OH243519   5.385   3.986   0.190 -0.2788 -0.3016 -0.1885
 7343TIP3    H143520   5.290   3.975   0.191 -0.3257  0.0902 -0.2762
 7343TIP3    H243521   5.409   3.983   0.098 -0.3123  0.4814 -0.2262
 7344TIP3   OH243522   6.577   4.798   2.788  0.0587  0.2159  0.1808
 7344TIP3    H143523   6.573   4.859   2.714 -1.3752  0.7893  0.7008
 7344TIP3    H243524   6.596   4.713   2.748 -1.6870  0.3255 -0.9675
 7345TIP3   OH243525   0.595   3.268  15.813 -0.4283  0.6068 -0.5641
 7345TIP3    H143526   0.673   3.270  15.869 -0.2931  0.9288 -0.7632
 7345TIP3    H243527   0.553   3.184  15.833  0.5211 -0.0352 -1.2016
 7346TIP3   OH243528   2.072   3.487   1.685 -0.0355  0.0897 -0.0488
 7346TIP3    H143529   2.111   3.555   1.629  0.1131  1.2108  1.3773
 7346TIP3    H243530   2.050   3.417   1.624  2.1669  0.3211 -1.2310
 7347TIP3   OH243531   4.741   3.749  15.666 -0.8830 -0.0309  0.4988
 7347TIP3    H143532   4.751   3.656  15.688 -1.1031 -0.2938 -0.4574
 7347TIP3    H243533   4.647   3.765  15.672 -0.9294 -0.0689 -0.0743
 7348TIP3   OH243534   4.084   5.997   2.218 -0.0184  0.5809  0.1503
 7348TIP3    H143535   4.126   6.076   2.182  0.5150 -0.8002 -2.5133
 7348TIP3    H243536   4.155   5.948   2.259 -0.1884  1.0234  1.0008
 7349TIP3   OH243537   2.713   4.439   4.406  0.5522 -0.2572  0.2483
 7349TIP3    H143538   2.792   4.491   4.392  0.7475 -0.0815  1.7417
 7349TIP3    H243539   2.658   4.495   4.461  0.0824 -1.0042  0.5519
 7350TIP3   OH243540   6.602   6.021   5.162  0.0739  0.1602  0.0059
 7350TIP3    H143541   6.609   6.112   5.132 -0.6907 -0.1391 -1.1382
 7350TIP3    H243542   6.612   6.027   5.257 -1.0668  1.5797  0.0715
 7351TIP3   OH243543   5.786   6.512   6.387  0.1126 -0.3167 -0.5695
 7351TIP3    H143544   5.865   6.469   6.354 -1.2300 -1.4283 -2.5401
 7351TIP3    H243545   5.747   6.553   6.309 -2.2184 -1.3895 -0.0535
 7352TIP3   OH243546   6.286   5.975   2.634 -0.9070 -0.2208  0.5495
 7352TIP3    H143547   6.305   6.053   2.582 -1.6164 -1.3614 -1.5867
 7352TIP3    H243548   6.249   6.008   2.716  0.5196  1.6942  0.4846
 7353TIP3   OH243549   5.039   2.647  16.397  0.2222 -0.2784  0.3739
 7353TIP3    H143550   5.008   2.575  16.452  0.0463  0.7158  1.6280
 7353TIP3    H243551   4.961   2.678  16.351  0.3945 -1.2043 -0.5549
 7354TIP3   OH243552   0.575   4.702   2.594 -0.3223 -0.1605 -0.0562
 7354TIP3    H143553   0.530   4.700   2.679  1.3616 -0.0497  0.8936
 7354TIP3    H243554   0.601   4.794   2.584 -0.8409 -0.0995 -0.8915
 7355TIP3   OH243555   3.568   6.493  17.434 -0.6352  0.4019 -0.1494
 7355TIP3    H143556   3.641   6.440  17.464 -1.8426 -1.0360  0.3274
 7355TIP3    H243557   3.553   6.556  17.505 -1.2007 -0.6887  0.7316
 7356TIP3   OH243558   5.135   1.667  15.412 -0.7995  0.1318 -0.4058
 7356TIP3    H143559   5.042   1.646  15.401 -0.8587 -1.1859  1.9553
 7356TIP3    H243560   5.161   1.617  15.489  1.7936  0.7832 -0.7963
 7357TIP3   OH243561   6.321   2.610  11.836  0.4269  0.0716 -0.3668
 7357TIP3    H143562   6.380   2.653  11.898 -0.2097  0.7048 -0.1855
 7357TIP3    H243563   6.331   2.517  11.854 -0.6596  0.2778  1.5752
 7358TIP3   OH243564   6.373   6.300   2.618 -0.5008  0.6747  0.1319
 7358TIP3    H143565   6.432   6.251   2.675 -0.1172  1.6857  0.6147
 7358TIP3    H243566   6.297   6.319   2.672 -0.3171  1.2715  0.1887
 7359TIP3   OH243567   4.635   0.290  14.234  0.2144  0.3822 -0.0214
 7359TIP3    H143568   4.679   0.359  14.185 -0.6567  1.1899  0.2905
 7359TIP3    H243569   4.621   0.328  14.321  0.8231 -0.6474  0.5371
 7360TIP3   OH243570   0.698   2.768   6.289  0.2649  0.5476 -0.7644
 7360TIP3    H143571   0.695   2.791   6.381  3.0209  0.1114 -0.4822
 7360TIP3    H243572   0.764   2.827   6.251 -0.5234  0.4535 -2.3777
 7361TIP3   OH243573   6.464   3.436  12.027  0.6222 -0.3092 -0.8480
 7361TIP3    H143574   6.498   3.517  12.064 -1.8037  0.3303  0.2005
 7361TIP3    H243575   6.443   3.457  11.936  1.0072 -0.0899 -0.8864
 7362TIP3   OH243576   3.678   4.713  15.670 -0.0185  0.4667 -0.4328
 7362TIP3    H143577   3.730   4.764  15.732  1.1510 -0.3693 -0.7046
 7362TIP3    H243578   3.610   4.775  15.640 -0.9870  0.7366  2.0527
 7363TIP3   OH243579   3.089   5.931  15.952  0.5722 -0.5606 -0.1856
 7363TIP3    H143580   3.127   6.010  15.991  0.4416 -0.2890 -0.6000
 7363TIP3    H243581   3.023   5.964  15.891 -0.3545 -1.0229  0.5369
 7364TIP3   OH243582   2.623   5.170  12.776  0.6110  0.0767  0.4846
 7364TIP3    H143583   2.628   5.078  12.752 -0.9729  0.2428 -0.6621
 7364TIP3    H243584   2.688   5.214  12.722  0.7652 -0.2611  0.3967
 7365TIP3   OH243585   4.020   1.378  14.884  0.3444  0.0667  0.0359
 7365TIP3    H143586   4.000   1.307  14.945 -0.7979 -0.8122 -1.3163
 7365TIP3    H243587   4.071   1.440  14.936  2.1287 -2.1213  1.0497
 7366TIP3   OH243588   1.209   1.305   1.570  0.0079 -0.1179 -0.3898
 7366TIP3    H143589   1.282   1.367   1.580 -1.2471  1.4607 -0.6509
 7366TIP3    H243590   1.212   1.279   1.478  0.6835 -0.6655 -0.2242
 7367TIP3   OH243591   1.084   3.534   1.893 -0.0285  0.2519 -0.1296
 7367TIP3    H143592   1.052   3.483   1.968 -0.2066 -0.1865 -0.4972
 7367TIP3    H243593   1.017   3.602   1.880  0.2919  0.6877  0.4638
 7368TIP3   OH243594   4.222   4.261  16.620 -0.0556 -0.0868  0.5425
 7368TIP3    H143595   4.200   4.199  16.690  1.4637 -0.2561  0.8922
 7368TIP3    H243596   4.304   4.228  16.583 -0.7323  0.0972 -1.2305
 7369TIP3   OH243597   1.192   6.673  13.908 -0.8299 -0.2668 -0.4113
 7369TIP3    H143598   1.274   6.682  13.956 -0.1787  0.0645 -1.5499
 7369TIP3    H243599   1.151   6.595  13.946  0.9181 -1.5831 -1.0777
 7370TIP3   OH243600   1.054   4.912   3.675 -0.4430 -0.5629  0.2160
 7370TIP3    H143601   1.012   4.885   3.594 -0.3702  0.9798 -0.3801
 7370TIP3    H243602   1.095   4.833   3.709 -2.6131 -1.8155  0.1049
 7371TIP3   OH243603   5.417   6.102  14.950  0.0340 -0.6433  0.6645
 7371TIP3    H143604   5.499   6.129  14.993  0.3584 -0.2694 -0.1805
 7371TIP3    H243605   5.445   6.046  14.878 -0.4363 -0.3149  0.2166
 7372TIP3   OH243606   3.750   2.452   6.531 -0.1355 -0.0345  0.6519
 7372TIP3    H143607   3.708   2.394   6.468  0.0408  1.0596 -0.5315
 7372TIP3    H243608   3.745   2.406   6.615 -0.6940 -1.3739 -0.0982
 7373TIP3   OH243609   0.705   2.755   5.721 -0.3402  0.2525 -0.2290
 7373TIP3    H143610   0.621   2.736   5.764 -1.1186 -0.4379 -1.9690
 7373TIP3    H243611   0.686   2.748   5.628  1.0934  2.4968 -0.7665
 7374TIP3   OH243612   0.703   6.190   0.786 -0.1881  0.3419 -0.5934
 7374TIP3    H143613   0.795   6.217   0.785 -0.3058  0.8256  0.3389
 7374TIP3    H243614   0.667   6.232   0.864 -1.5780  1.4259 -1.7583
 7375TIP3   OH243615   4.821   0.132   5.948 -0.0713 -0.0607  0.2578
 7375TIP3    H143616   4.741   0.104   5.902 -1.4409  2.1810  1.1267
 7375TIP3    H243617   4.800   0.122   6.041 -0.4697  3.1257  0.6131
 7376TIP3   OH243618   4.742   1.273  12.859 -0.2204 -0.0389  0.1952
 7376TIP3    H143619   4.697   1.193  12.885  0.7825 -0.5864  0.2956
 7376TIP3    H243620   4.821   1.243  12.815  0.7664  0.8877  1.2821
 7377TIP3   OH243621   0.489   0.379   2.293 -0.0174 -0.4289  0.2999
 7377TIP3    H143622   0.442   0.449   2.247 -2.6964 -2.6444 -0.6832
 7377TIP3    H243623   0.439   0.367   2.374 -1.2298 -2.7883 -0.7171
 7378TIP3   OH243624   6.652   1.937  15.701  0.1158 -0.2926 -0.4771
 7378TIP3    H143625   6.702   1.933  15.782  0.4444  0.3203 -0.6516
 7378TIP3    H243626   6.569   1.893  15.723 -0.4581  1.2656  0.6702
 7379TIP3   OH243627   0.062   0.752   1.942  0.2424  0.1388 -0.1519
 7379TIP3    H143628  -0.004   0.703   1.893 -0.1651 -1.1368  1.5578
 7379TIP3    H243629   0.096   0.688   2.005  0.6718  1.7038  1.2632
 7380TIP3   OH243630   3.252   1.476   0.693 -0.1066  0.2421 -0.3867
 7380TIP3    H143631   3.259   1.538   0.620 -0.1251 -0.7155 -1.2125
 7380TIP3    H243632   3.343   1.456   0.716 -0.0861 -0.7263 -1.2557
 7381TIP3   OH243633   1.374   1.621  14.362  0.2835 -0.4793  0.1902
 7381TIP3    H143634   1.318   1.673  14.305 -0.3582 -0.9036  0.4174
 7381TIP3    H243635   1.314   1.557  14.402  0.6410  0.0677  1.6447
 7382TIP3   OH243636   4.850   5.413  10.742  0.4774  0.1259 -0.2649
 7382TIP3    H143637   4.808   5.482  10.792  2.3842 -0.1529  1.8461
 7382TIP3    H243638   4.778   5.356  10.714 -0.6438 -0.5718  3.5367
 7383TIP3   OH243639   2.688   6.764  15.973  0.1858  0.7440  0.2172
 7383TIP3    H143640   2.679   6.767  15.878  0.2943 -1.1259  0.1189
 7383TIP3    H243641   2.604   6.793  16.006 -0.7367 -0.9761 -0.5061
 7384TIP3   OH243642   4.875   1.817   2.800 -0.1129  0.4206  0.1943
 7384TIP3    H143643   4.967   1.804   2.775  0.1338 -1.6874  1.8500
 7384TIP3    H243644   4.826   1.763   2.737 -0.2010  1.1776 -0.4006
 7385TIP3   OH243645   1.775   6.678  14.703 -0.1217  0.6092  0.2509
 7385TIP3    H143646   1.750   6.683  14.795 -1.7541  0.6524 -0.1656
 7385TIP3    H243647   1.724   6.605  14.668  2.9088 -1.5738  0.0744
 7386TIP3   OH243648   5.481   1.636  15.852 -0.2017  0.2183  0.1093
 7386TIP3    H143649   5.492   1.728  15.873 -2.3927  1.2366 -2.5762
 7386TIP3    H243650   5.429   1.601  15.924  0.5159  1.1082  1.0783
 7387TIP3   OH243651   5.292   2.999   1.226 -0.7073 -0.2366 -0.2230
 7387TIP3    H143652   5.384   2.974   1.232 -0.3298  1.1467  0.1375
 7387TIP3    H243653   5.267   2.977   1.136  0.6935  1.6272 -1.1361
 7388TIP3   OH243654   1.413   1.643   2.486 -0.6294  0.2224  0.0590
 7388TIP3    H143655   1.488   1.693   2.454  0.1104  0.0663  1.4518
 7388TIP3    H243656   1.340   1.670   2.430  0.1131  1.6084 -0.2862
 7389TIP3   OH243657   4.581   4.964   5.670  0.3077  0.3198 -0.1880
 7389TIP3    H143658   4.614   4.985   5.757  2.7342 -2.2729 -0.3227
 7389TIP3    H243659   4.497   4.921   5.685 -0.0629  1.3396  0.7210
 7390TIP3   OH243660   0.465   0.751   5.973 -0.2759  0.5568 -0.6696
 7390TIP3    H143661   0.426   0.835   5.996  1.4857  0.9749  1.1824
 7390TIP3    H243662   0.491   0.712   6.058  1.4120 -0.5573 -1.6182
 7391TIP3   OH243663   5.447   2.482   0.986  0.1716  0.2889 -0.2213
 7391TIP3    H143664   5.358   2.515   0.990  0.5674  1.3392  0.4723
 7391TIP3    H243665   5.442   2.405   0.929 -0.8237  1.4387 -1.7728
 7392TIP3   OH243666   5.741   5.795  13.901 -0.6734 -0.1601  0.4395
 7392TIP3    H143667   5.721   5.751  13.818  1.6129  0.7481 -0.6798
 7392TIP3    H243668   5.748   5.887  13.877  0.2978  0.0759  1.5989
 7393TIP3   OH243669   3.117   4.484  13.345 -0.0286  0.3021 -0.9347
 7393TIP3    H143670   3.150   4.395  13.332 -0.2730  0.2933 -1.4880
 7393TIP3    H243671   3.058   4.476  13.420  2.2923  0.5801  1.0598
 7394TIP3   OH243672   5.335   4.195  15.833 -0.1264 -0.2918  0.3863
 7394TIP3    H143673   5.257   4.228  15.787 -1.2014 -1.4414  1.3163
 7394TIP3    H243674   5.302   4.162  15.916  1.2242 -1.6536  0.4270
 7395TIP3   OH243675   5.921   6.375  16.781 -0.7016  0.1011 -0.4168
 7395TIP3    H143676   5.950   6.424  16.704  0.5269 -0.6619 -0.4612
 7395TIP3    H243677   5.834   6.410  16.800 -0.5005  1.1827 -1.3877
 7396TIP3   OH243678   1.006   3.840  16.620 -0.6134  0.1855  0.5248
 7396TIP3    H143679   1.069   3.910  16.638 -0.8544  0.3191  0.8682
 7396TIP3    H243680   0.924   3.871  16.659 -1.2185  0.5779 -1.0107
 7397TIP3   OH243681   1.918   3.385   2.194  0.0972  0.7347 -0.2718
 7397TIP3    H143682   1.948   3.470   2.165  0.9253 -0.1985 -2.3433
 7397TIP3    H243683   1.869   3.349   2.119  0.8853 -1.1186  0.0330
 7398TIP3   OH243684   5.813   4.660  12.351 -0.0160  0.0572  0.3484
 7398TIP3    H143685   5.899   4.682  12.386 -0.0247  1.3416 -0.3480
 7398TIP3    H243686   5.830   4.593  12.285  0.3063 -0.4608  0.9445
 7399TIP3   OH243687   1.595   3.160  12.989  0.4870  0.1819  0.4052
 7399TIP3    H143688   1.501   3.178  12.981  0.6041  1.0581  0.8322
 7399TIP3    H243689   1.616   3.105  12.914 -0.7919 -1.9168  1.4938
 7400TIP3   OH243690   1.073   1.274  15.667  0.2446 -0.4175 -0.1129
 7400TIP3    H143691   1.012   1.320  15.725  1.4472  0.9447  0.1098
 7400TIP3    H243692   1.153   1.327  15.668  1.5892 -2.3444 -0.1153
 7401TIP3   OH243693   5.664   1.668  11.715 -0.0760  0.5730 -0.2156
 7401TIP3    H143694   5.576   1.693  11.690  0.3475  0.9668 -1.3590
 7401TIP3    H243695   5.673   1.577  11.686  1.1401  1.6518 -3.6851
 7402TIP3   OH243696   4.458   2.441   1.878  0.2308  0.3967  0.6798
 7402TIP3    H143697   4.540   2.459   1.832  1.0130 -0.1232  1.8162
 7402TIP3    H243698   4.475   2.465   1.969 -0.1674 -1.6395  1.3567
 7403TIP3   OH243699   3.291   1.821   4.092 -0.4297 -0.0036 -0.0972
 7403TIP3    H143700   3.376   1.856   4.062 -1.4659  1.0935 -1.9685
 7403TIP3    H243701   3.259   1.886   4.154  0.4463 -0.8491  1.2830
 7404TIP3   OH243702   3.061   6.264   4.490  0.1307  0.2865  0.3722
 7404TIP3    H143703   2.994   6.216   4.538  1.9682 -1.2098  1.5634
 7404TIP3    H243704   3.060   6.225   4.402 -1.3162  1.0819  0.0179
 7405TIP3   OH243705   6.385   0.568   3.701  0.2533 -0.4864  0.2275
 7405TIP3    H143706   6.291   0.561   3.715 -0.2627 -1.6345 -2.9851
 7405TIP3    H243707   6.400   0.661   3.685 -0.5308 -0.4504 -0.3359
 7406TIP3   OH243708   5.947   3.730  17.247  0.1773 -0.1469 -0.2220
 7406TIP3    H143709   5.862   3.687  17.258  1.0416 -2.0414 -0.4069
 7406TIP3    H243710   5.931   3.800  17.184 -1.4629  0.2958  0.6240
 7407TIP3   OH243711   1.432   2.636  12.285  0.1683 -0.1651  0.2635
 7407TIP3    H143712   1.391   2.714  12.324 -0.9347 -0.4477 -0.2786
 7407TIP3    H243713   1.470   2.668  12.203 -1.1830 -0.3594 -0.4754
 7408TIP3   OH243714   0.335   0.414  16.433  0.4028 -0.1145  0.4989
 7408TIP3    H143715   0.286   0.496  16.440  2.0252  0.9466 -0.0357
 7408TIP3    H243716   0.272   0.346  16.457 -1.6564  1.0630 -1.2934
 7409TIP3   OH243717   3.491   5.974  15.541 -0.1206 -0.2142 -0.0592
 7409TIP3    H143718   3.431   5.903  15.518 -1.4606  2.1078 -5.0539
 7409TIP3    H243719   3.435   6.042  15.579 -0.3193  0.8972 -2.1920
 7410TIP3   OH243720   3.763   6.480  11.820 -0.6550 -0.2069  0.3886
 7410TIP3    H143721   3.851   6.452  11.799 -0.5630  0.0724  0.3950
 7410TIP3    H243722   3.749   6.559  11.768 -0.1367  0.9375  1.9283
 7411TIP3   OH243723   4.639   4.992   5.092 -0.1429 -0.3850  0.5007
 7411TIP3    H143724   4.610   4.956   5.009 -1.4626  1.2133  0.2112
 7411TIP3    H243725   4.689   5.070   5.068 -1.5785  0.7997  1.1936
 7412TIP3   OH243726   2.294   5.307   2.750 -0.2212  0.4988  0.0009
 7412TIP3    H143727   2.202   5.306   2.722 -0.0409 -1.6297 -0.6665
 7412TIP3    H243728   2.303   5.229   2.805  0.9894  1.1888  0.8240
 7413TIP3   OH243729   6.230   0.789   6.184  0.2464 -0.0891  0.3980
 7413TIP3    H143730   6.202   0.784   6.275  3.1664  1.2616  1.4946
 7413TIP3    H243731   6.254   0.881   6.171  2.1866 -0.7104 -0.9354
 7414TIP3   OH243732   3.864   0.968   2.629 -1.3676 -0.2297 -0.5043
 7414TIP3    H143733   3.864   0.874   2.612 -0.5948 -0.2311 -0.5068
 7414TIP3    H243734   3.808   0.978   2.706  0.5423 -0.9897  1.0577
 7415TIP3   OH243735   3.519   0.139   5.280 -0.2781  0.0835  0.3062
 7415TIP3    H143736   3.431   0.152   5.243 -0.1254 -0.4713 -0.2578
 7415TIP3    H243737   3.503   0.095   5.364 -0.6400  1.5373  1.0426
 7416TIP3   OH243738   4.122   1.432  16.208  0.0657 -0.6470 -0.0541
 7416TIP3    H143739   4.063   1.504  16.185  0.6748 -0.1328 -0.0273
 7416TIP3    H243740   4.192   1.473  16.259  0.7434 -1.1444 -0.5577
 7417TIP3   OH243741   5.307   1.593   5.083  0.2302  0.7343  0.0509
 7417TIP3    H143742   5.359   1.646   5.143 -0.4052  0.1918  1.1119
 7417TIP3    H243743   5.238   1.556   5.138 -1.0425  1.1134 -1.2405
 7418TIP3   OH243744   6.153   5.047  15.137 -0.2863 -0.1299  0.1707
 7418TIP3    H143745   6.126   5.020  15.049  0.5987  0.7170 -0.3763
 7418TIP3    H243746   6.147   4.966  15.189 -2.3713 -0.2949 -0.2542
 7419TIP3   OH243747   5.528   1.279  17.428 -0.7497  0.3957  0.2555
 7419TIP3    H143748   5.573   1.358  17.460 -0.7634  1.3464 -1.9112
 7419TIP3    H243749   5.531   1.287  17.333 -2.4835 -1.2674  0.0148
 7420TIP3   OH243750   2.283   2.382   3.349  0.1964 -0.5054 -0.2041
 7420TIP3    H143751   2.371   2.364   3.382  0.1316 -2.4017 -0.9749
 7420TIP3    H243752   2.283   2.476   3.330  2.6281 -0.7783 -1.8598
 7421TIP3   OH243753   1.717   6.583   3.029  0.1994 -0.1830 -0.5299
 7421TIP3    H143754   1.738   6.497   2.993 -0.2459  0.0964 -1.4630
 7421TIP3    H243755   1.712   6.641   2.954  1.2030  0.8287  0.1458
 7422TIP3   OH243756   4.379   2.095  15.961  0.1438 -0.5888  0.3154
 7422TIP3    H143757   4.454   2.066  15.910  0.1950 -1.2074  0.7196
 7422TIP3    H243758   4.315   2.125  15.896  1.0258  0.6908  0.0005
 7423TIP3   OH243759   4.954   5.616  16.941 -0.1549 -0.7597  0.1550
 7423TIP3    H143760   5.019   5.614  16.870 -0.1749 -0.8950  0.1394
 7423TIP3    H243761   4.909   5.532  16.934 -1.8201  0.1910 -1.2209
 7424TIP3   OH243762   0.065   4.055  13.055  0.4103  0.3792  0.1975
 7424TIP3    H143763   0.147   4.027  13.015  0.3571 -0.7809  0.8361
 7424TIP3    H243764   0.092   4.109  13.129  0.5495  1.1600 -0.4144
 7425TIP3   OH243765   1.314   2.799  16.869  0.3893  0.5653  0.3436
 7425TIP3    H143766   1.241   2.750  16.907  0.3338  1.3383  1.2862
 7425TIP3    H243767   1.275   2.882  16.841  1.1205  1.6010  2.1843
 7426TIP3   OH243768   4.954   6.420  16.154  0.0248 -0.3004  0.4656
 7426TIP3    H143769   4.956   6.328  16.180 -0.0513 -0.4947 -0.2017
 7426TIP3    H243770   5.046   6.446  16.154  0.1941 -0.8218 -0.8528
 7427TIP3   OH243771   3.869   0.786  14.717  0.1260  0.4547  0.1204
 7427TIP3    H143772   3.904   0.837  14.790  0.3136  0.7760 -0.1919
 7427TIP3    H243773   3.774   0.786  14.732  0.2006  0.1201  0.6178
 7428TIP3   OH243774   6.138   0.319   0.368 -0.0278 -0.5921  0.0883
 7428TIP3    H143775   6.170   0.354   0.284  1.0770  0.8431  1.0635
 7428TIP3    H243776   6.057   0.366   0.385 -0.8238 -1.6498 -0.6542
 7429TIP3   OH243777   4.293   4.136   4.603 -0.1474 -0.6104  0.3137
 7429TIP3    H143778   4.331   4.224   4.603  0.6548 -0.9159 -1.8790
 7429TIP3    H243779   4.333   4.093   4.679  0.3814  0.5080  0.6979
 7430TIP3   OH243780   6.327   2.926  14.405  0.3107 -0.1342  0.2570
 7430TIP3    H143781   6.383   2.940  14.328 -0.1031 -4.7658 -1.2339
 7430TIP3    H243782   6.374   2.969  14.477  3.0200  0.6890 -1.8190
 7431TIP3   OH243783   0.621   0.909   5.567 -0.1173 -0.4397 -0.0321
 7431TIP3    H143784   0.540   0.935   5.611 -0.7110 -1.6553 -0.3612
 7431TIP3    H243785   0.597   0.902   5.475  0.5164 -0.2376 -0.2174
 7432TIP3   OH243786   6.132   1.264  15.244  0.6960 -0.6368  0.3601
 7432TIP3    H143787   6.038   1.277  15.236  0.6535  0.3476  1.9165
 7432TIP3    H243788   6.143   1.171  15.262 -0.0153 -0.7085  0.4382
 7433TIP3   OH243789   0.996   2.334  15.019  0.3732  0.4221 -0.4857
 7433TIP3    H143790   0.910   2.351  14.980  0.3809 -0.5403 -0.9272
 7433TIP3    H243791   1.038   2.272  14.960  0.5399 -0.7670  0.8489
 7434TIP3   OH243792   3.499   2.885  11.992  0.1253 -0.2180  0.0258
 7434TIP3    H143793   3.556   2.840  12.054  0.6810 -0.4675 -0.6582
 7434TIP3    H243794   3.465   2.960  12.041  1.5398  0.2997  0.2637
 7435TIP3   OH243795   6.466   3.769   5.865 -0.0366 -0.2180  0.0877
 7435TIP3    H143796   6.561   3.778   5.865  0.1105 -1.5822 -0.5027
 7435TIP3    H243797   6.444   3.737   5.952  0.1256 -0.6033 -0.0121
 7436TIP3   OH243798   0.742   0.996  15.583  0.4762 -0.1235  0.8576
 7436TIP3    H143799   0.760   1.055  15.509  2.1287  0.4087  1.6288
 7436TIP3    H243800   0.828   0.969  15.613 -0.2215 -1.7578  1.4964
 7437TIP3   OH243801   6.299   1.235   1.825  0.9337  0.8970 -0.3603
 7437TIP3    H143802   6.260   1.311   1.867  0.2075 -0.3343  1.2847
 7437TIP3    H243803   6.231   1.203   1.765 -0.7023 -1.1224  2.3488
 7438TIP3   OH243804   2.168   5.024   3.456  0.1942  0.3543 -0.1982
 7438TIP3    H143805   2.108   5.083   3.502 -0.3534 -0.5098  0.2238
 7438TIP3    H243806   2.238   5.081   3.424  1.0202  0.9095  2.3806
 7439TIP3   OH243807   5.577   0.771   4.383  0.7164 -0.2455  0.1482
 7439TIP3    H143808   5.538   0.858   4.389 -2.2157 -1.4886  0.8124
 7439TIP3    H243809   5.563   0.745   4.292 -1.2623 -1.1481  0.6535
 7440TIP3   OH243810   6.762   0.123  11.619  0.2451  0.0640  0.2185
 7440TIP3    H143811   6.667   0.127  11.622  0.2484 -0.3076  1.5543
 7440TIP3    H243812   6.787   0.186  11.551 -0.9151  0.7102  0.3663
 7441TIP3   OH243813   5.744   4.281   2.377 -0.3291  0.0417 -0.4807
 7441TIP3    H143814   5.702   4.195   2.385  0.4190 -0.2174  1.0593
 7441TIP3    H243815   5.696   4.337   2.438  1.8003 -0.4103  1.7889
 7442TIP3   OH243816   4.654   1.592  17.261  0.2163 -0.0655  0.4474
 7442TIP3    H143817   4.617   1.578  17.174 -2.0681  1.4212  1.0870
 7442TIP3    H243818   4.665   1.504  17.297  1.5800 -0.7329 -1.4159
 7443TIP3   OH243819   5.242   5.383   1.619 -0.2315 -0.5188  0.5298
 7443TIP3    H143820   5.331   5.415   1.634 -0.7875  1.0659  0.6434
 7443TIP3    H243821   5.186   5.442   1.669 -1.4027 -1.0633 -0.0840
 7444TIP3   OH243822   2.205   3.794   5.495  0.2058 -0.2222  0.2253
 7444TIP3    H143823   2.148   3.741   5.550 -1.3199 -0.5155 -1.5492
 7444TIP3    H243824   2.209   3.748   5.412  2.1796  0.3814 -0.0846
 7445TIP3   OH243825   6.316   0.945   0.401 -0.4425  0.4951 -0.3407
 7445TIP3    H143826   6.333   0.851   0.410 -0.2441  0.5210 -0.4612
 7445TIP3    H243827   6.396   0.981   0.365 -0.5203  0.7126 -0.2970
 7446TIP3   OH243828   3.325   1.112   2.735 -0.1281  0.8157  0.1946
 7446TIP3    H143829   3.247   1.096   2.682  0.0702 -1.5761  0.5084
 7446TIP3    H243830   3.395   1.065   2.689  1.3218  3.3516 -0.3828
 7447TIP3   OH243831   6.016   6.547   4.420 -0.2189  0.4258 -0.4789
 7447TIP3    H143832   6.080   6.580   4.357  1.1594 -1.3767 -0.0938
 7447TIP3    H243833   6.066   6.489   4.477 -1.8473  0.4492  1.0343
 7448TIP3   OH243834   4.526   1.003  15.245  0.2474 -0.2221  0.0020
 7448TIP3    H143835   4.574   1.079  15.276  0.1286  0.4257 -1.3295
 7448TIP3    H243836   4.440   1.010  15.287  0.5333 -0.1018  0.5668
 7449TIP3   OH243837   0.825   1.000   5.220  0.1566  0.1674 -0.6699
 7449TIP3    H143838   0.816   1.091   5.248  1.5833  0.9021 -2.3836
 7449TIP3    H243839   0.915   0.977   5.243 -0.3876 -1.0649  0.3324
 7450TIP3   OH243840   5.528   0.163  11.127  0.3212  0.0494 -0.3656
 7450TIP3    H143841   5.438   0.160  11.159  0.1852 -0.1943 -0.7494
 7450TIP3    H243842   5.525   0.115  11.044  1.2054 -1.7619  0.5897
 7451TIP3   OH243843   0.111   2.436  16.421 -0.0355  0.7778 -0.9344
 7451TIP3    H143844   0.047   2.506  16.434 -2.2162 -1.1012 -0.8863
 7451TIP3    H243845   0.118   2.428  16.326 -1.2064 -0.0930 -0.9704
 7452TIP3   OH243846   3.219   0.480   2.725 -0.3103 -0.1094 -0.5025
 7452TIP3    H143847   3.215   0.567   2.685 -1.7857 -0.3296 -0.8901
 7452TIP3    H243848   3.177   0.491   2.810  1.4433  0.0114  0.3959
 7453TIP3   OH243849   1.364   5.122   0.861 -0.1959  0.4733 -0.0569
 7453TIP3    H143850   1.306   5.080   0.925 -0.9778 -1.3861 -1.8990
 7453TIP3    H243851   1.444   5.140   0.911 -0.9900 -0.3070  1.6138
 7454TIP3   OH243852   2.831   6.228   1.674 -0.1985  0.2661  0.2980
 7454TIP3    H143853   2.920   6.213   1.706  0.9413 -0.3924 -2.8578
 7454TIP3    H243854   2.775   6.199   1.746  2.0966 -0.2282  2.0170
 7455TIP3   OH243855   3.327   3.273  13.807  0.0411 -0.3883 -0.4883
 7455TIP3    H143856   3.327   3.182  13.778 -0.3927 -0.5233 -0.0704
 7455TIP3    H243857   3.389   3.275  13.880 -0.0795 -0.3864 -0.3854
 7456TIP3   OH243858   3.966   1.985  15.059 -0.4328 -0.0382 -0.0019
 7456TIP3    H143859   3.920   1.967  15.141  1.5576  1.1583  1.4851
 7456TIP3    H243860   4.057   2.001  15.085  0.3359  0.1454 -2.4853
 7457TIP3   OH243861   4.090   3.363   3.517  0.1132  0.2033  0.4110
 7457TIP3    H143862   4.038   3.420   3.460 -1.4392 -0.8824  0.6773
 7457TIP3    H243863   4.162   3.334   3.462  0.4090  1.6467 -0.0141
 7458TIP3   OH243864   5.788   0.694  13.547 -0.6188  0.0241  0.6535
 7458TIP3    H143865   5.844   0.621  13.570 -1.6601 -0.6009  1.2759
 7458TIP3    H243866   5.730   0.660  13.479 -2.3172 -0.3272  2.1982
 7459TIP3   OH243867   0.078   3.633  14.908 -0.6349  0.1951  0.2872
 7459TIP3    H143868   0.071   3.656  15.001 -2.3201 -0.6201  0.4006
 7459TIP3    H243869   0.126   3.550  14.907 -1.3298 -0.2093  0.4963
 7460TIP3   OH243870   0.996   4.458   6.526 -0.3713 -0.8338  0.1443
 7460TIP3    H143871   0.925   4.429   6.470 -0.6391 -0.9391  0.5329
 7460TIP3    H243872   1.004   4.390   6.593 -0.1599 -0.6370  0.3230
 7461TIP3   OH243873   3.944   1.011   0.321 -0.5974 -0.2333 -0.3977
 7461TIP3    H143874   3.980   0.922   0.312  0.6282  0.4375 -3.3238
 7461TIP3    H243875   3.962   1.035   0.412  0.9200 -2.2164 -0.1025
 7462TIP3   OH243876   0.851   2.367   5.308 -0.1203 -0.0985  0.0127
 7462TIP3    H143877   0.786   2.435   5.291  0.3826  0.7480  1.3910
 7462TIP3    H243878   0.800   2.286   5.310 -1.5891  0.7362  3.1484
 7463TIP3   OH243879   5.999   1.468   3.302  0.4281  0.1309 -0.1657
 7463TIP3    H143880   5.992   1.379   3.268 -2.2671  0.6805 -1.3950
 7463TIP3    H243881   6.080   1.503   3.264  0.6026 -1.2432 -1.1196
 7464TIP3   OH243882   0.169   6.693   1.556  0.2316  0.1112  0.0310
 7464TIP3    H143883   0.186   6.652   1.641  2.9777  1.4210  0.2373
 7464TIP3    H243884   0.133   6.779   1.577  1.5585  0.7138 -0.0311
 7465TIP3   OH243885   0.866   0.061   2.523  0.4525  0.2747 -0.0148
 7465TIP3    H143886   0.818   0.070   2.441  1.1682 -0.8300 -0.5763
 7465TIP3    H243887   0.922   0.139   2.527 -0.8632  1.2424  0.3337
 7466TIP3   OH243888   5.676   4.434  11.523  0.0954  0.7121  0.2640
 7466TIP3    H143889   5.685   4.358  11.465 -2.3421 -1.3973  2.3748
 7466TIP3    H243890   5.764   4.471  11.527  1.0872 -1.1116 -1.9884
 7467TIP3   OH243891   2.050   1.177  14.512 -0.1039 -0.3569  0.2103
 7467TIP3    H143892   2.084   1.094  14.476  1.4770  0.1481  0.4420
 7467TIP3    H243893   2.110   1.197  14.584  0.2554  1.5793 -0.5815
 7468TIP3   OH243894   5.701   2.586  12.755  0.3575  0.0715 -0.5068
 7468TIP3    H143895   5.644   2.522  12.712  1.2086 -0.2374 -1.2335
 7468TIP3    H243896   5.735   2.540  12.832  0.8834 -0.3451 -0.9687
 7469TIP3   OH243897   0.023   4.022  14.609 -0.3931 -0.3178 -0.0028
 7469TIP3    H143898   0.090   4.076  14.567 -2.2227  1.6368 -0.6511
 7469TIP3    H243899   0.045   4.024  14.702 -0.1444  1.2895 -0.0608
 7470TIP3   OH243900   0.081   5.903   1.032  0.0373 -0.4661  0.3733
 7470TIP3    H143901   0.025   5.846   0.980  0.4431  1.5457 -2.4898
 7470TIP3    H243902   0.023   5.973   1.062  0.4732  0.3003 -0.5098
 7471TIP3   OH243903   5.146   5.513  17.113 -0.0822  0.4409  0.1183
 7471TIP3    H143904   5.073   5.470  17.157  0.4483 -0.5388  0.0624
 7471TIP3    H243905   5.110   5.597  17.084 -0.9801  0.2820  0.7104
 7472TIP3   OH243906   5.625   4.819   3.866  0.1682  0.1557 -0.4541
 7472TIP3    H143907   5.699   4.775   3.825  1.1754  2.4880 -1.3372
 7472TIP3    H243908   5.665   4.878   3.931 -0.8079  1.7470 -1.2195
 7473TIP3   OH243909   4.545   0.143  12.121  0.6420 -0.3601 -0.3271
 7473TIP3    H143910   4.491   0.074  12.082 -0.0101 -0.0475  0.0228
 7473TIP3    H243911   4.528   0.220  12.067  1.0428 -0.3601 -0.4555
 7474TIP3   OH243912   3.478   4.526  17.069  0.0976 -0.3331  0.5173
 7474TIP3    H143913   3.506   4.564  17.153 -0.4946  1.2023  0.0662
 7474TIP3    H243914   3.538   4.564  17.005 -1.2359  0.8330 -0.1014
 7475TIP3   OH243915   1.696   6.020  17.199  0.5785  0.6393  0.2473
 7475TIP3    H143916   1.776   6.015  17.147  0.4035 -1.3863  0.1107
 7475TIP3    H243917   1.676   5.929  17.222 -1.0106  1.2128  1.3199
 7476TIP3   OH243918   0.874   0.332   1.431 -0.4468 -0.0256 -0.2376
 7476TIP3    H143919   0.924   0.261   1.473 -0.5346 -0.7229 -1.2782
 7476TIP3    H243920   0.830   0.290   1.357 -0.5327  1.1206 -0.8583
 7477TIP3   OH243921   4.832   2.814  16.242  0.3589 -0.3716 -0.3999
 7477TIP3    H143922   4.796   2.867  16.171 -3.6403  1.3787  2.5348
 7477TIP3    H243923   4.811   2.724  16.218  0.4145  0.0187 -2.0251
 7478TIP3   OH243924   0.319   2.376   2.164  0.4061 -0.1982 -0.3268
 7478TIP3    H143925   0.379   2.394   2.092 -0.7725 -0.7826 -1.5009
 7478TIP3    H243926   0.252   2.320   2.126 -0.9074  0.4469  0.9422
 7479TIP3   OH243927   2.165   4.595  12.524 -0.0690  0.3346 -0.5314
 7479TIP3    H143928   2.106   4.655  12.478  0.3572  0.8159 -0.4625
 7479TIP3    H243929   2.109   4.523  12.553 -0.8150  1.2396  0.3551
 7480TIP3   OH243930   6.204   0.785  12.828  0.8568  0.4419  0.0952
 7480TIP3    H143931   6.155   0.726  12.887  0.0344  0.6021 -0.4076
 7480TIP3    H243932   6.252   0.726  12.770 -1.7036  0.1323 -1.8931
 7481TIP3   OH243933   4.514   5.504   3.709  0.5426 -0.0839 -0.2535
 7481TIP3    H143934   4.440   5.542   3.757  0.5343  0.8842 -0.9916
 7481TIP3    H243935   4.589   5.517   3.766  0.1630 -1.0525  0.4945
 7482TIP3   OH243936   5.964   4.529   4.834 -0.0458  0.5119 -0.6440
 7482TIP3    H143937   5.973   4.607   4.780 -2.2666  0.7473 -0.7583
 7482TIP3    H243938   6.011   4.460   4.786  0.9453  1.4834 -1.1080
 7483TIP3   OH243939   6.725   6.654  12.268 -1.1327 -0.4930 -0.3218
 7483TIP3    H143940   6.807   6.697  12.290 -1.1804 -1.0341  0.9750
 7483TIP3    H243941   6.746   6.598  12.194 -0.7346  0.6245 -1.0860
 7484TIP3   OH243942   6.030   5.145   2.315 -0.1874  0.2851 -0.7015
 7484TIP3    H143943   5.987   5.087   2.378  0.3071  0.4922 -0.1603
 7484TIP3    H243944   6.119   5.110   2.307  0.7192  1.9692  1.0269
 7485TIP3   OH243945   6.778   0.003   3.800 -0.7373 -0.1779  0.1195
 7485TIP3    H143946   6.870  -0.022   3.791 -0.4532  1.2809 -1.6958
 7485TIP3    H243947   6.743  -0.003   3.711 -2.2632 -0.1878  0.6955
 7486TIP3   OH243948   1.342   3.275  12.164 -0.3401 -0.1883  0.2260
 7486TIP3    H143949   1.272   3.316  12.114 -0.8783 -1.3774 -0.0230
 7486TIP3    H243950   1.375   3.345  12.220  0.7415  1.3753 -2.2207
 7487TIP3   OH243951   0.357   2.284  11.877 -0.1024  0.3338 -0.2397
 7487TIP3    H143952   0.322   2.351  11.935  0.8927 -0.0401  0.8380
 7487TIP3    H243953   0.424   2.240  11.929 -1.6264 -2.4187 -0.3913
 7488TIP3   OH243954   4.579   0.744  15.768  0.3368  0.4436  0.0382
 7488TIP3    H143955   4.494   0.737  15.813  1.2043  1.8195  2.0638
 7488TIP3    H243956   4.568   0.818  15.708  0.1454  0.7889  0.4864
 7489TIP3   OH243957   5.695   6.658   3.464  0.4588  0.3126 -0.3674
 7489TIP3    H143958   5.713   6.721   3.534  0.1610  1.0512 -0.9487
 7489TIP3    H243959   5.738   6.695   3.387 -0.5322  0.2929 -0.9384
 7490TIP3   OH243960   6.121   5.930   1.192 -0.0381  0.6905  0.1675
 7490TIP3    H143961   6.052   5.866   1.211 -0.9489  1.9581  1.3599
 7490TIP3    H243962   6.077   6.015   1.201  1.3875  1.5168 -0.3507
 7491TIP3   OH243963   2.058   6.650   4.514  0.1242  0.2462  0.1478
 7491TIP3    H143964   2.086   6.566   4.549  0.6329  0.4450  0.2292
 7491TIP3    H243965   2.139   6.699   4.501 -0.2578  1.4030  1.8117
 7492TIP3   OH243966   1.537   2.833  17.358 -0.3613 -0.2152 -0.1450
 7492TIP3    H143967   1.469   2.795  17.302  0.0333  0.4276 -1.0867
 7492TIP3    H243968   1.497   2.912  17.395 -0.5599 -0.5417  0.3505
 7493TIP3   OH243969   3.722   2.897   0.637  0.2481 -0.0046  0.2110
 7493TIP3    H143970   3.773   2.847   0.701 -0.4836 -0.8664  0.1328
 7493TIP3    H243971   3.676   2.963   0.689 -1.1669 -1.3599  0.7607
 7494TIP3   OH243972   0.450   3.630   4.653  0.2069  0.2380  0.1955
 7494TIP3    H143973   0.510   3.626   4.728 -0.5968 -1.8373  0.7907
 7494TIP3    H243974   0.503   3.603   4.578  0.3706 -0.2111  0.4703
 7495TIP3   OH243975   4.700   5.672   1.954 -0.3259  0.9231 -0.1282
 7495TIP3    H143976   4.759   5.597   1.949 -0.4293  0.9306 -1.8484
 7495TIP3    H243977   4.626   5.641   2.007  0.7333  0.6069  1.2055
 7496TIP3   OH243978   5.034   3.949   1.324  0.2988 -0.4359  0.1153
 7496TIP3    H143979   5.025   3.948   1.229 -3.4439 -2.1518  0.3109
 7496TIP3    H243980   4.964   4.007   1.354  2.3200  1.2377  1.8645
 7497TIP3   OH243981   1.198   2.904   6.265  0.2494  0.0265 -0.2107
 7497TIP3    H143982   1.231   2.834   6.322  0.5768 -0.3042 -0.7980
 7497TIP3    H243983   1.277   2.948   6.232  0.0447  1.2960  0.8891
 7498TIP3   OH243984   4.565   1.349   2.381 -0.5323  0.4141 -0.5084
 7498TIP3    H143985   4.502   1.420   2.390 -0.2156  0.7459 -0.8707
 7498TIP3    H243986   4.519   1.272   2.412  0.2582  1.3141  3.4213
 7499TIP3   OH243987   1.261   1.568   2.242  0.2833 -0.6351  0.2955
 7499TIP3    H143988   1.211   1.536   2.317  0.1351 -1.3692 -0.1047
 7499TIP3    H243989   1.197   1.576   2.171  0.8997 -2.7731 -0.5735
 7500TIP3   OH243990   0.214   4.224   3.840 -0.0928 -0.4615 -0.0531
 7500TIP3    H143991   0.227   4.148   3.897 -1.9066 -0.7767  0.0034
 7500TIP3    H243992   0.149   4.195   3.776 -1.2611  1.1817  0.3014
 7501TIP3   OH243993   1.566   0.354   4.437 -0.2855 -0.2295 -0.8535
 7501TIP3    H143994   1.607   0.294   4.498 -2.7120 -0.5129  0.6361
 7501TIP3    H243995   1.564   0.306   4.354  1.0461 -0.7265 -0.6271
 7502TIP3   OH243996   4.940   2.393  17.459 -0.2539  0.1364 -0.1542
 7502TIP3    H143997   4.847   2.371  17.464 -0.1054 -0.2302  1.9102
 7502TIP3    H243998   4.970   2.354  17.378 -1.6154 -0.8936 -0.1956
 7503TIP3   OH243999   2.875   3.322  12.072 -0.4844  0.2010  0.7531
 7503TIP3    H144000   2.947   3.374  12.037  0.3864 -1.4580 -0.0199
 7503TIP3    H244001   2.880   3.334  12.167  0.3487  0.6588  0.6567
 7504TIP3   OH244002   4.152   0.591  17.325  0.3763 -0.5364 -0.2861
 7504TIP3    H144003   4.132   0.674  17.280 -0.2800 -1.0782 -1.0106
 7504TIP3    H244004   4.138   0.610  17.418  1.3713  0.4940 -0.3178
 7505TIP3   OH244005   3.116   4.734  14.635  0.0742 -0.1953  0.4873
 7505TIP3    H144006   3.177   4.784  14.689 -0.1491 -0.2294  0.7733
 7505TIP3    H244007   3.134   4.642  14.656 -0.5022 -0.1852  1.0421
 7506TIP3   OH244008   2.559   6.656  12.375 -0.2462 -0.3294 -0.0155
 7506TIP3    H144009   2.475   6.701  12.381 -1.9479 -3.3371  0.8834
 7506TIP3    H244010   2.540   6.577  12.324  2.1827 -0.8879 -0.1704
 7507TIP3   OH244011   2.433   1.247   3.406  0.3918 -0.0552  0.5446
 7507TIP3    H144012   2.394   1.277   3.324  2.8282  0.1305 -0.6209
 7507TIP3    H244013   2.406   1.313   3.470  1.5824  2.0031 -0.9403
 7508TIP3   OH244014   4.809   4.838  12.380  0.2056  0.1616 -1.5808
 7508TIP3    H144015   4.759   4.913  12.347 -1.8687 -0.2332  0.4144
 7508TIP3    H244016   4.895   4.874  12.403 -1.1216  2.2915  0.4826
 7509TIP3   OH244017   3.684   1.758  15.249 -0.3849 -0.2151  0.4762
 7509TIP3    H144018   3.723   1.678  15.213 -1.3873 -0.5784  0.1614
 7509TIP3    H244019   3.635   1.728  15.326  0.6374  0.3586  1.3654
 7510TIP3   OH244020   5.246   3.286  14.330  0.2361  0.1333  1.0523
 7510TIP3    H144021   5.226   3.227  14.402 -0.0837 -0.8905  0.1431
 7510TIP3    H244022   5.161   3.306  14.290  0.6712 -3.7687 -2.4577
 7511TIP3   OH244023   5.879   3.455   5.479 -0.1621 -0.2894  0.5904
 7511TIP3    H144024   5.952   3.490   5.530  0.1180  0.6517 -0.4181
 7511TIP3    H244025   5.831   3.532   5.449 -1.3026 -0.8850  0.8474
 7512TIP3   OH244026   5.280   2.850   2.143 -0.0067  0.6878  0.2764
 7512TIP3    H144027   5.367   2.851   2.105 -0.4796 -1.8282 -1.0442
 7512TIP3    H244028   5.257   2.757   2.150 -2.4526  1.2543  0.8776
 7513TIP3   OH244029   1.007   3.131  16.540 -0.2919 -0.0690 -0.8073
 7513TIP3    H144030   0.957   3.193  16.594  0.8874  1.0948 -0.9945
 7513TIP3    H244031   0.998   3.165  16.451 -0.7918 -0.9922 -1.1247
 7514TIP3   OH244032   3.598   5.132  15.883 -0.5623  0.5154 -0.0155
 7514TIP3    H144033   3.676   5.079  15.897 -0.4045 -0.5879 -3.8706
 7514TIP3    H244034   3.630   5.220  15.869 -0.4662  0.9097  2.2702
 7515TIP3   OH244035   3.728   5.619   2.667  0.0657 -0.2916  0.5680
 7515TIP3    H144036   3.719   5.524   2.659 -0.2159 -0.2105 -0.0369
 7515TIP3    H244037   3.779   5.645   2.591 -0.6927  0.1722  0.2164
 7516TIP3   OH244038   3.549   0.020   1.466  0.1815  0.6934 -0.5067
 7516TIP3    H144039   3.602   0.098   1.481  2.1301 -0.5617 -0.5890
 7516TIP3    H244040   3.494   0.043   1.391  1.9671  1.4127 -1.6679
 7517TIP3   OH244041   5.296   1.396   3.057 -0.2816  0.6908 -0.0386
 7517TIP3    H144042   5.303   1.491   3.052 -3.7276  1.1629  1.4808
 7517TIP3    H244043   5.263   1.370   2.971  1.4699  0.6788 -0.7542
 7518TIP3   OH244044   6.130   6.041   3.298  0.2585 -0.3562 -0.3124
 7518TIP3    H144045   6.190   6.031   3.223  1.6134  0.7793  0.5625
 7518TIP3    H244046   6.186   6.029   3.375 -0.5646  1.0890  0.5543
 7519TIP3   OH244047   3.692   0.898  15.181  0.5731 -0.2894  0.3579
 7519TIP3    H144048   3.660   0.808  15.176  1.9547 -0.8108  0.4689
 7519TIP3    H244049   3.756   0.897  15.252  1.7932  0.3653 -0.6813
 7520TIP3   OH244050   3.251   0.735   0.064  0.2306 -0.3518  0.1177
 7520TIP3    H144051   3.215   0.763   0.149  1.1216 -0.0874  0.4237
 7520TIP3    H244052   3.185   0.677   0.028 -1.9098  2.3525 -0.6968
 7521TIP3   OH244053   0.547   3.393  17.180  0.0909 -0.3221  0.1995
 7521TIP3    H144054   0.548   3.381  17.275 -1.3609  0.7918  0.3920
 7521TIP3    H244055   0.454   3.395  17.157  0.3655  1.5194 -0.9307
 7522TIP3   OH244056   2.649   2.235  16.793  0.3274  0.4101 -0.1308
 7522TIP3    H144057   2.569   2.188  16.818  1.0398 -0.1434  1.2357
 7522TIP3    H244058   2.720   2.179  16.822  1.2051  1.7445  0.3957
 7523TIP3   OH244059   6.225   0.021   2.574  0.3233  0.1851 -0.3062
 7523TIP3    H144060   6.290  -0.026   2.521  0.6191  2.1428 -1.8000
 7523TIP3    H244061   6.275   0.087   2.621  0.0635 -1.5312  2.5801
 7524TIP3   OH244062   4.686   6.288   0.787  0.0683  0.2208  0.4834
 7524TIP3    H144063   4.742   6.218   0.820 -1.0187 -1.2005 -0.5626
 7524TIP3    H244064   4.703   6.291   0.693  1.7891  2.9798  0.7720
 7525TIP3   OH244065   4.572   6.542  11.625 -0.4019  0.0413  0.4718
 7525TIP3    H144066   4.568   6.456  11.667 -1.6888 -0.1828 -0.0708
 7525TIP3    H244067   4.481   6.573  11.623  0.0112  1.3390  0.4849
 7526TIP3   OH244068   4.852   1.130   5.474 -0.3432 -0.9182  0.6641
 7526TIP3    H144069   4.769   1.172   5.497 -0.5216 -1.3553  0.8253
 7526TIP3    H244070   4.904   1.200   5.436 -0.1900 -0.2747  2.0184
 7527TIP3   OH244071   2.896   2.529   5.550  0.1125  0.3298  0.9246
 7527TIP3    H144072   2.844   2.609   5.552  2.6318  2.1111  0.4960
 7527TIP3    H244073   2.963   2.542   5.618  2.0902 -0.2377 -0.8040
 7528TIP3   OH244074   5.488   0.663   2.260 -0.5811 -0.0037  0.5350
 7528TIP3    H144075   5.417   0.623   2.309 -0.3348  0.5948  1.4018
 7528TIP3    H244076   5.564   0.658   2.319 -0.4040  1.1665  0.4269
 7529TIP3   OH244077   3.985   2.294   6.672  0.1348 -0.0992 -0.0795
 7529TIP3    H144078   4.038   2.364   6.709 -0.4281 -0.4222  1.4030
 7529TIP3    H244079   3.897   2.308   6.708 -0.1670 -1.1247 -0.3634
 7530TIP3   OH244080   6.423   4.190  10.602  0.1300 -0.4093  0.3583
 7530TIP3    H144081   6.369   4.267  10.617 -1.5697 -1.4286 -0.3095
 7530TIP3    H244082   6.500   4.223  10.555  0.3786  1.1417  1.7824
 7531TIP3   OH244083   5.098   0.059  17.003  0.0763  0.5212 -0.4158
 7531TIP3    H144084   5.154   0.135  17.014  0.4630  0.5456 -2.2001
 7531TIP3    H244085   5.156  -0.009  16.968 -0.5574 -0.1595 -0.1827
 7532TIP3   OH244086   2.431   0.261  16.848  0.2071  0.1002 -0.1381
 7532TIP3    H144087   2.340   0.252  16.875  0.7019  0.4888  1.7876
 7532TIP3    H244088   2.471   0.315  16.916  1.8522  0.0435 -1.0170
 7533TIP3   OH244089   2.845   1.326   1.290  0.1522  0.2238  0.5343
 7533TIP3    H144090   2.886   1.403   1.329 -1.3640  0.1288  2.4785
 7533TIP3    H244091   2.751   1.344   1.293 -0.1997 -1.3890  0.3726
 7534TIP3   OH244092   6.012   5.869  12.426  0.1950 -0.2412  0.0182
 7534TIP3    H144093   5.950   5.797  12.414 -0.0737  0.0643 -0.4267
 7534TIP3    H244094   5.970   5.945  12.387  1.4231 -0.3261 -1.5457
 7535TIP3   OH244095   0.862   5.850   2.911  0.5096  0.0965  0.4523
 7535TIP3    H144096   0.929   5.917   2.904  0.5362 -0.1060 -1.8028
 7535TIP3    H244097   0.811   5.857   2.830 -0.3445 -1.6966  0.7749
 7536TIP3   OH244098   6.035   2.781  12.932 -0.2404 -0.2133 -0.0818
 7536TIP3    H144099   6.059   2.873  12.918  1.0811 -0.3626  1.0164
 7536TIP3    H244100   6.065   2.737  12.853  3.0980 -0.3371  1.0779
 7537TIP3   OH244101   5.255   3.490  16.911  0.2156  0.2332  0.5286
 7537TIP3    H144102   5.277   3.397  16.918 -1.2232 -0.1702 -0.0511
 7537TIP3    H244103   5.238   3.517  17.002  1.0827  0.0532  0.7486
 7538TIP3   OH244104   5.177   0.330  15.964 -0.3095 -0.6616  0.2486
 7538TIP3    H144105   5.103   0.273  15.941 -1.0754  0.5025 -0.2779
 7538TIP3    H244106   5.151   0.371  16.047  1.3860 -3.0022  2.0525
 7539TIP3   OH244107   4.666   2.200   5.520  0.2136  0.5088 -0.1985
 7539TIP3    H144108   4.621   2.264   5.574 -2.1465 -1.5610  0.4756
 7539TIP3    H244109   4.645   2.225   5.430 -0.6296  0.7410  0.0548
 7540TIP3   OH244110   1.805   4.591   3.992 -0.6695 -0.0027 -0.0910
 7540TIP3    H144111   1.733   4.575   4.053  0.4007 -0.9603  0.9694
 7540TIP3    H244112   1.873   4.529   4.018 -0.2553 -0.6331 -2.4494
 7541TIP3   OH244113   1.603   5.881  15.011 -0.4417  0.5202 -0.0889
 7541TIP3    H144114   1.602   5.789  15.037 -1.8402  0.3946 -0.5013
 7541TIP3    H244115   1.663   5.923  15.073  1.8298 -0.9794 -1.1223
 7542TIP3   OH244116   5.955   6.264   3.303 -0.3476 -0.5026  0.4529
 7542TIP3    H144117   5.870   6.226   3.328 -0.8033 -1.4565 -2.2108
 7542TIP3    H244118   6.014   6.189   3.299 -0.5910 -0.6411 -2.2240
 7543TIP3   OH244119   4.356   6.081   3.857  0.5104  0.5193 -0.0812
 7543TIP3    H144120   4.432   6.093   3.914 -0.2383 -0.4689  1.1825
 7543TIP3    H244121   4.381   6.011   3.798  0.2417 -0.5126  1.0010
 7544TIP3   OH244122   3.072   6.335  15.474  0.2270 -0.2571  0.2147
 7544TIP3    H144123   3.038   6.356  15.387 -0.9241 -3.0724 -0.1141
 7544TIP3    H244124   3.163   6.310  15.458  0.6595  1.2761  0.1676
 7545TIP3   OH244125   2.336   1.631  14.658 -0.5563 -0.3072 -0.1794
 7545TIP3    H144126   2.380   1.647  14.742 -0.3052 -0.9607 -0.1795
 7545TIP3    H244127   2.247   1.663  14.671 -0.5902 -0.6334  0.4198
 7546TIP3   OH244128   1.075   1.849   5.027 -0.1961  0.1889 -0.8526
 7546TIP3    H144129   1.165   1.880   5.032 -0.3740  0.5834  0.0641
 7546TIP3    H244130   1.079   1.773   4.969  0.8480 -0.2633 -0.2152
 7547TIP3   OH244131   0.805   1.822   5.497  0.0381  0.2225  0.0119
 7547TIP3    H144132   0.867   1.756   5.527  0.0790  0.3375  0.1810
 7547TIP3    H244133   0.811   1.891   5.562 -0.1612  0.2980 -0.0503
 7548TIP3   OH244134   1.280   0.598   0.331  1.0169  0.1369 -0.0112
 7548TIP3    H144135   1.277   0.549   0.413  1.2188 -0.2591 -0.2406
 7548TIP3    H244136   1.373   0.616   0.317  1.2365 -1.7100 -1.2764
 7549TIP3   OH244137   0.042   0.616   4.388  0.1805 -0.2035  0.5823
 7549TIP3    H144138  -0.028   0.639   4.327  0.4903  2.0844  0.9949
 7549TIP3    H244139   0.019   0.529   4.420 -2.4456  0.4498  0.6715
 7550TIP3   OH244140   6.054   4.126   4.381 -0.4323  0.0261 -0.2982
 7550TIP3    H144141   6.096   4.124   4.467 -0.8460 -1.2592 -0.1020
 7550TIP3    H244142   6.098   4.197   4.334  0.8626 -0.2667  0.4338
 7551TIP3   OH244143   3.437   4.924  11.345 -0.2204  0.6542  0.1560
 7551TIP3    H144144   3.466   4.973  11.422 -2.9623 -0.0418  1.7729
 7551TIP3    H244145   3.513   4.871  11.320 -0.0253 -1.3512  4.2682
 7552TIP3   OH244146   6.610   5.698  15.339  0.0836  0.0594  0.1114
 7552TIP3    H144147   6.585   5.617  15.294  1.0291 -0.4255  0.4524
 7552TIP3    H244148   6.536   5.757  15.323 -0.9143 -1.0701  0.4001
 7553TIP3   OH244149   4.629   4.605   6.610 -0.2651  0.5694  0.2121
 7553TIP3    H144150   4.639   4.519   6.569 -1.1361  0.0641  1.0166
 7553TIP3    H244151   4.688   4.603   6.685 -0.2474  0.6868  0.2018
 7554TIP3   OH244152   1.760   5.360   1.598  0.5366 -0.1288 -0.3405
 7554TIP3    H144153   1.693   5.302   1.560  1.2278 -0.3485 -1.2828
 7554TIP3    H244154   1.789   5.414   1.524  1.5286 -0.1747 -0.0014
 7555TIP3   OH244155   5.489   4.406   2.594  0.3482 -0.0567 -0.1113
 7555TIP3    H144156   5.465   4.336   2.655  0.7064 -0.7039 -0.7025
 7555TIP3    H244157   5.479   4.486   2.645 -0.0005 -0.5394  0.5990
 7556TIP3   OH244158   5.732   4.482   3.424  0.7307 -0.1676  0.4363
 7556TIP3    H144159   5.803   4.515   3.479  0.3040 -0.2167  1.0355
 7556TIP3    H244160   5.745   4.387   3.423  1.0564 -0.1201 -0.0032
 7557TIP3   OH244161   5.762   6.030  15.734  0.6135  0.6088  0.5003
 7557TIP3    H144162   5.787   6.000  15.647  0.7131 -0.7893  0.9796
 7557TIP3    H244163   5.841   6.019  15.787 -0.0674 -0.7482  1.2765
 7558TIP3   OH244164   3.439   4.748   3.784  0.2623  0.1519  0.0577
 7558TIP3    H144165   3.518   4.694   3.790  1.0013  1.1343 -0.4815
 7558TIP3    H244166   3.421   4.753   3.690  0.0179  0.5812  0.1258
 7559TIP3   OH244167   6.511   6.313  14.287 -0.3134 -0.4155 -0.1154
 7559TIP3    H144168   6.529   6.220  14.300  0.6921 -0.0048  1.9710
 7559TIP3    H244169   6.589   6.357  14.320 -1.3878  1.2088  0.3883
 7560TIP3   OH244170   0.455   1.201   3.371  0.1017 -0.5420  0.0838
 7560TIP3    H144171   0.372   1.160   3.394 -0.1189 -0.2324 -0.1595
 7560TIP3    H244172   0.521   1.134   3.390 -0.4675 -2.4708 -3.6820
 7561TIP3   OH244173   1.090   4.479   2.956 -0.0940  0.2109  0.4888
 7561TIP3    H144174   0.996   4.489   2.943 -0.0134  1.3884  0.6363
 7561TIP3    H244175   1.128   4.492   2.869  0.0510  2.0178  0.7726
 7562TIP3   OH244176   4.478   5.950   5.579 -0.1918 -0.8126 -0.4424
 7562TIP3    H144177   4.440   6.037   5.589  2.5163  0.2794  1.8946
 7562TIP3    H244178   4.527   5.954   5.497  0.8426  0.3076  0.2017
 7563TIP3   OH244179   0.567   1.767   2.976 -0.5504  0.8078  0.6803
 7563TIP3    H144180   0.572   1.671   2.977  0.3088  0.8471  0.5397
 7563TIP3    H244181   0.511   1.787   2.901  0.0993  0.4427  0.0865
 7564TIP3   OH244182   5.155   0.537   0.368 -0.0662  0.4140  0.5285
 7564TIP3    H144183   5.184   0.450   0.394  2.4132  0.3465 -2.0308
 7564TIP3    H244184   5.064   0.525   0.341 -0.9543 -0.5527  3.5506
 7565TIP3   OH244185   1.366   3.585  13.072 -0.1585 -0.7283  0.2606
 7565TIP3    H144186   1.319   3.513  13.113 -1.0555  0.5788  1.6453
 7565TIP3    H244187   1.304   3.658  13.073  0.7230  0.0972 -1.0786
 7566TIP3   OH244188   6.729   6.408   1.266  0.4828  0.2685  0.0859
 7566TIP3    H144189   6.813   6.453   1.274  1.3462 -1.2513 -0.1338
 7566TIP3    H244190   6.693   6.409   1.355  1.0264  0.3669  0.3103
 7567TIP3   OH244191   5.881   3.994   2.422 -0.3538  0.3403  0.3923
 7567TIP3    H144192   5.790   4.004   2.448 -0.2211  0.6890  0.7341
 7567TIP3    H244193   5.907   3.909   2.456 -0.7174 -0.0166 -0.2064
 7568TIP3   OH244194   3.297   1.849  16.991 -0.2639 -0.4974  0.2991
 7568TIP3    H144195   3.318   1.779  16.930 -0.8427 -0.5003  0.1062
 7568TIP3    H244196   3.348   1.828  17.070  2.4471  0.7766 -0.9551
 7569TIP3   OH244197   5.407   6.654   3.465 -0.1444 -1.0167  0.8954
 7569TIP3    H144198   5.383   6.626   3.376 -0.8521 -2.4755  1.5047
 7569TIP3    H244199   5.501   6.675   3.459 -0.6167  0.9949 -0.6454
 7570TIP3   OH244200   0.203   4.450  11.152 -0.0515 -0.3264 -0.6239
 7570TIP3    H144201   0.280   4.490  11.112 -0.0737  0.2708 -0.0948
 7570TIP3    H244202   0.142   4.523  11.163  0.5464 -0.1257  1.9259
 7571TIP3   OH244203   0.616   3.652   5.798  0.4743 -0.5814  0.4032
 7571TIP3    H144204   0.578   3.579   5.749  2.3691 -1.7980  0.6353
 7571TIP3    H244205   0.572   3.729   5.764 -1.4409 -1.7934 -0.0151
 7572TIP3   OH244206   0.402   0.743  13.097  0.2157 -0.4257  0.1901
 7572TIP3    H144207   0.330   0.790  13.139  0.0577 -0.3017 -0.2194
 7572TIP3    H244208   0.471   0.809  13.088 -0.0951 -0.2028 -0.6094
 7573TIP3   OH244209   3.273   3.401  15.345 -0.2955 -0.3027  0.3085
 7573TIP3    H144210   3.199   3.461  15.348 -0.2479 -0.2653  0.9212
 7573TIP3    H244211   3.282   3.369  15.435  0.4901 -0.2303  0.2670
 7574TIP3   OH244212   2.637   0.307  12.184  0.3291  0.0053  0.5326
 7574TIP3    H144213   2.627   0.212  12.191  0.1138  0.0690  1.2117
 7574TIP3    H244214   2.723   0.325  12.223 -0.2691  0.2260  1.8192
 7575TIP3   OH244215   2.620   3.975  17.047  1.0909  0.2439  0.2069
 7575TIP3    H144216   2.630   3.891  17.091  0.3347 -0.8458 -1.5978
 7575TIP3    H244217   2.539   4.011  17.083  1.5311  0.3334  1.1422
 7576TIP3   OH244218   2.616   1.884   4.872 -0.0181  0.4937  0.3821
 7576TIP3    H144219   2.705   1.862   4.843 -0.6044  0.4048 -1.5182
 7576TIP3    H244220   2.597   1.822   4.942  1.2626  0.2379  0.5194
 7577TIP3   OH244221   3.616   1.087  10.730 -0.7247  0.5713 -0.2980
 7577TIP3    H144222   3.596   1.012  10.674  0.1715  1.7755 -2.3442
 7577TIP3    H244223   3.530   1.122  10.754 -1.1323 -0.2045 -0.5839
 7578TIP3   OH244224   3.678   4.690  11.533  0.4152 -0.2434 -0.4215
 7578TIP3    H144225   3.698   4.712  11.442 -1.4454 -2.4864 -1.4556
 7578TIP3    H244226   3.744   4.625  11.557  0.2911 -0.4023 -0.5112
 7579TIP3   OH244227   3.546   4.674  12.619 -0.0538 -0.1259  0.7031
 7579TIP3    H144228   3.552   4.587  12.579 -2.3282  0.4747 -1.0828
 7579TIP3    H244229   3.564   4.658  12.712 -1.4011 -2.6914  0.6091
 7580TIP3   OH244230   6.512   2.957   4.678  0.7151  0.1264 -0.1185
 7580TIP3    H144231   6.485   3.010   4.604 -0.0073 -0.8171 -0.5491
 7580TIP3    H244232   6.582   2.901   4.644  1.1067  0.4244  0.1909
 7581TIP3   OH244233   2.334   5.820  11.751  0.6102  0.0632  0.0713
 7581TIP3    H144234   2.340   5.809  11.657  0.7577 -0.8748  0.1772
 7581TIP3    H244235   2.264   5.884  11.764 -0.0390 -0.4784 -0.6510
 7582TIP3   OH244236   3.479   2.796  13.668 -0.4447 -0.1946  0.8335
 7582TIP3    H144237   3.422   2.722  13.691 -1.2843  0.2603  0.2488
 7582TIP3    H244238   3.564   2.755  13.649 -0.5606 -0.8779  1.7210
 7583TIP3   OH244239   2.071   1.236   4.142  0.0206 -0.2424  0.2272
 7583TIP3    H144240   2.092   1.327   4.122 -2.3647 -0.2015 -3.0452
 7583TIP3    H244241   2.009   1.241   4.215  0.7439  0.6402  0.7958
 7584TIP3   OH244242   4.438   6.237  11.352  0.1896 -0.0608  0.2193
 7584TIP3    H144243   4.532   6.244  11.370  0.4773 -1.5684 -0.5067
 7584TIP3    H244244   4.416   6.318  11.306  1.1703  0.2535  0.2857
 7585TIP3   OH244245   4.864   1.456   3.029 -0.1594 -0.2772  0.3037
 7585TIP3    H144246   4.795   1.491   3.086 -0.6494 -0.9222  0.1153
 7585TIP3    H244247   4.933   1.522   3.032  0.4323 -0.8972  2.7535
 7586TIP3   OH244248   3.147   6.017   4.692  0.1724  0.0244  0.2697
 7586TIP3    H144249   3.083   6.050   4.754 -0.4311 -3.6536  1.8449
 7586TIP3    H244250   3.193   5.947   4.738  3.2632  0.4152 -1.8307
 7587TIP3   OH244251   2.418   5.314   0.763 -0.6575  0.0752  0.2703
 7587TIP3    H144252   2.435   5.367   0.685  0.5311 -1.6722 -0.7303
 7587TIP3    H244253   2.388   5.377   0.829  0.4535  1.9399 -0.9069
 7588TIP3   OH244254   2.712   2.834  16.844 -0.0231 -0.0786  0.2869
 7588TIP3    H144255   2.658   2.912  16.849  0.5072  0.6253 -2.6589
 7588TIP3    H244256   2.797   2.861  16.880 -0.1043  0.4708  0.0803
 7589TIP3   OH244257   4.327   5.311  12.070  0.1156  0.6184  0.0245
 7589TIP3    H144258   4.325   5.372  11.995  0.1631 -1.9363 -2.2045
 7589TIP3    H244259   4.242   5.267  12.066  1.0949 -1.3296 -0.1490
 7590TIP3   OH244260   4.724   6.563  16.198 -0.2323 -0.3911  0.4601
 7590TIP3    H144261   4.789   6.497  16.175  0.3166 -0.5746  2.3746
 7590TIP3    H244262   4.672   6.523  16.268 -1.9643  0.0304 -0.5218
 7591TIP3   OH244263   4.416   3.467   1.092  0.1784  0.0705  0.2762
 7591TIP3    H144264   4.454   3.526   1.026 -0.7672  0.6921  0.2750
 7591TIP3    H244265   4.428   3.380   1.054  0.6463  0.3333 -0.2092
 7592TIP3   OH244266   4.196   6.086   0.086 -0.0908 -0.3835  0.0469
 7592TIP3    H144267   4.229   6.017   0.030 -0.9666 -0.8034  0.0249
 7592TIP3    H244268   4.169   6.155   0.026 -1.6542 -1.1052 -0.1248
 7593TIP3   OH244269   1.791   5.391  11.695 -0.4700  0.5610 -0.0484
 7593TIP3    H144270   1.770   5.461  11.757 -0.7052  0.4786 -0.0347
 7593TIP3    H244271   1.811   5.437  11.613 -0.3770  0.6572  0.0273
 7594TIP3   OH244272   6.198   1.930  13.881  0.4260 -0.1040  0.3446
 7594TIP3    H144273   6.118   1.878  13.889 -0.3554  1.2372  1.6584
 7594TIP3    H244274   6.222   1.952  13.971  2.8256 -1.2261  0.0482
 7595TIP3   OH244275   5.702   3.986   5.875  0.4873 -0.0248 -0.2840
 7595TIP3    H144276   5.678   4.079   5.879  0.3228 -0.0159 -1.1582
 7595TIP3    H244277   5.770   3.976   5.941 -0.4300  0.4142  0.7781
 7596TIP3   OH244278   1.042   4.287   0.080  0.0882 -0.5091  0.5402
 7596TIP3    H144279   1.115   4.261   0.024  0.8408  0.7454  0.9249
 7596TIP3    H244280   1.068   4.261   0.168  0.4324  0.6436  0.7915
 7597TIP3   OH244281   3.218   2.045  15.197  0.7430  0.0452 -0.6106
 7597TIP3    H144282   3.229   1.998  15.280 -1.0503 -1.9158 -1.3882
 7597TIP3    H244283   3.274   1.998  15.136  0.6188  0.2917 -0.9127
 7598TIP3   OH244284   4.185   0.475   0.082  0.5377  0.3408 -0.2089
 7598TIP3    H144285   4.178   0.475   0.177  0.7975 -1.7128 -0.1395
 7598TIP3    H244286   4.277   0.496   0.064  0.7636 -0.4142  0.0500
 7599TIP3   OH244287   4.352   0.310   3.061 -0.5422  0.4204 -0.5524
 7599TIP3    H144288   4.260   0.285   3.050 -0.3296 -0.5410 -0.2306
 7599TIP3    H244289   4.386   0.248   3.125  0.2273  1.0394 -0.3506
 7600TIP3   OH244290   3.712   3.853   2.340 -0.0341  0.7294  0.6267
 7600TIP3    H144291   3.714   3.947   2.321  0.3973  0.5551 -0.1747
 7600TIP3    H244292   3.803   3.827   2.346 -0.1480  0.1913  0.0434
 7601TIP3   OH244293   4.757   2.422   4.204  0.1095  0.7588 -0.1674
 7601TIP3    H144294   4.687   2.438   4.267 -1.2638 -2.9523 -0.5256
 7601TIP3    H244295   4.837   2.450   4.248 -1.0274  0.1342  2.4340
 7602TIP3   OH244296   5.050   0.821  16.328  0.2648 -0.4049  0.1272
 7602TIP3    H144297   5.119   0.887  16.339 -1.3502  1.2777  0.7206
 7602TIP3    H244298   5.023   0.831  16.237 -1.4883  1.4411  0.7595
 7603TIP3   OH244299   3.776   1.928  13.002 -0.2169 -0.3535 -0.0217
 7603TIP3    H144300   3.851   1.934  13.060 -0.0548 -1.8715 -0.0474
 7603TIP3    H244301   3.801   1.978  12.925  0.5257 -0.3612  0.2082
 7604TIP3   OH244302   5.824   5.712  12.660  0.5519 -0.1303  0.5124
 7604TIP3    H144303   5.787   5.686  12.576  1.3961 -1.5555  0.5395
 7604TIP3    H244304   5.912   5.672  12.661  1.1393  1.1168  1.4396
 7605TIP3   OH244305   5.635   6.752  10.326 -0.5118 -0.8427 -0.4586
 7605TIP3    H144306   5.686   6.832  10.330 -0.9417 -0.5611 -0.5378
 7605TIP3    H244307   5.700   6.682  10.321 -0.1286 -0.4310 -1.7402
 7606TIP3   OH244308   5.559   2.434   5.099 -0.6548 -0.0065  0.6760
 7606TIP3    H144309   5.500   2.431   5.024 -0.5927  1.0994  0.5599
 7606TIP3    H244310   5.637   2.386   5.071 -1.0293 -0.4604  0.4028
 7607TIP3   OH244311   5.639   2.560  13.602 -0.1496  0.4005 -0.2622
 7607TIP3    H144312   5.569   2.609  13.645 -0.7255 -1.7459  1.4333
 7607TIP3    H244313   5.593   2.503  13.540  0.4150  1.2523 -1.4936
 7608TIP3   OH244314   2.075   4.299  11.179  0.0776  0.2936 -0.1620
 7608TIP3    H144315   2.050   4.340  11.096 -2.5545 -1.1032 -0.1557
 7608TIP3    H244316   2.091   4.208  11.157  0.9467  0.2377  0.6387
 7609TIP3   OH244317   6.364   1.658  16.094 -0.2330  0.5713  0.4826
 7609TIP3    H144318   6.375   1.563  16.083  2.4279  1.0412 -2.0464
 7609TIP3    H244319   6.418   1.680  16.170  0.2932  0.2410  0.2076
 7610TIP3   OH244320   1.749   0.695  11.105  0.7821  0.1519  0.0808
 7610TIP3    H144321   1.732   0.706  11.011 -1.2341  2.1564  0.6086
 7610TIP3    H244322   1.683   0.633  11.134  0.9233  0.1187  0.3316
 7611TIP3   OH244323   6.129   1.131  17.200  0.7800  0.5087  0.6498
 7611TIP3    H144324   6.168   1.129  17.112  2.6382  1.0159  1.4079
 7611TIP3    H244325   6.192   1.181  17.252 -0.9503  1.4078  1.9741
 7612TIP3   OH244326   5.072   1.964  13.148 -0.0173  0.1031  0.7764
 7612TIP3    H144327   5.143   2.023  13.172 -0.1070 -0.0175  1.3819
 7612TIP3    H244328   5.018   2.013  13.087  1.3445 -0.2944 -0.8219
 7613TIP3   OH244329   3.854   5.803  15.006 -0.0421 -0.0751 -0.3218
 7613TIP3    H144330   3.882   5.887  14.970 -0.7267 -0.7274 -2.5694
 7613TIP3    H244331   3.932   5.747  15.001  0.4727  0.4253  1.3705
 7614TIP3   OH244332   1.179   4.481  15.509  0.0650  0.0902 -0.0150
 7614TIP3    H144333   1.146   4.457  15.595 -0.0148 -0.5012 -0.2110
 7614TIP3    H244334   1.119   4.440  15.447 -0.1932  0.9471 -0.3568
 7615TIP3   OH244335   0.859   2.544  17.218 -0.8124 -0.3428 -0.2583
 7615TIP3    H144336   0.880   2.635  17.237  1.8427 -0.8715 -0.2451
 7615TIP3    H244337   0.866   2.499  17.302  2.0001 -1.1643 -0.8097
 7616TIP3   OH244338   5.948   4.053  15.782 -0.3353 -0.5762  0.3347
 7616TIP3    H144339   5.997   4.095  15.853  0.4686  0.4063 -0.7524
 7616TIP3    H244340   6.012   4.046  15.710 -1.2534 -1.0989 -0.4512
 7617TIP3   OH244341   4.876   0.592   0.257  0.7756 -0.4018  0.6760
 7617TIP3    H144342   4.845   0.680   0.278  1.9057 -0.3195  2.1490
 7617TIP3    H244343   4.809   0.534   0.294  0.3025 -0.1835  0.1759
 7618TIP3   OH244344   5.354   1.636   2.192  0.4160  0.2665  0.2067
 7618TIP3    H144345   5.305   1.645   2.110  0.7883 -0.4902 -0.1146
 7618TIP3    H244346   5.310   1.695   2.253  0.4788  1.2612 -0.6886
 7619TIP3   OH244347   3.264   3.421   6.326 -0.0158  0.7815 -0.1109
 7619TIP3    H144348   3.197   3.380   6.381 -1.7111  1.3063 -1.6643
 7619TIP3    H244349   3.307   3.347   6.283  0.2848  0.4458  0.7358
 7620TIP3   OH244350   1.265   6.770  16.793  0.0979 -0.1611  0.2159
 7620TIP3    H144351   1.234   6.834  16.857 -1.6864 -0.7013 -0.0613
 7620TIP3    H244352   1.195   6.765  16.728  1.4527 -0.3243 -1.2915
 7621TIP3   OH244353   3.846   0.370   0.586  0.0369  0.7220  0.6045
 7621TIP3    H144354   3.832   0.462   0.562 -1.2481  1.0776  2.5525
 7621TIP3    H244355   3.920   0.372   0.646  0.5201  0.3520  0.0402
 7622TIP3   OH244356   4.227   6.353  13.351  0.3185 -0.0806  0.2157
 7622TIP3    H144357   4.182   6.337  13.434 -0.1910 -0.7142 -0.1744
 7622TIP3    H244358   4.272   6.271  13.331  0.6052  0.1324 -0.0357
 7623TIP3   OH244359   4.767   6.347   3.571 -0.0002 -0.1281  0.4368
 7623TIP3    H144360   4.825   6.273   3.553 -0.9468 -0.8606  0.3717
 7623TIP3    H244361   4.721   6.362   3.489  0.3099  0.6549  0.3984
 7624TIP3   OH244362   0.232   0.989   2.644 -0.1851  0.6630 -0.3133
 7624TIP3    H144363   0.276   0.990   2.729  0.3586  0.7352 -0.5943
 7624TIP3    H244364   0.283   1.050   2.590  0.7443 -0.9564 -1.3332
 7625TIP3   OH244365   0.577   6.270  13.024  0.4546  0.5232  0.6134
 7625TIP3    H144366   0.522   6.234  13.094  1.9921 -4.4534 -0.2766
 7625TIP3    H244367   0.665   6.269  13.061  0.8287  1.3487 -0.2450
 7626TIP3   OH244368   5.870   0.721   4.846 -0.2509  0.7661 -0.2261
 7626TIP3    H144369   5.863   0.667   4.768 -3.2229  0.5373  0.1136
 7626TIP3    H244370   5.945   0.685   4.893 -0.4428 -1.2427 -1.3613
 7627TIP3   OH244371   1.380   1.090   0.026 -0.0753 -0.5690  0.0540
 7627TIP3    H144372   1.362   1.183   0.039  1.7184 -0.4082  1.9345
 7627TIP3    H244373   1.295   1.047   0.037 -0.6705  0.7204  0.7119
 7628TIP3   OH244374   2.273   0.653   3.913  0.3101 -0.4233 -0.2087
 7628TIP3    H144375   2.278   0.743   3.883 -1.1901  0.6741  2.4717
 7628TIP3    H244376   2.364   0.627   3.928  0.9081 -0.1296 -2.8217
 7629TIP3   OH244377   1.355   6.013   4.445 -0.0890 -0.3728  0.3644
 7629TIP3    H144378   1.409   5.958   4.501 -0.5900 -1.7652 -0.4692
 7629TIP3    H244379   1.403   6.095   4.438  1.3235 -1.1496  0.6018
 7630TIP3   OH244380   2.718   1.646  16.690 -0.0271 -0.1415  0.0923
 7630TIP3    H144381   2.812   1.653  16.674 -0.1651  2.9577  0.1457
 7630TIP3    H244382   2.711   1.636  16.785  0.2188 -0.2915  0.0976
 7631TIP3   OH244383   3.896   3.504  13.481  0.5173  0.2586 -0.1997
 7631TIP3    H144384   3.864   3.516  13.392 -1.2609 -0.7182  0.2597
 7631TIP3    H244385   3.831   3.547  13.536  1.5263  0.7307  0.6469
 7632TIP3   OH244386   2.562   2.352  11.532  0.0023 -0.2031  0.1351
 7632TIP3    H144387   2.650   2.347  11.571  0.8149  1.4227 -1.3594
 7632TIP3    H244388   2.570   2.417  11.463 -2.0442 -1.0950 -1.0266
 7633TIP3   OH244389   5.622   0.649  16.000 -0.6484 -0.1000 -0.2918
 7633TIP3    H144390   5.650   0.725  15.948 -1.0931 -0.7295 -1.4898
 7633TIP3    H244391   5.633   0.575  15.941 -1.7875 -0.7625  0.2985
 7634TIP3   OH244392   3.841   1.384  13.491  0.2164  0.0090 -0.0435
 7634TIP3    H144393   3.819   1.358  13.402  0.7657 -1.5467  0.2522
 7634TIP3    H244394   3.918   1.332  13.513  1.4581  1.9854  0.5765
 7635TIP3   OH244395   3.603   5.690   3.162  0.3839  0.3924  0.0377
 7635TIP3    H144396   3.522   5.644   3.139  0.7400 -0.1798 -0.1141
 7635TIP3    H244397   3.575   5.768   3.208 -0.2468  0.0912  0.1709
 7636TIP3   OH244398   0.850   3.547  15.051  0.7687  0.4013  0.2008
 7636TIP3    H144399   0.807   3.594  15.122  0.3307  0.9856 -0.4466
 7636TIP3    H244400   0.852   3.456  15.082  2.8246  0.9930  2.0450
 7637TIP3   OH244401   2.231   5.304  14.146  0.5124 -0.1765  0.9154
 7637TIP3    H144402   2.148   5.319  14.101  0.8753 -1.4514 -0.2686
 7637TIP3    H244403   2.228   5.361  14.222 -0.9182  0.7200  0.2346
 7638TIP3   OH244404   6.580   5.398   1.534 -0.7137  0.3481 -0.4644
 7638TIP3    H144405   6.590   5.384   1.628 -1.7878  0.4032 -0.3325
 7638TIP3    H244406   6.625   5.481   1.518 -0.0398  0.0645 -0.1066
 7639TIP3   OH244407   2.985   1.572  12.623 -0.1489 -0.3785 -0.0710
 7639TIP3    H144408   3.035   1.491  12.615  0.5869  0.0089  0.4594
 7639TIP3    H244409   2.994   1.614  12.537 -0.9958 -1.1049 -0.5315
 7640TIP3   OH244410   3.899   6.697   5.345 -0.4145 -0.0714 -0.5900
 7640TIP3    H144411   3.993   6.693   5.328 -0.7082  0.2917 -2.6053
 7640TIP3    H244412   3.880   6.790   5.355 -0.6418 -0.1021 -0.7172
 7641TIP3   OH244413   5.465   0.400   1.223 -0.1947  0.0595 -0.1241
 7641TIP3    H144414   5.401   0.411   1.152 -1.3409  0.1597  0.8852
 7641TIP3    H244415   5.520   0.478   1.218 -0.9091  0.5684 -0.2791
 7642TIP3   OH244416   0.254   3.173   3.498  0.2278 -0.5274 -0.0931
 7642TIP3    H144417   0.212   3.142   3.418  0.1028  0.3503 -0.3849
 7642TIP3    H244418   0.344   3.193   3.471  0.1668 -0.1656 -0.0321
 7643TIP3   OH244419   5.794   2.978   5.483  0.3441 -0.2897  0.4051
 7643TIP3    H144420   5.841   3.005   5.562 -0.8117 -0.4401  1.1796
 7643TIP3    H244421   5.780   3.059   5.434 -0.7862  0.1570  1.4187
 7644TIP3   OH244422   6.698   2.110  11.710 -0.2491  0.1914 -0.1820
 7644TIP3    H144423   6.668   2.058  11.783 -2.6437  0.5190 -0.8464
 7644TIP3    H244424   6.692   2.052  11.634 -0.6283  0.7085 -0.5587
 7645TIP3   OH244425   4.637   0.036   4.843  0.1080 -0.6052  0.0730
 7645TIP3    H144426   4.655   0.115   4.893 -1.8633 -0.3571  0.4949
 7645TIP3    H244427   4.544   0.019   4.860 -0.2252 -1.3902 -2.2709
 7646TIP3   OH244428   3.247   1.584   3.931  0.5406  0.2490 -0.5134
 7646TIP3    H144429   3.329   1.536   3.927  0.4667  0.1350 -0.6682
 7646TIP3    H244430   3.269   1.667   3.973  0.6515  0.0460 -0.1648
 7647TIP3   OH244431   1.467   3.958   2.636 -0.5831  0.2886  0.2193
 7647TIP3    H144432   1.451   4.051   2.652  1.2986  0.6547  0.1924
 7647TIP3    H244433   1.446   3.945   2.544 -0.4560  0.8006  0.1167
 7648TIP3   OH244434   1.057   4.747   0.563  0.8333  0.4673 -0.0971
 7648TIP3    H144435   1.050   4.687   0.637 -1.4566  1.3850  0.5204
 7648TIP3    H244436   1.057   4.690   0.486 -0.9249 -0.3908  0.4847
 7649TIP3   OH244437   1.438   4.909  11.743  0.3475  0.0363 -0.0542
 7649TIP3    H144438   1.413   4.820  11.767 -0.0636  0.6139  1.8127
 7649TIP3    H244439   1.363   4.944  11.695 -0.2570 -0.0284  0.8228
 7650TIP3   OH244440   1.733   0.950  14.244  0.1295 -0.0526  0.0369
 7650TIP3    H144441   1.664   1.012  14.223  1.2370  0.8474 -1.1427
 7650TIP3    H244442   1.691   0.864  14.240 -0.5218  0.3113 -2.7071
 7651TIP3   OH244443   6.596   4.745  14.824 -0.1131  0.5298  0.0852
 7651TIP3    H144444   6.508   4.781  14.832 -0.9745 -1.2490 -0.7401
 7651TIP3    H244445   6.586   4.652  14.845  1.9708  0.6416  1.9829
 7652TIP3   OH244446   6.703   4.318  14.453 -0.0704  0.0102  0.1302
 7652TIP3    H144447   6.685   4.410  14.470  0.6337  0.1033  0.3622
 7652TIP3    H244448   6.652   4.271  14.519 -0.8005  0.2066 -0.2781
 7653TIP3   OH244449   1.292   0.457   3.824  0.3320  0.1800  0.5658
 7653TIP3    H144450   1.253   0.405   3.895  1.0303  0.2484  1.0159
 7653TIP3    H244451   1.227   0.525   3.806 -1.0387 -1.3533 -0.6917
 7654TIP3   OH244452   4.754   1.035  14.519 -0.0746 -0.4174  0.5317
 7654TIP3    H144453   4.659   1.034  14.534  0.0068 -0.4028  1.0843
 7654TIP3    H244454   4.770   0.962  14.459 -0.3971 -0.6374  0.7095
 7655TIP3   OH244455   2.155   5.572  15.728 -0.4348 -0.2916 -0.0817
 7655TIP3    H144456   2.211   5.541  15.657 -0.6162 -0.7979 -0.0152
 7655TIP3    H244457   2.125   5.491  15.771 -1.1142 -0.0284 -0.0459
 7656TIP3   OH244458   6.669   0.590   1.225 -0.0798 -0.3135 -0.2171
 7656TIP3    H144459   6.666   0.646   1.302 -1.0685  0.0359 -0.4956
 7656TIP3    H244460   6.623   0.510   1.251  0.2321 -0.4943 -0.2153
 7657TIP3   OH244461   2.357   3.073  17.333  0.6871 -0.9355 -0.2515
 7657TIP3    H144462   2.444   3.039  17.310  0.6207 -0.6126 -1.0227
 7657TIP3    H244463   2.374   3.151  17.385  0.9214  0.3667 -2.1705
 7658TIP3   OH244464   0.144   1.025   2.058 -0.5923  0.1330 -0.2399
 7658TIP3    H144465   0.088   0.960   2.016 -0.8456  0.0451  0.2339
 7658TIP3    H244466   0.226   1.022   2.008 -0.8771  0.0064 -0.7070
 7659TIP3   OH244467   3.076   1.571  13.468 -0.9071 -0.3954 -0.4098
 7659TIP3    H144468   3.140   1.622  13.517 -1.6116  0.5845 -0.4748
 7659TIP3    H244469   3.097   1.480  13.487  0.9749 -0.1270 -1.0406
 7660TIP3   OH244470   2.905   2.942  13.352 -0.0337 -0.1194 -0.2646
 7660TIP3    H144471   2.946   2.861  13.382  0.6994  0.1936 -0.3906
 7660TIP3    H244472   2.898   2.996  13.431  0.0875 -0.0527 -0.2992
 7661TIP3   OH244473   5.901   4.802  16.741  0.2458  0.1553  0.2470
 7661TIP3    H144474   5.936   4.884  16.705  1.2146 -0.2123  0.3021
 7661TIP3    H244475   5.830   4.778  16.682 -0.0978  1.0712  0.2702
 7662TIP3   OH244476   2.251   5.609  16.290  0.6302 -0.4056 -0.0624
 7662TIP3    H144477   2.326   5.586  16.234 -0.7524 -0.8859 -1.7819
 7662TIP3    H244478   2.260   5.704  16.304  0.5405 -0.1107 -1.8405
 7663TIP3   OH244479   1.718   0.402  13.229 -0.3310  0.0978  0.1381
 7663TIP3    H144480   1.629   0.367  13.228 -0.2743 -0.1098 -1.9603
 7663TIP3    H244481   1.709   0.491  13.193  0.2438  0.2831  0.4342
 7664TIP3   OH244482   4.681   0.732   1.760 -0.2722 -0.0369 -0.0864
 7664TIP3    H144483   4.597   0.776   1.770 -0.0742  0.0898  1.1195
 7664TIP3    H244484   4.746   0.796   1.787 -0.0395 -1.3182  2.6614
 7665TIP3   OH244485   1.180   5.791  12.619  0.1216  0.3000  0.6945
 7665TIP3    H144486   1.188   5.713  12.674 -0.0182  0.7068  1.3019
 7665TIP3    H244487   1.201   5.760  12.531 -4.0645 -1.4702  0.0739
 7666TIP3   OH244488   3.288   4.768   3.058  0.2522 -0.5805 -0.4252
 7666TIP3    H144489   3.308   4.674   3.060  0.1264 -0.6148 -0.6762
 7666TIP3    H244490   3.360   4.807   3.009  0.6486 -0.4541  0.2566
 7667TIP3   OH244491   4.428   3.020   0.809  0.3933 -0.5007 -0.2598
 7667TIP3    H144492   4.522   3.002   0.811  0.4649 -0.1858 -0.5948
 7667TIP3    H244493   4.387   2.935   0.823  0.7201 -0.8820 -1.4898
 7668TIP3   OH244494   2.201   4.067   0.329  0.6992 -0.0635 -0.0671
 7668TIP3    H144495   2.152   4.064   0.412  1.1883 -1.3174  0.1986
 7668TIP3    H244496   2.193   3.979   0.294 -0.2889  0.6894 -1.8600
 7669TIP3   OH244497   5.635   5.343   2.459  0.1642 -0.3511  0.2771
 7669TIP3    H144498   5.695   5.342   2.385 -0.4432  2.2270 -0.3699
 7669TIP3    H244499   5.598   5.255   2.462  0.6231 -0.6940 -2.1454
 7670TIP3   OH244500   5.418   5.852  14.539 -0.3783 -0.5316  0.4244
 7670TIP3    H144501   5.473   5.898  14.603 -0.1495 -1.5523  0.9748
 7670TIP3    H244502   5.354   5.918  14.511  0.7304  0.4956  0.2366
 7671TIP3   OH244503   1.136   4.449  14.778  0.0696 -0.2466  0.1129
 7671TIP3    H144504   1.059   4.394  14.764  0.1592 -0.3300 -0.0518
 7671TIP3    H244505   1.175   4.458  14.692  0.0965  0.0175  0.1497
 7672TIP3   OH244506   1.788   1.265  15.504 -0.1960  0.0783  0.1805
 7672TIP3    H144507   1.867   1.319  15.497 -1.1204  1.3679 -0.6756
 7672TIP3    H244508   1.803   1.194  15.440 -0.7234  1.6645 -1.7926
 7673TIP3   OH244509   2.218   4.224  15.861 -0.8021 -0.0003  0.7557
 7673TIP3    H144510   2.286   4.286  15.885 -0.2177 -0.5675  0.5915
 7673TIP3    H244511   2.263   4.140  15.854 -1.2320 -0.1425 -0.7638
 7674TIP3   OH244512   4.319   6.652   2.668 -0.4318 -0.5792 -0.0971
 7674TIP3    H144513   4.236   6.605   2.669 -0.8605  0.1669 -0.6452
 7674TIP3    H244514   4.299   6.738   2.632  0.1543  0.4080  1.7595
 7675TIP3   OH244515   4.539   6.118  10.604 -1.0881 -0.1280 -0.4911
 7675TIP3    H144516   4.464   6.156  10.558 -0.9149 -1.3621 -1.8819
 7675TIP3    H244517   4.611   6.123  10.541 -1.2265 -3.2833 -1.0938
 7676TIP3   OH244518   0.578   1.428  16.115 -0.7377 -0.1651 -0.2253
 7676TIP3    H144519   0.641   1.371  16.071  0.3716 -0.9168  2.1991
 7676TIP3    H244520   0.497   1.416  16.065  0.1981 -1.6502 -1.5027
 7677TIP3   OH244521   0.132   5.429  11.889 -0.1177  0.2338 -0.3724
 7677TIP3    H144522   0.204   5.384  11.933 -0.9830 -1.1779 -0.3435
 7677TIP3    H244523   0.160   5.521  11.886  1.5655 -0.2354 -0.1638
 7678TIP3   OH244524   3.715   3.732  16.506 -0.6108  0.6502 -0.1171
 7678TIP3    H144525   3.650   3.796  16.477 -0.7307  0.2434 -0.7864
 7678TIP3    H244526   3.764   3.711  16.427  0.3853  0.9927  0.3949
 7679TIP3   OH244527   1.090   0.877  10.976 -0.7080  0.4266 -0.9539
 7679TIP3    H144528   1.032   0.848  10.906  0.1027 -0.3323 -1.3314
 7679TIP3    H244529   1.101   0.971  10.960  1.0620 -0.0505 -3.1161
 7680TIP3   OH244530   1.306   5.145   0.587  0.4060  0.1613  0.4271
 7680TIP3    H144531   1.289   5.140   0.681  1.1873  0.1984  0.5711
 7680TIP3    H244532   1.316   5.054   0.559  1.7702  0.2134  0.6841
 7681TIP3   OH244533   0.469   6.070  15.631  0.3320  0.0623  0.5317
 7681TIP3    H144534   0.488   6.156  15.592 -1.5895  1.1767  1.8990
 7681TIP3    H244535   0.442   6.089  15.720  1.7670 -2.1850  1.5547
 7682TIP3   OH244536   3.553   2.793  12.847 -0.0799 -0.9519 -0.0559
 7682TIP3    H144537   3.517   2.848  12.776 -0.8208 -2.2787 -0.7549
 7682TIP3    H244538   3.626   2.746  12.806  0.9859 -0.0182  0.7230
 7683TIP3   OH244539   5.898   6.002  10.942  0.4910  0.0276  0.2995
 7683TIP3    H144540   5.907   5.958  10.857 -0.4778 -0.3857  0.3964
 7683TIP3    H244541   5.988   6.009  10.975  0.9282  0.5772 -0.9409
 7684TIP3   OH244542   3.380   0.019   4.293 -0.5040  0.1440 -0.1647
 7684TIP3    H144543   3.375   0.101   4.343 -0.9629  0.7354 -1.1433
 7684TIP3    H244544   3.467   0.022   4.251 -0.3670 -0.0581  0.1013
 7685TIP3   OH244545   5.088   2.065  11.523  0.1635 -0.5428  0.2162
 7685TIP3    H144546   5.032   2.047  11.448  0.8158 -2.7147  0.1747
 7685TIP3    H244547   5.051   2.012  11.594  0.9612 -0.4126  0.7462
 7686TIP3   OH244548   2.498   2.576   0.736  0.1165 -0.0062 -0.2422
 7686TIP3    H144549   2.540   2.498   0.773  0.9386  0.5315 -0.0099
 7686TIP3    H244550   2.571   2.631   0.707 -0.4793 -0.1734 -2.2413
 7687TIP3   OH244551   1.993   2.100  10.805 -0.1056  0.2691 -0.5563
 7687TIP3    H144552   1.966   2.022  10.756 -0.1095  0.1458 -0.3585
 7687TIP3    H244553   2.075   2.127  10.763  1.4171 -1.4662  1.1142
 7688TIP3   OH244554   6.585   6.270   5.068 -0.1572 -0.1347  0.3097
 7688TIP3    H144555   6.521   6.256   4.998  0.7994 -1.4469 -0.3356
 7688TIP3    H244556   6.638   6.344   5.037  0.4214 -0.8664 -0.4839
 7689TIP3   OH244557   2.875   0.596  15.938  0.3055  0.7021  0.1464
 7689TIP3    H144558   2.832   0.611  16.022  1.5196  0.6668  0.8046
 7689TIP3    H244559   2.804   0.570  15.879 -0.4298 -0.4502  1.4606
 7690TIP3   OH244560   6.640   4.383   0.432  0.1415 -0.3589  0.2808
 7690TIP3    H144561   6.728   4.416   0.450 -0.6303  1.5857  0.6924
 7690TIP3    H244562   6.648   4.288   0.443  2.1110 -0.2062  0.5871
 7691TIP3   OH244563   5.650   0.027   4.805  0.9907  0.3812 -0.0740
 7691TIP3    H144564   5.560  -0.002   4.824  0.0833  2.2906 -1.1857
 7691TIP3    H244565   5.690  -0.047   4.760  0.6166 -1.2015  2.0452
 7692TIP3   OH244566   5.536   4.598  16.400 -0.4691 -0.1420 -0.3642
 7692TIP3    H144567   5.535   4.503  16.391  0.0175 -0.2087  0.1919
 7692TIP3    H244568   5.533   4.631  16.311  0.0254 -0.6881 -0.5885
 7693TIP3   OH244569   1.923   5.612  15.864 -0.9227  0.0983 -0.0835
 7693TIP3    H144570   1.857   5.580  15.803 -0.1291  0.1083 -0.9813
 7693TIP3    H244571   1.992   5.648  15.808  0.3273 -0.8669  0.7680
 7694TIP3   OH244572   4.004   2.000   1.547  0.4074  0.6448 -0.8250
 7694TIP3    H144573   4.093   2.014   1.515  0.9022 -0.3644  0.0499
 7694TIP3    H244574   4.004   2.036   1.636  0.8694 -2.0466  0.3483
 7695TIP3   OH244575   5.836   4.494  10.962 -0.0833  0.0217 -0.4360
 7695TIP3    H144576   5.857   4.587  10.973  1.3042  0.0073 -2.3686
 7695TIP3    H244577   5.896   4.448  11.021  0.4980  0.2996 -0.7989
 7696TIP3   OH244578   6.655   6.188  16.681  0.2055 -0.0576  0.0212
 7696TIP3    H144579   6.624   6.098  16.671 -0.9078  0.2083  0.9087
 7696TIP3    H244580   6.575   6.241  16.688  0.8028  1.1603 -1.6396
 7697TIP3   OH244581   5.619   4.310   4.068  0.0148  0.2517 -0.4760
 7697TIP3    H144582   5.527   4.301   4.092  0.0856 -1.4803 -0.7357
 7697TIP3    H244583   5.654   4.372   4.132 -1.5057  1.7304 -0.9656
 7698TIP3   OH244584   4.517   2.558  12.812 -0.2049 -0.6614  0.1793
 7698TIP3    H144585   4.539   2.643  12.851 -1.0232 -0.4121  0.1273
 7698TIP3    H244586   4.424   2.546  12.832 -0.1190 -1.5153  0.1221
 7699TIP3   OH244587   4.463   5.695   4.300 -0.1465  0.1190  0.1777
 7699TIP3    H144588   4.517   5.655   4.232 -1.7192 -0.6812 -0.6613
 7699TIP3    H244589   4.502   5.781   4.316 -0.7530  1.1305 -3.0781
 7700TIP3   OH244590   0.305   1.266   2.613  0.6849  0.7786  0.1099
 7700TIP3    H144591   0.323   1.347   2.660  0.7026 -0.1952  1.8665
 7700TIP3    H244592   0.209   1.259   2.614  0.6002  1.4367 -1.2614
 7701TIP3   OH244593   0.624   4.836   1.357 -0.3026 -0.4397 -0.5767
 7701TIP3    H144594   0.700   4.874   1.313 -0.9117  3.8282  1.5389
 7701TIP3    H244595   0.551   4.855   1.299 -0.4621  0.9273  0.0224
 7702TIP3   OH244596   3.419   3.609   2.817  0.1077  0.1644  0.9101
 7702TIP3    H144597   3.429   3.515   2.832 -0.6647  0.1240  1.1805
 7702TIP3    H244598   3.509   3.641   2.806  0.4893 -0.3653  2.2522
 7703TIP3   OH244599   5.523   3.568  10.832  0.0825 -0.3093 -0.3845
 7703TIP3    H144600   5.441   3.594  10.874 -0.2678 -2.5318  0.4870
 7703TIP3    H244601   5.502   3.483  10.791  1.9580 -0.9793 -0.0328
 7704TIP3   OH244602   2.958   0.753  14.940 -0.0997  0.5453  0.1612
 7704TIP3    H144603   2.995   0.705  14.867 -0.2695  0.8435 -0.1284
 7704TIP3    H244604   2.877   0.791  14.904  0.6702  2.0960 -0.0018
 7705TIP3   OH244605   4.704   6.252  12.985  0.6752 -0.6709 -0.1738
 7705TIP3    H144606   4.769   6.256  12.915  0.9772  1.6540  0.1679
 7705TIP3    H244607   4.634   6.197  12.949  0.1119  1.6155 -2.9962
 7706TIP3   OH244608   5.994   6.507   3.407  0.0622 -0.1755  0.2479
 7706TIP3    H144609   5.905   6.542   3.411  0.0296 -0.2944  0.5820
 7706TIP3    H244610   5.982   6.416   3.380  0.2810  0.6271 -2.9301
 7707TIP3   OH244611   5.598   2.937  16.748 -0.2924  0.2421  0.4459
 7707TIP3    H144612   5.596   2.847  16.716 -1.8125  0.3664  0.1102
 7707TIP3    H244613   5.511   2.951  16.785  0.2500  1.2724  1.3735
 7708TIP3   OH244614   2.529   1.635   0.343 -0.3153 -0.3160 -0.2113
 7708TIP3    H144615   2.555   1.550   0.378 -0.2186 -0.0834  0.2810
 7708TIP3    H244616   2.581   1.699   0.392 -0.7017  0.0570 -0.2759
 7709TIP3   OH244617   5.333   1.062   4.808 -0.3667  0.0474 -0.5258
 7709TIP3    H144618   5.343   0.987   4.749  0.0955 -0.3155  0.0081
 7709TIP3    H244619   5.331   1.024   4.895 -2.3317  0.4596 -0.3361
 7710TIP3   OH244620   5.401   5.554  15.568 -0.2655  0.6489  0.6524
 7710TIP3    H144621   5.360   5.635  15.599  0.4796  0.4270  2.3800
 7710TIP3    H244622   5.494   5.576  15.561  0.1259 -0.2850  2.2224
 7711TIP3   OH244623   5.748   5.752  13.305 -0.4164  0.5484 -0.1336
 7711TIP3    H144624   5.681   5.685  13.317  1.6575 -1.7034 -0.3076
 7711TIP3    H244625   5.787   5.764  13.391 -0.1212  0.8016 -0.2973
 7712TIP3   OH244626   3.418   3.679  15.065  0.0529 -0.4967  0.0417
 7712TIP3    H144627   3.333   3.658  15.027 -0.8289  1.7107  0.6167
 7712TIP3    H244628   3.419   3.632  15.149 -0.5812 -0.5767  0.0096
 7713TIP3   OH244629   2.527   5.891   1.650 -0.0406  0.1711  0.0124
 7713TIP3    H144630   2.587   5.831   1.695 -2.5997 -3.7364 -1.2413
 7713TIP3    H244631   2.448   5.891   1.704 -0.8421  0.7353 -1.1224
 7714TIP3   OH244632   2.510   5.342  15.529 -0.1906 -0.2197 -0.1838
 7714TIP3    H144633   2.601   5.318  15.510  0.4584  1.0834  1.0984
 7714TIP3    H244634   2.488   5.292  15.607  0.6472  1.9562  1.5698
 7715TIP3   OH244635   4.759   5.532   4.434 -0.6742  0.6258  0.5309
 7715TIP3    H144636   4.839   5.552   4.483 -0.5733  0.1502  0.5622
 7715TIP3    H244637   4.688   5.545   4.498 -0.4600 -1.2991  1.2337
 7716TIP3   OH244638   6.732   6.473  14.353  0.4514  0.1183  0.5887
 7716TIP3    H144639   6.827   6.484  14.345  0.5989 -0.5636  1.3212
 7716TIP3    H244640   6.708   6.532  14.424  0.3426  0.1804  0.5016
 7717TIP3   OH244641   2.902   2.155   2.456  0.0334 -0.1245 -0.3824
 7717TIP3    H144642   2.958   2.226   2.487  0.7040 -0.6637 -0.3362
 7717TIP3    H244643   2.909   2.088   2.524 -0.0097 -0.5343 -0.7782
 7718TIP3   OH244644   0.592   5.229   2.646 -0.2535  0.2267 -0.4984
 7718TIP3    H144645   0.616   5.272   2.728  1.1925  0.4385 -1.0134
 7718TIP3    H244646   0.497   5.220   2.651 -0.1855  0.1126  1.2583
 7719TIP3   OH244647   1.751   4.286  12.396 -0.7789 -0.3773  0.0735
 7719TIP3    H144648   1.765   4.238  12.477 -0.3944  0.6226  0.6141
 7719TIP3    H244649   1.664   4.258  12.366 -0.5970 -1.3358  0.4076
 7720TIP3   OH244650   3.818   4.401   2.720  0.2464 -0.2547 -0.5748
 7720TIP3    H144651   3.741   4.457   2.720  0.9908  0.8080  0.1770
 7720TIP3    H244652   3.836   4.385   2.627  0.8776  1.9948 -0.8863
 7721TIP3   OH244653   1.437   2.782  15.356 -0.0056 -0.2007  0.0615
 7721TIP3    H144654   1.493   2.707  15.336 -0.4238 -0.8826  1.3182
 7721TIP3    H244655   1.377   2.750  15.424  0.6801  1.6236  1.6201
 7722TIP3   OH244656   5.523   6.485   3.169 -0.0404 -0.0398  0.3383
 7722TIP3    H144657   5.589   6.464   3.235  1.4679 -0.6251 -1.2945
 7722TIP3    H244658   5.540   6.576   3.145  0.3643 -0.2689 -0.2704
 7723TIP3   OH244659   5.610   4.039   2.443  0.2646 -0.0119 -0.4302
 7723TIP3    H144660   5.551   4.031   2.368 -1.2392  1.4275  0.4960
 7723TIP3    H244661   5.552   4.029   2.519  1.5722 -0.4716  0.5349
 7724TIP3   OH244662   5.067   3.116   0.718 -0.7111  0.6146 -0.0595
 7724TIP3    H144663   5.055   3.210   0.705 -0.5662  0.5212 -0.9575
 7724TIP3    H244664   5.162   3.103   0.716 -0.6286  0.6810  1.9223
 7725TIP3   OH244665   2.443   4.431  13.823 -0.1799  0.2511 -0.6526
 7725TIP3    H144666   2.486   4.395  13.901 -1.3020 -1.4082 -0.7434
 7725TIP3    H244667   2.418   4.354  13.772 -3.9900  0.9945 -0.2036
 7726TIP3   OH244668   3.012   1.177  10.927 -0.0915 -0.2210 -0.3225
 7726TIP3    H144669   3.060   1.111  10.878  0.1503 -0.9759  0.8850
 7726TIP3    H244670   2.943   1.206  10.867 -0.4033 -1.7963 -0.7719
 7727TIP3   OH244671   5.361   4.318   1.659  0.5855 -0.3121 -0.3212
 7727TIP3    H144672   5.299   4.380   1.621  1.2065 -0.2454 -1.2815
 7727TIP3    H244673   5.322   4.232   1.644 -1.1100 -0.1580  2.5398
 7728TIP3   OH244674   3.698   3.667   0.465  0.7233  0.0371  0.4723
 7728TIP3    H144675   3.753   3.737   0.429  1.5899 -0.4945  0.7312
 7728TIP3    H244676   3.724   3.588   0.417 -0.9222  0.0288 -0.5023
 7729TIP3   OH244677   4.645   4.311   1.469  0.1525  0.2908  0.1565
 7729TIP3    H144678   4.685   4.397   1.465  0.4456  0.1213 -0.6891
 7729TIP3    H244679   4.603   4.299   1.384  0.7527 -0.7019 -0.0170
 7730TIP3   OH244680   0.041   3.053   6.011  0.0607 -0.4230  0.0460
 7730TIP3    H144681   0.059   3.068   6.104  1.4364 -1.4453 -0.0102
 7730TIP3    H244682   0.035   3.141   5.973 -0.0427  0.0033  1.0236
 7731TIP3   OH244683   2.470   0.657  16.546  0.2849  0.2639  0.2144
 7731TIP3    H144684   2.426   0.717  16.486 -1.1785 -0.8687  0.1013
 7731TIP3    H244685   2.407   0.642  16.616  0.0529 -2.1209 -0.4124
 7732TIP3   OH244686   4.110   5.980  12.677 -0.0130 -0.0074 -0.3138
 7732TIP3    H144687   4.156   6.063  12.678  0.0575 -0.0503  0.1120
 7732TIP3    H244688   4.099   5.957  12.769  1.2533 -1.1788 -0.4180
 7733TIP3   OH244689   5.105   0.780  13.386 -0.4252  0.3436 -0.6944
 7733TIP3    H144690   5.147   0.865  13.378  0.7546 -0.1632 -0.0960
 7733TIP3    H244691   5.011   0.799  13.382 -0.1868  1.6680 -0.4547
 7734TIP3   OH244692   5.856   0.915   0.846  0.7113 -0.1674 -0.4258
 7734TIP3    H144693   5.908   0.899   0.767  0.4814 -2.1626 -0.2060
 7734TIP3    H244694   5.847   1.011   0.849  1.1715 -0.0089 -2.5095
 7735TIP3   OH244695   6.666   0.025  10.314 -0.1036  0.3195 -0.1181
 7735TIP3    H144696   6.758   0.006  10.296 -0.1325  1.1787 -1.3132
 7735TIP3    H244697   6.647  -0.020  10.396  0.6180 -2.2110 -1.2415
 7736TIP3   OH244698   2.027   2.473   3.673 -0.4885  0.1263  0.4394
 7736TIP3    H144699   1.966   2.527   3.623  0.4746  0.2700 -0.6226
 7736TIP3    H244700   1.971   2.421   3.731 -1.6265  0.2335 -0.5136
 7737TIP3   OH244701   3.303   2.682  17.268  0.1192  0.3577  0.4824
 7737TIP3    H144702   3.303   2.754  17.206  0.0520  0.2539  0.3604
 7737TIP3    H244703   3.217   2.687  17.310 -1.2681 -1.6126 -1.8459
 7738TIP3   OH244704   6.746   5.968   5.994 -0.5262 -0.4677 -0.0156
 7738TIP3    H144705   6.682   6.034   6.021 -2.0896 -2.3563  1.1888
 7738TIP3    H244706   6.814   5.971   6.061 -0.6247 -0.1347  0.0707
 7739TIP3   OH244707   0.514   3.348   4.480  0.4520  0.5923  0.6382
 7739TIP3    H144708   0.584   3.395   4.527  2.2587 -0.4778 -0.8564
 7739TIP3    H244709   0.542   3.350   4.388 -1.8867  0.7539 -0.1228
 7740TIP3   OH244710   1.533   0.707   5.862 -0.5241 -0.9999 -0.0691
 7740TIP3    H144711   1.504   0.783   5.912 -0.7202 -0.9834 -0.2079
 7740TIP3    H244712   1.627   0.722   5.848 -0.0957 -1.7636  1.6638
 7741TIP3   OH244713   1.982   2.518   3.146 -0.2535  0.2292 -0.0665
 7741TIP3    H144714   1.922   2.593   3.149  1.2250  1.4662  2.1255
 7741TIP3    H244715   2.061   2.550   3.189  0.2927 -2.7351  1.3825
 7742TIP3   OH244716   4.962   3.002  14.394 -0.2471  0.0614  0.0889
 7742TIP3    H144717   4.907   3.074  14.428 -0.0713 -0.7689  2.3344
 7742TIP3    H244718   4.959   3.012  14.299 -0.0530  3.1820  0.2996
 7743TIP3   OH244719   6.251   6.606   4.210 -0.0478 -0.7808 -0.0267
 7743TIP3    H144720   6.344   6.581   4.207 -0.5522 -2.8255  0.1422
 7743TIP3    H244721   6.211   6.557   4.138 -1.0483 -0.1032  0.0540
 7744TIP3   OH244722   5.783   0.316  12.757 -0.7227  0.2030  0.2833
 7744TIP3    H144723   5.784   0.222  12.776 -0.2941  0.2489  0.5015
 7744TIP3    H244724   5.736   0.323  12.674  0.4139 -0.3478 -0.4338
 7745TIP3   OH244725   6.119   0.130   1.952 -0.2203 -0.5512 -0.2714
 7745TIP3    H144726   6.208   0.131   1.915  0.1684 -0.2841  0.6502
 7745TIP3    H244727   6.094   0.222   1.957  0.5819 -0.3970  2.0746
 7746TIP3   OH244728   3.141   4.178  15.831  0.7811  0.5836  0.4855
 7746TIP3    H144729   3.046   4.172  15.840  0.7257 -0.2200 -0.4050
 7746TIP3    H244730   3.156   4.259  15.783  0.4496  0.1262 -0.4144
 7747TIP3   OH244731   3.547   3.724   6.788 -0.1599 -0.0206 -0.2946
 7747TIP3    H144732   3.628   3.765   6.760 -1.3081  1.3570 -1.7505
 7747TIP3    H244733   3.542   3.643   6.737  1.7743 -1.8109  2.0987
 7748TIP3   OH244734   4.515   5.290  11.356 -0.0681 -0.5668 -0.6861
 7748TIP3    H144735   4.474   5.369  11.391  1.9534 -0.3731  1.4631
 7748TIP3    H244736   4.454   5.219  11.378 -1.3484  0.2027 -1.6186
 7749TIP3   OH244737   0.298   5.440   2.298  0.3363  0.0809  0.3756
 7749TIP3    H144738   0.257   5.359   2.329 -1.6959  0.1167 -1.8571
 7749TIP3    H244739   0.265   5.507   2.357 -1.4615 -0.1840 -0.2402
 7750TIP3   OH244740   5.583   4.312  17.158  0.4569  0.2738 -0.2672
 7750TIP3    H144741   5.603   4.400  17.192  1.6709 -0.3604  0.7467
 7750TIP3    H244742   5.665   4.282  17.120  0.3642 -0.8283  0.3589
 7751TIP3   OH244743   5.633   0.266   1.631  0.4682 -0.4696  0.2847
 7751TIP3    H144744   5.600   0.240   1.717  1.8311 -3.1575  0.0812
 7751TIP3    H244745   5.727   0.252   1.636  0.8518  1.2563 -1.0666
 7752TIP3   OH244746   5.408   6.246  16.238 -0.4569 -0.1548  0.1142
 7752TIP3    H144747   5.337   6.198  16.196 -0.9759  0.4873  0.2602
 7752TIP3    H244748   5.487   6.215  16.194 -0.4961 -2.8330  1.6745
 7753TIP3   OH244749   2.981   4.221  12.114  0.2109 -0.3137  0.6165
 7753TIP3    H144750   2.957   4.130  12.132  0.2400 -0.4905 -0.2112
 7753TIP3    H244751   2.951   4.237  12.025  4.7475 -1.1846 -1.3639
 7754TIP3   OH244752   2.439   1.894   5.418  0.0401  0.4769  0.1373
 7754TIP3    H144753   2.439   1.847   5.501  0.6412  1.1925  0.5504
 7754TIP3    H244754   2.531   1.908   5.398  0.0538 -1.8767 -1.9247
 7755TIP3   OH244755   6.634   4.311   6.070 -0.1360 -0.2781 -0.1726
 7755TIP3    H144756   6.628   4.388   6.014 -2.1111 -0.2002  0.0708
 7755TIP3    H244757   6.624   4.237   6.011  0.7655 -0.3367 -0.2732
 7756TIP3   OH244758   0.335   4.067  16.345  0.4368 -0.0965 -0.0968
 7756TIP3    H144759   0.257   4.057  16.292 -0.3726  2.9152  0.3234
 7756TIP3    H244760   0.328   3.998  16.411 -2.2233  0.4243  0.2868
 7757TIP3   OH244761   2.412   1.325  13.539  0.0191 -0.6383 -0.1244
 7757TIP3    H144762   2.456   1.374  13.469  1.2217 -1.5099 -0.0161
 7757TIP3    H244763   2.431   1.376  13.618  0.1659 -0.5940 -0.1864
 7758TIP3   OH244764   0.392   6.005  14.127  0.7073 -0.2708 -0.0034
 7758TIP3    H144765   0.302   6.008  14.160  0.3483 -0.3797 -0.9422
 7758TIP3    H244766   0.446   6.008  14.206 -0.1062  0.3854  0.5547
 7759TIP3   OH244767   2.734   1.657  12.365  0.1443 -0.4549  0.2199
 7759TIP3    H144768   2.739   1.736  12.419  0.7314  0.1827 -0.7288
 7759TIP3    H244769   2.668   1.677  12.299  0.1250 -0.8447  0.1205
 7760TIP3   OH244770   3.762   2.691  16.891  0.0622 -0.3446  0.1814
 7760TIP3    H144771   3.750   2.711  16.984 -2.1915  0.1538 -0.1603
 7760TIP3    H244772   3.783   2.598  16.889  2.3179  0.0772  1.2809
 7761TIP3   OH244773   2.695   0.048   0.193 -0.1463  0.1029  1.0611
 7761TIP3    H144774   2.753   0.077   0.263  0.5785 -0.2116  0.6096
 7761TIP3    H244775   2.700  -0.048   0.196  3.1373 -0.0472 -1.9137
 7762TIP3   OH244776   4.685   2.323   2.861  0.2816 -0.1940  0.2790
 7762TIP3    H144777   4.777   2.340   2.880 -0.2235  1.3539  1.5423
 7762TIP3    H244778   4.687   2.251   2.798  2.3792  0.2958 -0.3143
 7763TIP3   OH244779   5.016   3.436  12.935 -0.3510 -0.4805 -0.0902
 7763TIP3    H144780   4.969   3.519  12.945 -0.8260 -0.4064 -2.3160
 7763TIP3    H244781   4.950   3.375  12.903  0.2547 -1.4086  0.3978
 7764TIP3   OH244782   3.521   4.110  16.163  0.7690  0.3534  0.3274
 7764TIP3    H144783   3.546   4.120  16.071  1.4745  0.4410  0.5232
 7764TIP3    H244784   3.572   4.176  16.209  2.9840 -1.7770  1.2007
 7765TIP3   OH244785   4.617   0.969  13.597 -0.0678  0.2856 -0.7105
 7765TIP3    H144786   4.627   1.043  13.537 -2.4942 -0.1336 -1.7590
 7765TIP3    H244787   4.559   0.908  13.551 -0.8831 -0.7143  1.4626
 7766TIP3   OH244788   1.516   2.229   2.567  0.3033  0.1835  0.0377
 7766TIP3    H144789   1.528   2.291   2.495 -0.1416  0.2183 -0.0077
 7766TIP3    H244790   1.505   2.284   2.644 -0.3085  0.1709 -0.0350
 7767TIP3   OH244791   6.279   6.581  15.350 -0.1367  0.0461 -0.3751
 7767TIP3    H144792   6.277   6.670  15.385 -0.5971  1.9471 -4.6419
 7767TIP3    H244793   6.190   6.548  15.363  0.1490 -0.0325  1.6265
 7768TIP3   OH244794   1.051   1.825   0.900 -0.2426  0.8210 -0.1906
 7768TIP3    H144795   1.140   1.814   0.932 -0.8787 -1.1436  1.1321
 7768TIP3    H244796   1.053   1.795   0.809  0.2107 -0.4902  0.2342
 7769TIP3   OH244797   5.676   4.754  16.591  0.0445  0.1576  0.0246
 7769TIP3    H144798   5.636   4.701  16.523  0.0848 -0.3356  0.3822
 7769TIP3    H244799   5.638   4.841  16.578 -0.7737 -0.1834  0.0479
 7770TIP3   OH244800   2.645   5.960  11.056  0.4569 -0.5554  0.3519
 7770TIP3    H144801   2.628   5.931  11.146  3.1721 -1.7175  0.6113
 7770TIP3    H244802   2.703   6.035  11.066  1.3716 -1.1410 -0.4034
 7771TIP3   OH244803   5.992   2.999   6.681 -0.0746  0.6058 -0.2686
 7771TIP3    H144804   6.081   2.970   6.704 -0.5672  0.1612  1.1860
 7771TIP3    H244805   5.935   2.953   6.743 -1.5365 -0.6925 -2.4301
 7772TIP3   OH244806   3.795   6.529   0.766  0.4201  0.0172  0.3449
 7772TIP3    H144807   3.852   6.453   0.780  0.4514  0.2271  1.4793
 7772TIP3    H244808   3.832   6.573   0.690 -0.0954 -1.5551 -0.8766
 7773TIP3   OH244809   5.518   1.523   0.973  0.3085  0.0705 -0.3525
 7773TIP3    H144810   5.434   1.486   0.949  0.0272  0.4691  0.0032
 7773TIP3    H244811   5.547   1.572   0.896  1.1610 -1.6838 -1.2072
 7774TIP3   OH244812   3.103   6.596   4.048  0.0448  0.0709 -0.1143
 7774TIP3    H144813   3.034   6.569   3.987  0.4099  0.6083 -0.7801
 7774TIP3    H244814   3.088   6.690   4.062  0.0870 -0.0024  0.4709
 7775TIP3   OH244815   1.084   1.368  17.047  0.5327  0.1298 -0.8791
 7775TIP3    H144816   1.078   1.386  17.140 -1.1456  0.3481 -0.9905
 7775TIP3    H244817   1.174   1.391  17.023  1.1985 -0.6226  0.8002
 7776TIP3   OH244818   4.358   5.169   4.657 -0.8332  0.7268 -0.2880
 7776TIP3    H144819   4.286   5.230   4.636 -2.3158  0.1072  2.5240
 7776TIP3    H244820   4.354   5.159   4.752  2.5600  0.0364 -0.1074
 7777TIP3   OH244821   0.646   1.020  15.869 -0.7715  0.4448 -0.0799
 7777TIP3    H144822   0.683   1.063  15.792  1.5737 -0.8887  0.1807
 7777TIP3    H244823   0.607   0.939  15.835 -0.5797  0.3135  0.0087
 7778TIP3   OH244824   4.976   4.436   0.487 -0.2554  0.2792  0.0738
 7778TIP3    H144825   4.901   4.474   0.534  0.1466  1.7013 -0.3964
 7778TIP3    H244826   4.943   4.419   0.399 -0.5095 -0.7769  0.3504
 7779TIP3   OH244827   2.114   2.433  13.966 -0.0301  0.1001 -0.0683
 7779TIP3    H144828   2.119   2.527  13.951 -0.0140 -0.1226 -1.6056
 7779TIP3    H244829   2.188   2.414  14.024  1.2218  0.7454 -1.3991
 7780TIP3   OH244830   6.644   0.149  16.433  0.4199 -0.0560  0.6749
 7780TIP3    H144831   6.578   0.168  16.500  0.0289 -0.6427  0.4581
 7780TIP3    H244832   6.670   0.235  16.400 -1.2583  0.1430 -0.2231
 7781TIP3   OH244833   1.538   3.699  16.271 -0.4668  0.4206  0.0534
 7781TIP3    H144834   1.575   3.651  16.196 -1.9951 -1.3408  0.3630
 7781TIP3    H244835   1.498   3.777  16.231 -0.5066 -0.0428 -0.8495
 7782TIP3   OH244836   6.518   4.634   1.214  0.2820 -0.3336  0.3246
 7782TIP3    H144837   6.503   4.592   1.129 -1.2415 -1.6475  1.1981
 7782TIP3    H244838   6.577   4.574   1.260  0.4643 -0.0247  0.4967
 7783TIP3   OH244839   4.232   3.191   2.121  0.1785  0.0539  0.2682
 7783TIP3    H144840   4.312   3.204   2.172  0.4720  0.1918 -0.2216
 7783TIP3    H244841   4.166   3.166   2.186  0.1547  1.7428  0.9476
 7784TIP3   OH244842   3.078   4.133  14.910 -0.0038 -0.3407 -0.3020
 7784TIP3    H144843   3.128   4.054  14.931  1.7538  0.9810  0.7890
 7784TIP3    H244844   3.091   4.146  14.816  0.9013 -0.5830 -0.2189
 7785TIP3   OH244845   2.978   4.370  15.152 -0.0070 -0.1313  0.3121
 7785TIP3    H144846   2.904   4.309  15.149  0.9962 -1.3740  0.1497
 7785TIP3    H244847   3.055   4.315  15.141  0.8676  1.3831 -1.8279
 7786TIP3   OH244848   6.601   3.260  15.919  0.3754  0.1042 -0.0201
 7786TIP3    H144849   6.573   3.340  15.963  1.1393 -0.3533  1.3755
 7786TIP3    H244850   6.562   3.189  15.971  1.5050 -0.4559  0.1040
 7787TIP3   OH244851   6.407   3.525   2.605  0.1011  0.5414  0.1474
 7787TIP3    H144852   6.437   3.502   2.693  1.9742  1.0998 -0.2949
 7787TIP3    H244853   6.327   3.576   2.619 -0.9031 -1.2711  1.3882
 7788TIP3   OH244854   3.199   5.476  14.301 -0.0782 -0.2374 -0.3271
 7788TIP3    H144855   3.278   5.531  14.306 -1.2274  1.4095  1.0700
 7788TIP3    H244856   3.210   5.412  14.371  0.4012 -0.5473 -0.6862
 7789TIP3   OH244857   0.842   1.807  17.447  0.5593  0.6780 -0.3629
 7789TIP3    H144858   0.780   1.735  17.459  2.3350 -0.7176  1.0606
 7789TIP3    H244859   0.914   1.768  17.397  1.8251  1.2300  0.9533
 7790TIP3   OH244860   0.102   4.359   3.318  0.4658  0.0150  0.3006
 7790TIP3    H144861   0.138   4.441   3.351 -0.0097  1.0509 -1.6095
 7790TIP3    H244862   0.016   4.353   3.359  0.4806  0.5232  0.4145
 7791TIP3   OH244863   3.383   1.920  12.034 -0.0027 -0.2338 -0.2633
 7791TIP3    H144864   3.298   1.952  12.004  0.0623 -0.4055 -0.6262
 7791TIP3    H244865   3.381   1.826  12.016 -0.0727 -0.3903  0.5229
 7792TIP3   OH244866   5.360   5.397   4.196  0.4338 -0.7511 -0.2566
 7792TIP3    H144867   5.375   5.435   4.109  1.9717 -1.0243 -0.1317
 7792TIP3    H244868   5.447   5.386   4.233 -0.0727 -2.6040  0.4949
 7793TIP3   OH244869   5.025   0.844   0.692  0.4017  0.1406 -0.5157
 7793TIP3    H144870   5.011   0.809   0.780 -2.2008 -1.0622 -1.2932
 7793TIP3    H244871   4.996   0.935   0.698 -1.2941 -0.3627 -0.4199
 7794TIP3   OH244872   5.893   5.919   0.507  0.1045 -0.0324 -0.2484
 7794TIP3    H144873   5.908   5.923   0.413 -0.3970  2.3310 -0.2876
 7794TIP3    H244874   5.981   5.927   0.546  0.1834  0.3769 -0.5108
 7795TIP3   OH244875   3.983   1.914   6.296 -0.1118 -0.4735 -0.5336
 7795TIP3    H144876   3.930   1.834   6.300  0.2101 -0.6323  0.9770
 7795TIP3    H244877   3.960   1.963   6.375 -0.9541  1.3919 -1.8390
 7796TIP3   OH244878   5.101   3.123  17.449  0.6295  0.0074  0.2787
 7796TIP3    H144879   5.091   3.040  17.403  3.5024 -1.2518  1.6444
 7796TIP3    H244880   5.125   3.186  17.381 -1.0034 -0.3740 -0.6910
 7797TIP3   OH244881   2.611   3.371   4.098 -0.3458  0.3085  0.0301
 7797TIP3    H144882   2.688   3.322   4.128 -0.5253  1.2784  2.2243
 7797TIP3    H244883   2.544   3.353   4.164 -0.6259  2.9231  0.5540
 7798TIP3   OH244884   3.703   0.059  17.422 -0.5823  0.0706 -0.4625
 7798TIP3    H144885   3.662   0.145  17.414  0.2158  0.4275 -0.8219
 7798TIP3    H244886   3.717   0.047  17.517 -2.2623 -0.4301 -0.2559
 7799TIP3   OH244887   4.040   1.846  16.898 -0.2439  0.0127  0.1624
 7799TIP3    H144888   3.963   1.791  16.886  0.7324 -1.1036 -1.4746
 7799TIP3    H244889   4.007   1.936  16.895 -1.6809 -0.4181  1.4040
 7800TIP3   OH244890   6.047   6.224  15.148  0.3822 -0.0569 -0.3713
 7800TIP3    H144891   6.125   6.278  15.165 -0.7433  1.7519 -0.6537
 7800TIP3    H244892   6.051   6.206  15.054  1.8323 -2.3310  0.0318
 7801TIP3   OH244893   4.188   4.526  16.173 -0.2263 -0.5416  0.0450
 7801TIP3    H144894   4.155   4.603  16.126 -0.8506 -0.7480  0.1322
 7801TIP3    H244895   4.221   4.560  16.255 -1.0203 -0.4241  0.3261
 7802TIP3   OH244896   4.695   2.970   0.875 -0.3776 -0.1321  0.3386
 7802TIP3    H144897   4.748   2.957   0.954 -0.8535  0.0972  0.7024
 7802TIP3    H244898   4.736   2.914   0.809 -1.7051 -2.7464  1.5417
 7803TIP3   OH244899   0.513   1.268  11.137 -0.1216  0.1699 -0.2695
 7803TIP3    H144900   0.581   1.208  11.167  0.6122  0.6795 -0.8760
 7803TIP3    H244901   0.512   1.257  11.042  1.7256  2.8299 -0.6827
 7804TIP3   OH244902   2.171   0.292   5.325  0.2651  1.0453  0.1664
 7804TIP3    H144903   2.144   0.263   5.413  1.7801  0.2801  0.4051
 7804TIP3    H244904   2.250   0.242   5.306  1.1920  2.7578 -0.7451
 7805TIP3   OH244905   4.669   2.387  12.527  0.7535  0.5603  0.2765
 7805TIP3    H144906   4.663   2.294  12.503  0.4988  1.0352 -1.6446
 7805TIP3    H244907   4.595   2.428  12.482  0.6964  1.6659  1.3287
 7806TIP3   OH244908   1.403   0.073  17.121 -0.3136 -0.0747 -0.4202
 7806TIP3    H144909   1.310   0.072  17.099 -0.4027  1.3460 -0.2155
 7806TIP3    H244910   1.428  -0.019  17.126 -2.0014 -0.5114  0.7959
 7807TIP3   OH244911   4.064   1.326   1.285 -0.3053 -0.0524  0.0720
 7807TIP3    H144912   4.036   1.379   1.211  0.1375 -1.6916 -1.3315
 7807TIP3    H244913   4.136   1.273   1.251 -0.7059 -1.5257  1.3825
 7808TIP3   OH244914   4.193   4.860   3.829  0.4766  0.8804 -0.2157
 7808TIP3    H144915   4.170   4.926   3.894  1.4542  0.3948  0.6514
 7808TIP3    H244916   4.206   4.910   3.748 -2.9803  1.2532 -0.6899
 7809TIP3   OH244917   3.941   3.491   1.332 -0.4846 -0.0709  0.1816
 7809TIP3    H144918   3.870   3.428   1.350 -0.6865  0.4671  1.3594
 7809TIP3    H244919   3.907   3.575   1.363 -0.0868  0.5720 -1.0763
 7810TIP3   OH244920   2.525   6.217   5.911  0.4834  0.4717 -0.4655
 7810TIP3    H144921   2.555   6.142   5.962 -0.0016 -0.1598 -1.0893
 7810TIP3    H244922   2.572   6.210   5.828 -0.0317  0.4938 -0.7635
 7811TIP3   OH244923   4.059   1.350  12.880  0.1976 -0.4825  0.6621
 7811TIP3    H144924   4.080   1.276  12.824  0.2618 -0.4653  0.6627
 7811TIP3    H244925   4.041   1.422  12.820  0.6960 -0.3476  0.6656
 7812TIP3   OH244926   2.431   3.173   1.309  0.0210 -0.0476  0.2653
 7812TIP3    H144927   2.448   3.139   1.220 -0.8428  1.3467 -0.4679
 7812TIP3    H244928   2.510   3.223   1.330  0.5994 -1.1024  0.6663
 7813TIP3   OH244929   3.231   1.778  16.666  0.1035  0.0961  0.4728
 7813TIP3    H144930   3.289   1.850  16.641 -0.5698  0.8265  0.9846
 7813TIP3    H244931   3.290   1.702  16.673  0.8910  0.6796  0.3646
 7814TIP3   OH244932   6.710   3.229  12.895  0.0937  0.6083 -0.0728
 7814TIP3    H144933   6.662   3.277  12.828 -1.1334 -1.1026 -0.4807
 7814TIP3    H244934   6.727   3.294  12.964 -1.5356  1.6084 -0.5739
 7815TIP3   OH244935   3.544   0.344  13.205  0.4904 -0.8542  0.4012
 7815TIP3    H144936   3.496   0.406  13.151  0.9339 -0.9494 -0.1140
 7815TIP3    H244937   3.553   0.266  13.150  0.8278 -0.9997  0.6596
 7816TIP3   OH244938   2.779   0.380   6.075 -0.1738 -0.4594 -0.3312
 7816TIP3    H144939   2.735   0.457   6.040  0.4326 -0.1550 -0.4384
 7816TIP3    H244940   2.841   0.354   6.006  1.1042  0.2117  0.5240
 7817TIP3   OH244941   0.960   2.142  12.146 -0.0910 -0.1053 -0.7167
 7817TIP3    H144942   0.882   2.096  12.177 -1.2161  1.8175 -0.5461
 7817TIP3    H244943   0.993   2.088  12.074 -1.1747 -1.3105 -0.3434
 7818TIP3   OH244944   1.301   4.985   2.230  0.3409 -0.5067 -0.2219
 7818TIP3    H144945   1.333   4.904   2.189 -0.1817 -0.5317 -0.5872
 7818TIP3    H244946   1.238   4.955   2.295 -1.5736 -0.3233 -1.8936
 7819TIP3   OH244947   3.458   3.141  15.449 -0.6091 -0.2823 -0.0097
 7819TIP3    H144948   3.437   3.066  15.394 -0.8320  0.0759 -0.4152
 7819TIP3    H244949   3.374   3.167  15.487 -0.3678 -0.9382  1.0462
 7820TIP3   OH244950   0.693   0.677  17.434  0.2960  0.8985  0.0732
 7820TIP3    H144951   0.770   0.622  17.417  0.0860  1.1265 -1.7608
 7820TIP3    H244952   0.728   0.766  17.438  0.5076  0.7774  2.1840
 7821TIP3   OH244953   4.646   4.728   1.159 -0.0128  0.5729  0.5564
 7821TIP3    H144954   4.597   4.646   1.159 -1.3885  1.1218 -3.9371
 7821TIP3    H244955   4.726   4.708   1.110 -1.2959  2.1463 -2.4483
 7822TIP3   OH244956   1.155   3.200  14.163 -0.1200  0.1885 -0.4150
 7822TIP3    H144957   1.090   3.188  14.093 -0.2577  0.0597 -0.2663
 7822TIP3    H244958   1.196   3.114  14.171  0.1877  0.3161 -0.6253
 7823TIP3   OH244959   2.892   3.239   0.760  0.8877  0.2649  0.3978
 7823TIP3    H144960   2.847   3.232   0.845  3.1347 -0.7931  1.5871
 7823TIP3    H244961   2.840   3.183   0.702 -2.0037  2.7529  0.3577
 7824TIP3   OH244962   4.979   5.365   1.942 -0.1150  0.2982  0.0674
 7824TIP3    H144963   4.981   5.309   2.019  1.7358 -1.0056 -0.8566
 7824TIP3    H244964   4.890   5.359   1.909  0.0370 -2.2119 -0.0442
 7825TIP3   OH244965   4.993   1.240   3.342 -0.1393 -0.4780 -0.2688
 7825TIP3    H144966   5.048   1.270   3.414  0.6858 -0.3192 -0.9502
 7825TIP3    H244967   5.026   1.288   3.265 -1.3721 -0.2119 -0.6565
 7826TIP3   OH244968   2.724   6.400   3.092  0.1884  0.1098  0.1424
 7826TIP3    H144969   2.752   6.351   3.169  2.0947  2.4951  1.0794
 7826TIP3    H244970   2.639   6.437   3.117 -0.4704 -1.2623  0.0414
 7827TIP3   OH244971   6.105   4.974   3.542 -0.5257  0.7890  1.0563
 7827TIP3    H144972   6.106   4.968   3.447 -2.7871 -0.7494  1.0553
 7827TIP3    H244973   6.186   4.931   3.570  0.0045  0.9698 -0.1365
 7828TIP3   OH244974   2.571   4.013   4.836  0.4018 -0.0355  0.1982
 7828TIP3    H144975   2.546   3.922   4.821 -0.9233  0.4374 -0.6691
 7828TIP3    H244976   2.652   4.024   4.786  0.7031 -0.7954  0.5073
 7829TIP3   OH244977   1.139   6.766   2.838 -0.3483 -0.3667  0.0684
 7829TIP3    H144978   1.080   6.695   2.862  0.0194 -0.3919  0.9329
 7829TIP3    H244979   1.135   6.826   2.913 -0.6091  0.5036 -0.6190
 7830TIP3   OH244980   0.740   2.759   5.447  0.4513  0.8002  0.3759
 7830TIP3    H144981   0.703   2.698   5.383 -0.2721  0.1325  1.4058
 7830TIP3    H244982   0.816   2.797   5.402  0.5860 -0.4306 -0.5000
 7831TIP3   OH244983   6.564   3.573   0.686 -0.4215 -0.2326 -0.6785
 7831TIP3    H144984   6.612   3.571   0.603  0.8308  1.6775 -0.0823
 7831TIP3    H244985   6.481   3.530   0.667 -0.5035  0.8141 -3.1455
 7832TIP3   OH244986   3.602   6.530  14.523 -0.0755  0.1251 -0.7558
 7832TIP3    H144987   3.512   6.545  14.496 -0.2136  0.8519  0.0881
 7832TIP3    H244988   3.616   6.436  14.509 -1.0982 -0.0771 -0.4688
 7833TIP3   OH244989   4.302   4.454  15.602 -0.1453  0.0080  0.2306
 7833TIP3    H144990   4.270   4.405  15.526  0.0513  0.7588 -0.3420
 7833TIP3    H244991   4.231   4.515  15.623 -0.0012  0.1363  0.3505
 7834TIP3   OH244992   4.142   4.585   1.124 -0.0264 -0.2008  0.2654
 7834TIP3    H144993   4.114   4.551   1.209 -2.5133  1.3743  0.1568
 7834TIP3    H244994   4.197   4.660   1.145 -1.6325  0.9396  0.5507
 7835TIP3   OH244995   2.009   0.919   4.500 -0.1170 -0.0873 -0.1439
 7835TIP3    H144996   2.055   0.885   4.577  0.0484 -0.4419 -0.3966
 7835TIP3    H244997   1.951   0.987   4.535 -0.3355 -0.5204  0.3509
 7836TIP3   OH244998   4.396   5.128  13.415  0.2032  0.3857  0.4335
 7836TIP3    H144999   4.435   5.056  13.365 -1.2737 -0.4810  0.4572
 7836TIP3    H245000   4.426   5.113  13.505 -0.8483 -0.7930  0.6158
 7837TIP3   OH245001   5.074   5.856   5.179  0.4495  0.1519 -0.0370
 7837TIP3    H145002   5.051   5.948   5.170 -0.5088  0.0632  1.1533
 7837TIP3    H245003   5.027   5.812   5.109 -1.5333  0.2309  1.1758
 7838TIP3   OH245004   5.815   3.653  15.550  0.0471  0.5165  0.5981
 7838TIP3    H145005   5.867   3.603  15.487 -2.2646  0.5936 -1.4978
 7838TIP3    H245006   5.851   3.741  15.546 -0.0428  0.5084 -0.6063
 7839TIP3   OH245007   4.350   2.169  14.132 -0.6208 -0.1278  0.2517
 7839TIP3    H145008   4.440   2.138  14.124 -0.1589  1.4328 -1.2688
 7839TIP3    H245009   4.302   2.094  14.168  1.5698 -0.4384  2.8217
 7840TIP3   OH245010   1.546   3.089  14.447  0.3279 -0.0493 -0.5870
 7840TIP3    H145011   1.583   3.083  14.534  2.8382  0.7288 -1.5085
 7840TIP3    H245012   1.517   3.000  14.426  0.0946 -0.3247  0.8588
 7841TIP3   OH245013   0.531   3.849  16.613  0.2682 -0.3127  0.2232
 7841TIP3    H145014   0.579   3.827  16.533 -0.3626  0.9792 -0.5558
 7841TIP3    H245015   0.445   3.807  16.601 -0.2397  0.8464 -0.3513
 7842TIP3   OH245016   1.998   3.117   1.265  0.0764 -0.1413  0.4052
 7842TIP3    H145017   1.917   3.077   1.234 -0.6134  0.6006  1.1923
 7842TIP3    H245018   2.014   3.077   1.350 -0.4603  0.9795  1.0668
 7843TIP3   OH245019   1.309   0.819  12.517  0.6762  0.4895  0.3885
 7843TIP3    H145020   1.313   0.912  12.492 -0.3914  0.6781  0.8774
 7843TIP3    H245021   1.247   0.816  12.590 -0.1027 -0.7521 -0.2884
 7844TIP3   OH245022   3.033   2.484   2.148  0.6785  0.1187 -0.4373
 7844TIP3    H145023   3.123   2.451   2.157  0.0168 -1.7427 -0.2893
 7844TIP3    H245024   3.034   2.569   2.194  2.0474 -0.4658  0.6945
 7845TIP3   OH245025   1.895   5.706   0.490  0.0863 -0.1868 -0.3041
 7845TIP3    H145026   1.937   5.788   0.515 -0.5294  0.3821 -1.0707
 7845TIP3    H245027   1.831   5.689   0.559  0.2548 -0.0539 -0.1143
 7846TIP3   OH245028   5.396   6.049   0.978  0.2223 -0.0661  0.0872
 7846TIP3    H145029   5.315   5.998   0.972 -1.3051  2.0529  1.1727
 7846TIP3    H245030   5.409   6.083   0.890  0.0415 -0.6065 -0.1512
 7847TIP3   OH245031   1.490   2.637   0.576  0.3871  0.7323 -0.1541
 7847TIP3    H145032   1.493   2.714   0.520  2.5961  1.9527  1.4683
 7847TIP3    H245033   1.418   2.654   0.637 -0.9850  0.1285 -1.5436
 7848TIP3   OH245034   1.964   4.941   6.437  0.3180 -0.6319  0.2328
 7848TIP3    H145035   1.980   4.909   6.526  0.7287  0.7338  0.6720
 7848TIP3    H245036   1.975   5.036   6.443 -1.6971 -0.2743 -0.8323
 7849TIP3   OH245037   4.417   4.820   1.749  0.1488  0.4390 -0.0073
 7849TIP3    H145038   4.444   4.795   1.660 -0.2616 -0.2737  0.0667
 7849TIP3    H245039   4.390   4.912   1.740  0.2309  0.4113 -0.5943
 7850TIP3   OH245040   3.519   3.545   6.081 -0.2749 -0.4647  0.0224
 7850TIP3    H145041   3.488   3.635   6.095 -0.0989 -0.4373  0.2422
 7850TIP3    H245042   3.478   3.495   6.152  1.2840 -0.1747  1.1831
 7851TIP3   OH245043   4.946   3.058  15.599  0.0856 -0.2229  0.4371
 7851TIP3    H145044   4.957   3.100  15.685 -0.5963 -1.8392  1.3543
 7851TIP3    H245045   4.864   3.094  15.565  0.4352  0.5377  0.3650
 7852TIP3   OH245046   5.899   5.475  15.435 -0.0719 -0.1719 -0.0092
 7852TIP3    H145047   5.956   5.493  15.360  0.3362  0.8692  0.5317
 7852TIP3    H245048   5.828   5.422  15.399  2.3687 -3.5418 -0.2560
 7853TIP3   OH245049   4.603   4.728  14.612 -0.2011 -0.3457  0.3510
 7853TIP3    H145050   4.609   4.634  14.628 -1.0476 -0.5037 -0.1814
 7853TIP3    H245051   4.509   4.747  14.617 -0.2237  0.1276 -1.3244
 7854TIP3   OH245052   4.235   0.214  13.009 -0.9029  0.7405  0.2066
 7854TIP3    H145053   4.315   0.163  12.998 -0.4319  1.6611 -0.7679
 7854TIP3    H245054   4.219   0.213  13.104 -0.0552  0.0850  0.3512
 7855TIP3   OH245055   4.517   5.707  16.314 -0.1117  0.3588 -0.2802
 7855TIP3    H145056   4.559   5.793  16.323  1.4515 -0.1398 -2.1122
 7855TIP3    H245057   4.521   5.669  16.402  1.3758  1.2204  0.0659
 7856TIP3   OH245058   0.078   6.164  16.907 -0.3433 -0.4210  0.4725
 7856TIP3    H145059   0.040   6.195  16.825  0.6154  1.5737  0.7299
 7856TIP3    H245060   0.106   6.075  16.888  0.3618  0.1803 -1.5677
 7857TIP3   OH245061   2.455   3.211  12.239  0.8356 -0.8680 -0.5838
 7857TIP3    H145062   2.380   3.253  12.196  1.9091  0.2373 -1.4499
 7857TIP3    H245063   2.504   3.284  12.277  0.7214 -1.7051  1.2342
 7858TIP3   OH245064   6.593   1.810  11.280  0.3792 -0.2890 -0.1808
 7858TIP3    H145065   6.540   1.849  11.211  2.5403  0.9709 -1.2450
 7858TIP3    H245066   6.615   1.723  11.247 -0.2631 -0.4631 -0.1502
 7859TIP3   OH245067   6.730   3.782  15.634 -0.4134 -0.2185 -0.5328
 7859TIP3    H145068   6.806   3.759  15.580 -0.5670  0.2785 -0.9732
 7859TIP3    H245069   6.682   3.701  15.645  1.3181 -1.0617  1.6095
 7860TIP3   OH245070   5.419   3.671   4.650 -0.5209  0.4958  0.7622
 7860TIP3    H145071   5.400   3.587   4.692 -0.8273 -0.1581 -0.6080
 7860TIP3    H245072   5.509   3.663   4.621 -0.9124  0.1499 -0.4151
 7861TIP3   OH245073   4.118   2.071   1.092 -0.2205  0.0596  0.4391
 7861TIP3    H145074   4.084   2.126   1.163 -0.9706 -0.8079  0.7778
 7861TIP3    H245075   4.126   1.984   1.131  0.5416 -0.1728 -0.2040
 7862TIP3   OH245076   1.341   4.717   3.095  0.3953  0.3007 -0.5221
 7862TIP3    H145077   1.354   4.760   3.179 -1.0385 -0.3048  0.0468
 7862TIP3    H245078   1.340   4.624   3.115 -3.8819  0.1549 -0.4422
 7863TIP3   OH245079   3.492   4.546   5.073 -0.0216  0.5190  0.4511
 7863TIP3    H145080   3.582   4.575   5.055  0.0623 -0.0323 -0.0671
 7863TIP3    H245081   3.460   4.514   4.988 -0.4233 -0.0444  0.8065
 7864TIP3   OH245082   5.294   1.809   4.415  0.9587 -0.3154 -0.8174
 7864TIP3    H145083   5.373   1.812   4.361 -0.6655  1.7993 -3.3082
 7864TIP3    H245084   5.308   1.876   4.482  0.7304  1.2261 -2.2352
 7865TIP3   OH245085   2.487   4.799   0.674  0.3694 -0.0855  0.1873
 7865TIP3    H145086   2.424   4.822   0.606  0.4475 -0.8512 -0.1507
 7865TIP3    H245087   2.505   4.882   0.719  2.1768  0.9713 -2.2740
 7866TIP3   OH245088   1.637   0.279  16.481 -0.2282  0.5865  0.5533
 7866TIP3    H145089   1.651   0.184  16.475 -0.7239  0.5573 -0.2193
 7866TIP3    H245090   1.720   0.314  16.514 -0.1773 -0.1562  1.2578
 7867TIP3   OH245091   1.166   5.519  15.204 -0.3062  0.5834  0.1521
 7867TIP3    H145092   1.191   5.463  15.131 -2.6361  0.3316 -0.5252
 7867TIP3    H245093   1.172   5.608  15.169 -2.1960  0.4265 -0.6572
 7868TIP3   OH245094   1.450   2.674  16.658 -0.1346  0.5170  0.0447
 7868TIP3    H145095   1.416   2.735  16.723  1.1748 -1.0814  2.4188
 7868TIP3    H245096   1.373   2.637  16.615 -0.9574  4.0217 -1.8296
 7869TIP3   OH245097   6.003   4.432   0.150  0.2837 -0.3361 -0.0491
 7869TIP3    H145098   5.956   4.354   0.179  0.7900 -0.2549  1.0550
 7869TIP3    H245099   5.934   4.494   0.124 -0.1446 -0.8507 -0.1503
 7870TIP3   OH245100   2.431   5.772  13.850  0.7093 -0.1638 -0.5066
 7870TIP3    H145101   2.396   5.849  13.895 -0.9183 -2.2270  2.0583
 7870TIP3    H245102   2.500   5.739  13.909  0.1835 -1.6061 -0.6571
 7871TIP3   OH245103   5.216   6.084   4.498 -0.3868 -0.1394  0.2255
 7871TIP3    H145104   5.306   6.088   4.531 -0.5229  0.5899  0.5109
 7871TIP3    H245105   5.226   6.056   4.407  0.0450 -1.3205  0.6148
 7872TIP3   OH245106   0.835   6.347  16.377  0.0262  0.4622 -0.3095
 7872TIP3    H145107   0.930   6.349  16.394 -0.1276 -0.3140  0.7354
 7872TIP3    H245108   0.796   6.379  16.458 -0.6748 -1.3247  0.0869
 7873TIP3   OH245109   2.436   1.558  16.912 -0.3590  0.1803  0.3118
 7873TIP3    H145110   2.391   1.475  16.893  2.1022 -0.8946 -1.3126
 7873TIP3    H245111   2.443   1.601  16.826  0.1032  1.1645  0.8303
 7874TIP3   OH245112   6.302   1.515   1.268  0.0301  0.5380  0.2084
 7874TIP3    H145113   6.357   1.544   1.195  2.0201 -3.6866 -0.2891
 7874TIP3    H245114   6.221   1.486   1.226  0.3959 -0.0413 -0.1235
 7875TIP3   OH245115   1.467   1.746  10.533  0.0695 -0.5246  0.3752
 7875TIP3    H145116   1.427   1.825  10.568  0.2096 -0.3002  0.0305
 7875TIP3    H245117   1.468   1.685  10.607 -1.5793 -0.7983  0.2012
 7876TIP3   OH245118   3.798   5.708  15.993 -0.5113 -0.0271  0.2602
 7876TIP3    H145119   3.766   5.617  15.993  0.1197 -0.2520  0.5015
 7876TIP3    H245120   3.873   5.707  15.934 -1.5336  0.7277 -1.1074
 7877TIP3   OH245121   3.624   5.855   0.061 -0.2800  0.0175  0.4361
 7877TIP3    H145122   3.685   5.813   0.122 -2.4914 -2.1351  1.3677
 7877TIP3    H245123   3.665   5.937   0.038  3.7536 -1.9854 -0.3583
 7878TIP3   OH245124   4.905   3.790   0.056 -0.1700 -0.5958 -0.5362
 7878TIP3    H145125   4.926   3.746  -0.026 -1.2326 -0.3445 -0.9725
 7878TIP3    H245126   4.831   3.847   0.034  0.1650  0.2315  0.3677
 7879TIP3   OH245127   2.954   3.438  14.314  0.3146 -0.0899  0.4128
 7879TIP3    H145128   3.020   3.479  14.370  0.9559  0.1006 -0.4751
 7879TIP3    H245129   2.944   3.350  14.351  0.9016 -0.0495  0.6831
 7880TIP3   OH245130   3.238   3.544   2.002 -0.4054 -0.5424  0.3084
 7880TIP3    H145131   3.243   3.561   2.096  1.1559  2.7628 -0.2586
 7880TIP3    H245132   3.320   3.500   1.982  0.7928  1.7338  0.0320
 7881TIP3   OH245133   0.450   4.057   5.508  0.2784  0.3313 -0.1603
 7881TIP3    H145134   0.389   3.983   5.506  2.0125 -1.1907  0.0847
 7881TIP3    H245135   0.425   4.111   5.433 -1.3734 -0.2049 -0.0346
 7882TIP3   OH245136   4.813   2.288   6.605 -0.2592 -0.2493 -0.0659
 7882TIP3    H145137   4.733   2.241   6.628  0.1348 -0.2818  1.3790
 7882TIP3    H245138   4.851   2.311   6.690  0.4084  1.2244 -0.7436
 7883TIP3   OH245139   0.171   0.409  12.624 -0.3386  0.0722 -0.4907
 7883TIP3    H145140   0.155   0.391  12.532 -1.0211  1.6328 -0.7115
 7883TIP3    H245141   0.169   0.504  12.631 -3.5444 -0.0038  1.6625
 7884TIP3   OH245142   0.309   6.468  16.150  0.0034 -0.0716  0.8226
 7884TIP3    H145143   0.292   6.493  16.240  2.8818 -0.6881  1.6446
 7884TIP3    H245144   0.320   6.551  16.103  2.9546  0.3712  2.0965
 7885TIP3   OH245145   2.858   2.483   0.821  0.3848 -0.1710  0.6871
 7885TIP3    H145146   2.812   2.540   0.883  0.0489  0.0004  0.2855
 7885TIP3    H245147   2.793   2.418   0.795 -0.2750  1.1896 -1.3444
 7886TIP3   OH245148   2.080   1.650   1.832 -0.4467 -0.4893 -0.1873
 7886TIP3    H145149   2.018   1.669   1.762  0.2549  0.1565 -0.6442
 7886TIP3    H245150   2.030   1.595   1.893 -1.5734  0.2721 -0.3802
 7887TIP3   OH245151   3.665   0.683   2.900 -0.0060 -0.0934  0.2372
 7887TIP3    H145152   3.577   0.680   2.863 -0.0580 -0.3556  0.3759
 7887TIP3    H245153   3.706   0.759   2.860 -0.7968  0.9246  1.2815
 7888TIP3   OH245154   1.548   6.494  12.277  0.4624 -0.5238 -0.0782
 7888TIP3    H145155   1.586   6.444  12.205  1.0554 -0.3870  0.1339
 7888TIP3    H245156   1.578   6.450  12.356 -0.0567 -0.5800  0.0947
 7889TIP3   OH245157   6.279   2.767  12.186  0.0329  0.4080 -0.0028
 7889TIP3    H145158   6.360   2.749  12.139  0.1272  2.1408 -0.5640
 7889TIP3    H245159   6.307   2.794  12.273  0.0268  0.4525 -0.0156
 7890TIP3   OH245160   0.798   2.844   6.546  0.0056 -0.9276  0.2306
 7890TIP3    H145161   0.864   2.857   6.615  1.1455 -0.3031 -0.9349
 7890TIP3    H245162   0.759   2.931   6.534 -0.0578 -0.9913 -0.0279
 7891TIP3   OH245163   4.399   6.225  15.695 -0.3587  0.4606  0.0625
 7891TIP3    H145164   4.438   6.169  15.762 -2.2707  0.5036  1.2997
 7891TIP3    H245165   4.359   6.164  15.634 -0.7095  0.4437  0.3064
 7892TIP3   OH245166   5.534   5.878  16.387  0.4214  0.1195 -0.2789
 7892TIP3    H145167   5.539   5.822  16.465 -0.1755 -1.3721 -1.2718
 7892TIP3    H245168   5.618   5.866  16.343  0.2693 -0.0570 -0.5246
 7893TIP3   OH245169   0.011   4.711   3.605  0.7633 -0.4842  0.0597
 7893TIP3    H145170   0.001   4.781   3.670  1.8871 -0.1375 -0.1188
 7893TIP3    H245171  -0.069   4.717   3.552 -0.3316 -0.9839  1.5628
 7894TIP3   OH245172   2.376   2.638   6.796  0.0452  0.1332 -0.5633
 7894TIP3    H145173   2.431   2.567   6.762  1.2959 -0.1426  1.8249
 7894TIP3    H245174   2.418   2.718   6.763  1.8789 -0.0826  1.0366
 7895TIP3   OH245175   0.458   2.871   3.567 -0.1873 -0.3566 -0.1498
 7895TIP3    H145176   0.432   2.783   3.541  1.3639 -1.0605  0.5999
 7895TIP3    H245177   0.508   2.860   3.647 -0.2809  1.2512  0.1746
 7896TIP3   OH245178   5.341   5.879  14.242  0.3018 -0.1772  0.2150
 7896TIP3    H145179   5.413   5.854  14.300  0.8344 -1.0069 -0.7504
 7896TIP3    H245180   5.291   5.798  14.230  0.4513 -0.1377 -0.7914
 7897TIP3   OH245181   0.748   5.523   2.003 -0.2720  0.4894  0.7040
 7897TIP3    H145182   0.691   5.597   1.980 -0.0920 -0.1459 -2.2155
 7897TIP3    H245183   0.697   5.472   2.066 -2.5701  0.5082 -0.9919
 7898TIP3   OH245184   6.746   3.183   1.010 -0.1826  0.3752 -0.2870
 7898TIP3    H145185   6.723   3.132   0.932  1.2919  0.1056 -0.5864
 7898TIP3    H245186   6.718   3.130   1.084  0.3221 -0.3717 -0.6170
 7899TIP3   OH245187   2.537   2.114  12.422 -0.3538  0.6230 -0.1506
 7899TIP3    H145188   2.628   2.135  12.402  0.0594 -2.2740 -1.9825
 7899TIP3    H245189   2.534   2.108  12.518  1.2044  1.3965 -0.0199
 7900TIP3   OH245190   2.715   1.655   3.603 -0.1109 -0.5840 -0.0243
 7900TIP3    H145191   2.685   1.572   3.639 -0.1456 -0.7900 -0.5234
 7900TIP3    H245192   2.675   1.660   3.517  0.4551 -0.3832 -0.2826
 7901TIP3   OH245193   5.962   4.894   5.246  0.1623 -0.0965  0.6337
 7901TIP3    H145194   5.938   4.847   5.326  1.3532  1.1855  1.8031
 7901TIP3    H245195   6.051   4.866   5.227  1.7857  3.1203  2.6179
 7902TIP3   OH245196   0.031   1.399  14.848 -0.1282 -0.6676  0.7459
 7902TIP3    H145197  -0.010   1.377  14.931 -0.4294 -0.3655  0.6794
 7902TIP3    H245198   0.046   1.314  14.805  0.9201 -0.8909  1.5134
 7903TIP3   OH245199   6.522   4.289  15.599  0.2212 -0.3885  0.3520
 7903TIP3    H145200   6.582   4.327  15.663  1.5729  0.2369 -1.2061
 7903TIP3    H245201   6.522   4.196  15.618  2.5100 -0.5621 -0.1803
 7904TIP3   OH245202   2.302   1.238  16.276 -0.1471 -0.0949 -0.6694
 7904TIP3    H145203   2.303   1.320  16.326  0.6579  0.4951 -1.6190
 7904TIP3    H245204   2.231   1.251  16.213 -0.8371 -0.6415 -0.0215
 7905TIP3   OH245205   4.769   3.332  13.731 -0.0721  0.5114 -0.0087
 7905TIP3    H145206   4.831   3.272  13.689  0.7807  0.3855  1.3519
 7905TIP3    H245207   4.749   3.291  13.816 -1.8236  0.6917 -0.2897
 7906TIP3   OH245208   6.446   1.856   6.448  0.2565  0.0272 -0.1522
 7906TIP3    H145209   6.443   1.943   6.488  0.1331  0.2256 -0.5888
 7906TIP3    H245210   6.530   1.854   6.402 -0.7042  0.7729 -2.0376
 7907TIP3   OH245211   0.824   2.892   3.111 -0.4017 -0.1419 -0.7339
 7907TIP3    H145212   0.858   2.852   3.031 -1.1197 -1.1353 -0.5620
 7907TIP3    H245213   0.873   2.850   3.182 -0.3110  0.1741 -0.6051
 7908TIP3   OH245214   4.010   1.035   1.925  0.4903 -0.1188 -1.1740
 7908TIP3    H145215   4.015   1.038   2.021  1.4516  0.3473 -1.2352
 7908TIP3    H245216   3.916   1.025   1.907 -0.0775  2.6414 -0.2460
 7909TIP3   OH245217   5.996   6.671   3.730 -0.3507  0.4358 -0.2541
 7909TIP3    H145218   5.971   6.639   3.817 -2.8866 -0.7936 -1.3505
 7909TIP3    H245219   6.072   6.618   3.706  1.4404  1.8858  1.7662
 7910TIP3   OH245220   5.705   2.140   5.670 -0.4917 -0.5053 -0.1784
 7910TIP3    H145221   5.620   2.181   5.655  0.0684  1.0663  0.7115
 7910TIP3    H245222   5.691   2.048   5.648 -1.8179  0.1231 -2.1942
 7911TIP3   OH245223   0.353   0.620  14.099  0.0905  0.1528  0.2069
 7911TIP3    H145224   0.434   0.657  14.135 -0.1767  0.6424  0.3106
 7911TIP3    H245225   0.322   0.686  14.037  0.3605 -0.5278 -0.6768
 7912TIP3   OH245226   6.547   2.700   1.979 -0.2200  0.2824 -0.0943
 7912TIP3    H145227   6.549   2.737   1.891  2.3230 -1.4156 -0.8506
 7912TIP3    H245228   6.639   2.690   2.003 -0.8459 -0.2269  2.3895
 7913TIP3   OH245229   4.793   5.700  15.091 -0.4200  0.6791  0.2460
 7913TIP3    H145230   4.871   5.698  15.147  1.9078 -0.7033 -2.7333
 7913TIP3    H245231   4.784   5.792  15.067  1.2811  0.6784 -0.5352
 7914TIP3   OH245232   0.048   1.333   4.179 -0.2468 -0.1021 -0.0664
 7914TIP3    H145233   0.051   1.356   4.272 -0.9333  1.5231 -0.4136
 7914TIP3    H245234  -0.008   1.256   4.175 -1.7329  0.8832  0.7076
 7915TIP3   OH245235   2.660   0.607  11.727  0.1124 -0.1441  0.5473
 7915TIP3    H145236   2.736   0.620  11.670 -0.0435 -1.7691 -0.0845
 7915TIP3    H245237   2.588   0.653  11.684  0.1953 -0.6419 -0.1382
 7916TIP3   OH245238   6.065   5.250   6.318  0.0296  0.0437 -0.3782
 7916TIP3    H145239   6.025   5.278   6.235  0.7516  0.1027 -0.7133
 7916TIP3    H245240   6.090   5.331   6.362 -0.9944  0.0429  0.2343
 7917TIP3   OH245241   4.834   3.997   0.852  0.0566 -0.0455 -0.1530
 7917TIP3    H145242   4.817   4.075   0.800 -2.3675 -0.5611 -0.2670
 7917TIP3    H245243   4.857   3.929   0.788  1.8479  0.4369 -0.0779
 7918TIP3   OH245244   4.680   4.902   6.867  0.9529 -0.2534  0.0154
 7918TIP3    H145245   4.762   4.875   6.827  1.6017  1.2395  0.2716
 7918TIP3    H245246   4.653   4.827   6.921  1.8704 -0.9447 -0.4624
 7919TIP3   OH245247   4.865   4.106  17.108  0.3310  0.2783  0.2565
 7919TIP3    H145248   4.868   4.186  17.160 -0.1814 -0.3565  1.2962
 7919TIP3    H245249   4.782   4.111  17.060 -0.0210  0.0693  0.8341
 7920TIP3   OH245250   3.795   1.020   5.347 -0.5147  0.3409  0.3876
 7920TIP3    H145251   3.855   1.023   5.421  2.5946  1.1168 -1.9135
 7920TIP3    H245252   3.780   0.927   5.331  1.1676  0.0544  0.3076
 7921TIP3   OH245253   2.128   5.223  11.120  0.2231  0.0267  0.1401
 7921TIP3    H145254   2.202   5.276  11.149 -1.3164  1.7455  1.1443
 7921TIP3    H245255   2.051   5.273  11.147 -1.3214 -1.1416 -1.8478
 7922TIP3   OH245256   2.998   2.109  10.594 -0.4531  0.5680  0.2254
 7922TIP3    H145257   3.007   2.188  10.647 -0.4098  1.3426 -0.9102
 7922TIP3    H245258   2.905   2.085  10.603 -1.0734  2.1944 -1.3927
 7923TIP3   OH245259   2.535   1.855  13.728  0.4728  0.8345 -0.1479
 7923TIP3    H145260   2.463   1.797  13.703  0.6820 -0.2635  1.5557
 7923TIP3    H245261   2.569   1.889  13.646 -1.3953  0.6636 -1.0437
 7924TIP3   OH245262   3.471   0.831  14.012 -0.1828  0.2154  0.1485
 7924TIP3    H145263   3.434   0.768  13.949 -0.5715 -0.8226  1.3696
 7924TIP3    H245264   3.496   0.906  13.958  1.9292 -1.6383 -1.6559
 7925TIP3   OH245265   1.482   6.592  11.980  0.0677 -0.0420 -0.8597
 7925TIP3    H145266   1.493   6.574  12.073 -0.9493 -3.4103 -1.2698
 7925TIP3    H245267   1.429   6.672  11.977  0.1345  0.1603  1.4027
 7926TIP3   OH245268   1.812   4.091   0.304 -0.5119 -0.3141 -0.7563
 7926TIP3    H145269   1.768   4.149   0.366  2.7666  0.9713  0.5911
 7926TIP3    H245270   1.831   4.012   0.354  2.9240  1.0566  0.4362
 7927TIP3   OH245271   2.214   6.667  12.973  0.2373 -0.0223 -0.1056
 7927TIP3    H145272   2.131   6.646  13.017  0.0308 -0.7465 -0.8243
 7927TIP3    H245273   2.189   6.685  12.883  0.7421  0.8600 -0.0801
 7928TIP3   OH245274   1.353   2.958  13.381  0.8837 -0.0948  0.3441
 7928TIP3    H145275   1.421   2.892  13.383  0.8067 -0.1886 -0.1868
 7928TIP3    H245276   1.340   2.981  13.473  2.2967  0.6134  0.3884
 7929TIP3   OH245277   4.337   1.015  11.835 -0.0716  0.2888 -0.1865
 7929TIP3    H145278   4.320   0.922  11.851 -1.1511  0.5784  0.4288
 7929TIP3    H245279   4.263   1.044  11.781  0.3375  0.7607 -0.5048
 7930TIP3   OH245280   1.203   4.484   4.656 -0.8567  0.4295 -0.1409
 7930TIP3    H145281   1.294   4.489   4.684 -0.9979 -0.3747  0.4954
 7930TIP3    H245282   1.193   4.558   4.595 -0.6564  2.5442  2.2259
 7931TIP3   OH245283   3.435   4.647   5.478  0.5175  0.1784 -0.8721
 7931TIP3    H145284   3.349   4.658   5.437 -0.5909 -2.1390  0.5818
 7931TIP3    H245285   3.458   4.734   5.508 -1.5296  0.8248 -0.9975
 7932TIP3   OH245286   6.453   5.834  16.931 -0.5830 -0.3283 -0.5209
 7932TIP3    H145287   6.541   5.798  16.926 -0.4283  0.2195 -2.1967
 7932TIP3    H245288   6.427   5.821  17.022  0.3479 -2.5131 -0.5186
 7933TIP3   OH245289   6.276   6.169  13.632 -0.2214  0.0143 -0.4071
 7933TIP3    H145290   6.306   6.225  13.561  0.1473 -1.2259 -1.2589
 7933TIP3    H245291   6.305   6.214  13.712 -2.6711  2.6390 -0.8442
 7934TIP3   OH245292   2.453   2.586   5.234 -0.7446  0.0969  0.3816
 7934TIP3    H145293   2.469   2.565   5.142  0.2309  1.1154  0.2937
 7934TIP3    H245294   2.515   2.531   5.282 -0.5384  0.3008  0.3547
 7935TIP3   OH245295   3.895   4.944   5.312 -0.3876 -0.5299 -0.4963
 7935TIP3    H145296   3.936   4.964   5.228  0.7775 -0.1506  0.1382
 7935TIP3    H245297   3.898   5.026   5.360 -0.2866 -0.9459  0.2213
 7936TIP3   OH245298   0.515   5.398  16.385 -0.0288  0.1282  0.2138
 7936TIP3    H145299   0.491   5.320  16.433 -2.3848  2.4791  3.2730
 7936TIP3    H245300   0.435   5.424  16.339  0.6959  0.7838 -0.7278
 7937TIP3   OH245301   6.179   5.557  13.612  0.1099 -0.1912  0.1863
 7937TIP3    H145302   6.178   5.588  13.522  0.3742 -0.7561 -0.0092
 7937TIP3    H245303   6.218   5.470  13.608  1.6493  0.4120  1.0433
 7938TIP3   OH245304   0.487   5.675  13.454 -0.7235  0.0347 -0.1446
 7938TIP3    H145305   0.498   5.581  13.439 -1.2044  0.0300 -0.5169
 7938TIP3    H245306   0.576   5.710  13.458 -0.5379 -0.4563  0.1375
 7939TIP3   OH245307   3.999   1.850  16.418 -0.3309  0.0179 -0.3911
 7939TIP3    H145308   4.000   1.946  16.427 -1.1679  0.0677 -0.6725
 7939TIP3    H245309   3.989   1.836  16.324  1.4027 -0.3830 -0.5438
 7940TIP3   OH245310   5.043   2.999  12.471 -0.3884  0.0932  0.3196
 7940TIP3    H145311   5.121   2.950  12.446  0.5971  1.1866  1.1382
 7940TIP3    H245312   5.077   3.083  12.503 -1.9197  0.6821  0.4620
 7941TIP3   OH245313   6.009   0.981  17.382 -1.0499 -0.1596 -0.2769
 7941TIP3    H145314   5.924   1.021  17.401 -0.8754  0.3818 -0.6168
 7941TIP3    H245315   6.048   1.037  17.314 -0.9105 -1.0573 -0.9598
 7942TIP3   OH245316   1.736   3.023  13.402  0.1868  0.0531  0.0974
 7942TIP3    H145317   1.738   3.085  13.476 -0.8393  0.9105 -0.5723
 7942TIP3    H245318   1.682   2.951  13.433  0.7260 -0.1492  0.5934
 7943TIP3   OH245319   3.428   2.451  15.570  0.5356 -1.0956  0.0829
 7943TIP3    H145320   3.494   2.385  15.589  2.4080  0.2471 -1.4235
 7943TIP3    H245321   3.471   2.534  15.589 -0.6507 -0.1676 -1.1445
 7944TIP3   OH245322   1.364   4.282  14.893 -0.3289  0.0931 -0.4106
 7944TIP3    H145323   1.392   4.352  14.952 -1.1022  1.1897 -1.2956
 7944TIP3    H245324   1.278   4.311  14.861 -0.7436 -1.3487 -0.6755
 7945TIP3   OH245325   6.343   3.869   5.409 -0.2995 -0.1517 -0.0639
 7945TIP3    H145326   6.282   3.845   5.478 -0.6999 -0.6842 -0.5962
 7945TIP3    H245327   6.356   3.789   5.358 -0.4824  0.3753 -0.9708
 7946TIP3   OH245328   5.952   3.375   2.382  0.0587 -0.1215 -0.4706
 7946TIP3    H145329   6.040   3.410   2.379  0.0126 -0.0372 -0.8710
 7946TIP3    H245330   5.895   3.451   2.368 -0.0652 -0.2403 -0.6125
 7947TIP3   OH245331   6.331   0.068   5.039  0.4808 -0.0792  0.3161
 7947TIP3    H145332   6.354   0.152   5.077  0.9259 -0.5200  1.0591
 7947TIP3    H245333   6.412   0.017   5.043 -0.0893 -0.9589  1.0356
 7948TIP3   OH245334   2.903   1.654   5.480 -0.1627 -0.4095  0.0691
 7948TIP3    H145335   2.862   1.587   5.535 -1.6508  0.6167  0.2962
 7948TIP3    H245336   2.902   1.733   5.535 -0.2277  0.2583 -0.8703
 7949TIP3   OH245337   2.110   2.854  12.653  0.6275 -0.0221  0.2256
 7949TIP3    H145338   2.072   2.929  12.607  1.8836 -0.1325 -1.0322
 7949TIP3    H245339   2.037   2.792  12.661 -0.3581  1.2013  1.0540
 7950TIP3   OH245340   1.519   5.732   2.934  0.3347 -0.0152  0.2957
 7950TIP3    H145341   1.552   5.686   2.857  0.3209  0.7551 -0.1901
 7950TIP3    H245342   1.520   5.667   3.004  0.9336 -0.5598 -0.2072
 7951TIP3   OH245343   1.437   3.942  15.029  1.0254 -0.3944  0.4317
 7951TIP3    H145344   1.504   4.008  15.016  0.5340  0.1240  0.5082
 7951TIP3    H245345   1.477   3.861  14.996  1.0792  0.2203 -1.0867
 7952TIP3   OH245346   4.505   0.807  14.207  0.5193 -0.5020 -0.2108
 7952TIP3    H145347   4.567   0.836  14.273  0.2936 -0.9151  0.1894
 7952TIP3    H245348   4.451   0.884  14.189 -1.3609 -1.1120  2.2823
 7953TIP3   OH245349   1.340   2.691   1.800 -0.0466  0.8820 -0.9251
 7953TIP3    H145350   1.335   2.688   1.705  0.2942  1.1964 -0.9597
 7953TIP3    H245351   1.283   2.764   1.825 -1.6471 -0.3986 -0.7374
 7954TIP3   OH245352   5.719   3.260   1.810  0.2766 -0.3985 -0.1840
 7954TIP3    H145353   5.710   3.353   1.833  1.7549 -0.4682  0.7998
 7954TIP3    H245354   5.799   3.232   1.854  0.8240 -1.7098 -1.8988
 7955TIP3   OH245355   1.359   0.820   3.681 -0.1370  0.3685  0.2930
 7955TIP3    H145356   1.372   0.784   3.769  0.2700 -2.7908 -0.9236
 7955TIP3    H245357   1.273   0.787   3.654  0.2887  0.2182 -0.9420
 7956TIP3   OH245358   5.036   5.196  17.345  0.8224  0.0044  0.7114
 7956TIP3    H145359   4.999   5.133  17.282 -0.0289  0.2082  0.9943
 7956TIP3    H245360   5.072   5.141  17.415  0.0879 -0.1783  0.9533
 7957TIP3   OH245361   3.901   0.780  12.965 -0.0966 -0.5361  0.2442
 7957TIP3    H145362   3.994   0.790  12.944 -0.6723  1.7223 -1.5629
 7957TIP3    H245363   3.883   0.853  13.025 -0.7191 -0.9339  0.5441
 7958TIP3   OH245364   4.151   3.813  13.761  0.7570  0.6828 -0.2566
 7958TIP3    H145365   4.241   3.825  13.790  0.8943 -1.8273  0.5339
 7958TIP3    H245366   4.157   3.751  13.689 -0.3463  0.4870 -0.1998
 7959TIP3   OH245367   1.387   0.995  13.444 -0.1772  0.2778  0.1328
 7959TIP3    H145368   1.389   1.033  13.356  1.4104  1.7222  0.7363
 7959TIP3    H245369   1.472   1.017  13.482 -0.9770  0.0947  2.1905
 7960TIP3   OH245370   0.867   5.573  13.989 -0.2581 -0.2438  0.0596
 7960TIP3    H145371   0.895   5.543  13.902 -0.5215 -0.0371 -0.1009
 7960TIP3    H245372   0.927   5.644  14.010  1.0105 -1.5236  0.8885
 7961TIP3   OH245373   0.789   0.002   1.506  0.1271 -0.2345 -0.2691
 7961TIP3    H145374   0.815  -0.084   1.539  1.4044 -0.5547 -2.0314
 7961TIP3    H245375   0.863   0.059   1.525 -1.0016  0.7377  1.5807
 7962TIP3   OH245376   0.317   3.117   4.362 -0.0736 -0.0218 -0.3357
 7962TIP3    H145377   0.306   3.197   4.311 -0.6508  1.3887  1.8763
 7962TIP3    H245378   0.409   3.116   4.387 -0.3213  0.6424  0.6584
 7963TIP3   OH245379   0.657   5.311  15.712  0.2418 -0.3390 -0.2812
 7963TIP3    H145380   0.752   5.297  15.714  0.0582 -2.0675 -1.5769
 7963TIP3    H245381   0.633   5.322  15.804  1.6919  0.1602  0.0635
 7964TIP3   OH245382   6.233   6.309   2.156  0.6215 -0.6473  0.6783
 7964TIP3    H145383   6.162   6.365   2.190  3.2399  2.9108  0.8923
 7964TIP3    H245384   6.217   6.305   2.062  0.1704  0.2445  0.7025
 7965TIP3   OH245385   6.315   6.017  14.990 -0.8550 -0.3847  0.8231
 7965TIP3    H145386   6.343   6.026  15.081 -2.1362  2.5335  1.0537
 7965TIP3    H245387   6.259   6.093  14.975 -0.5986 -0.7112 -2.4491
 7966TIP3   OH245388   6.417   5.704   1.892 -0.5901  0.4331  0.3576
 7966TIP3    H145389   6.378   5.720   1.978  0.2089  0.5181  0.7070
 7966TIP3    H245390   6.349   5.656   1.844 -0.8753 -0.0265  1.1906
 7967TIP3   OH245391   4.684   5.542  12.858  0.6928  0.4131  0.6191
 7967TIP3    H145392   4.730   5.528  12.941  2.3136  0.9062 -0.1681
 7967TIP3    H245393   4.634   5.461  12.845  1.7442 -0.3651  1.2535
 7968TIP3   OH245394   4.937   6.149  15.581 -0.8331  0.4070  0.1893
 7968TIP3    H145395   5.019   6.140  15.533  0.3489 -0.2654  2.2150
 7968TIP3    H245396   4.937   6.239  15.613 -0.6607  0.2876  0.5357
 7969TIP3   OH245397   3.165   4.955   1.741 -0.6650  0.3510  0.3366
 7969TIP3    H145398   3.119   4.902   1.676  0.2836 -0.6057  0.4039
 7969TIP3    H245399   3.155   5.045   1.710  1.2355 -0.1645 -2.1885
 7970TIP3   OH245400   2.440   5.880  16.065 -0.2652 -0.0298 -0.1483
 7970TIP3    H145401   2.462   5.836  16.147 -2.7829 -1.9936 -0.4163
 7970TIP3    H245402   2.391   5.815  16.015 -1.2561  2.0272 -2.0257
 7971TIP3   OH245403   2.957   4.193   4.483 -0.7541 -0.0681  0.2514
 7971TIP3    H145404   3.045   4.227   4.472 -0.7974 -0.2135 -0.5651
 7971TIP3    H245405   2.902   4.253   4.433 -1.4963  1.6094  2.8400
 7972TIP3   OH245406   0.938   4.455   5.606  0.0367  0.1080  0.2587
 7972TIP3    H145407   0.854   4.414   5.626 -1.1085  2.4494  0.6242
 7972TIP3    H245408   0.975   4.479   5.691  2.0024 -2.4432  0.2347
 7973TIP3   OH245409   5.897   3.093  12.503  0.2555  0.7575  0.4755
 7973TIP3    H145410   5.876   3.120  12.592 -0.7944  0.7730  0.2417
 7973TIP3    H245411   5.945   3.011  12.512  1.0422  1.2689  1.0814
 7974TIP3   OH245412   6.748   3.764  14.313  0.3190  0.2707  0.6525
 7974TIP3    H145413   6.823   3.745  14.370  0.1074  0.9217  1.1565
 7974TIP3    H245414   6.783   3.753  14.224  0.1518 -2.7509  0.8390
 7975TIP3   OH245415   0.052   1.609   0.038  0.3739 -0.1285  0.3587
 7975TIP3    H145416   0.040   1.542   0.105  0.3749  0.9971  1.5419
 7975TIP3    H245417  -0.036   1.643   0.022  0.3914 -0.3038 -0.1221
 7976TIP3   OH245418   5.671   0.370  12.245  0.3370  0.6935  0.1380
 7976TIP3    H145419   5.604   0.435  12.226  0.8914  1.1418 -0.3467
 7976TIP3    H245420   5.625   0.286  12.243 -0.1655  0.9722 -0.4315
 7977TIP3   OH245421   2.006   0.678   5.217  0.0815  0.2887 -0.0100
 7977TIP3    H145422   2.067   0.714   5.153  0.8042  0.3012  0.6812
 7977TIP3    H245423   1.977   0.595   5.179  0.4509  0.3246 -0.3749
 7978TIP3   OH245424   0.651   0.638   3.176  0.4352 -0.1393  0.0594
 7978TIP3    H145425   0.625   0.563   3.122  0.2158 -0.3027  0.3865
 7978TIP3    H245426   0.693   0.599   3.252  4.5683  0.1327 -1.8077
 7979TIP3   OH245427   0.104   5.595   1.919 -0.1542 -0.1674  0.1715
 7979TIP3    H145428   0.025   5.576   1.868  0.5377 -0.5091 -0.7745
 7979TIP3    H245429   0.072   5.601   2.010 -1.0953 -1.4193 -0.0492
 7980TIP3   OH245430   1.092   4.342  12.910 -0.1788  0.1982 -0.0270
 7980TIP3    H145431   1.141   4.405  12.963 -0.4927  1.1725 -0.8558
 7980TIP3    H245432   1.039   4.293  12.973 -0.2517  1.0685  0.6079
 7981TIP3   OH245433   0.644   1.588   0.007 -0.0451 -0.4690 -0.2291
 7981TIP3    H145434   0.566   1.614  -0.042  0.6115 -0.1014 -1.1078
 7981TIP3    H245435   0.619   1.599   0.098 -1.1128 -0.6236 -0.4809
 7982TIP3   OH245436   0.032   3.265   4.730 -0.3196 -0.1322  0.1390
 7982TIP3    H145437   0.110   3.304   4.690  0.9296 -1.1470  1.4809
 7982TIP3    H245438   0.037   3.172   4.708 -0.9009 -0.2923  0.6415
 7983TIP3   OH245439   1.274   6.700   1.589  0.2791  0.0271 -0.7193
 7983TIP3    H145440   1.302   6.612   1.567 -1.0474  0.0613 -2.9497
 7983TIP3    H245441   1.216   6.689   1.664  1.4675 -0.7375  0.1261
 7984TIP3   OH245442   0.927   4.202   3.081 -0.2127 -0.1902  0.0195
 7984TIP3    H145443   0.937   4.177   2.990 -0.0474 -2.0951  0.5257
 7984TIP3    H245444   1.007   4.172   3.124  0.3360  1.9155  0.5784
 7985TIP3   OH245445   0.819   2.408  16.483 -0.0956  0.1347 -0.7554
 7985TIP3    H145446   0.814   2.419  16.578  1.2455 -0.4676 -0.5972
 7985TIP3    H245447   0.826   2.498  16.450  1.3990  0.2824 -0.1259
 7986TIP3   OH245448   4.697   6.619   1.905  0.7491 -0.0812 -0.2127
 7986TIP3    H145449   4.626   6.642   1.845 -0.0900 -0.8524  0.4551
 7986TIP3    H245450   4.722   6.530   1.880 -1.3000 -1.4198  2.0760
 7987TIP3   OH245451   3.811   3.499  15.603 -0.1075  0.0463  0.1661
 7987TIP3    H145452   3.819   3.557  15.679 -0.7136 -0.5569  0.7039
 7987TIP3    H245453   3.865   3.424  15.626 -1.0480 -0.5650  0.4276
 7988TIP3   OH245454   5.762   1.197  11.995  0.7049 -0.0651  0.3367
 7988TIP3    H145455   5.751   1.114  12.042 -2.0670 -0.5648 -0.9923
 7988TIP3    H245456   5.694   1.254  12.032  0.4638  0.5199 -0.9532
 7989TIP3   OH245457   5.926   1.608  16.324  0.0073 -0.1448 -0.7078
 7989TIP3    H145458   5.995   1.546  16.303 -0.3802 -1.0036  0.5011
 7989TIP3    H245459   5.872   1.610  16.244  0.6259 -0.5262 -1.1480
 7990TIP3   OH245460   3.868   2.102  13.512  0.1592 -0.2537 -0.3923
 7990TIP3    H145461   3.891   2.172  13.573  1.2697 -1.4067  0.5785
 7990TIP3    H245462   3.795   2.136  13.462  1.2904  1.9883 -0.6356
 7991TIP3   OH245463   0.429   3.936   4.223  0.7627 -0.0025  0.4819
 7991TIP3    H145464   0.397   3.929   4.314 -0.2272 -1.5227  0.0473
 7991TIP3    H245465   0.362   3.988   4.179  1.1836  0.6316  0.5734
 7992TIP3   OH245466   0.307   0.755  15.103  0.3498  0.4088  0.0982
 7992TIP3    H145467   0.273   0.701  15.032  1.1468 -0.5560  0.4180
 7992TIP3    H245468   0.246   0.828  15.110 -1.7480 -1.3286  0.7892
 7993TIP3   OH245469   4.620   3.223   5.021  0.4551 -0.1416 -0.0841
 7993TIP3    H145470   4.696   3.271   4.988 -0.4633  2.0621  0.7686
 7993TIP3    H245471   4.581   3.282   5.085 -1.3247 -1.6934  0.3553
 7994TIP3   OH245472   4.134   3.344   1.911  0.5676  0.1007 -0.9973
 7994TIP3    H145473   4.131   3.430   1.952  1.3837 -0.3336  0.0067
 7994TIP3    H245474   4.168   3.286   1.979 -0.7098 -1.1715 -1.3996
 7995TIP3   OH245475   5.049   4.790  15.365 -0.3069 -0.1674  0.7246
 7995TIP3    H145476   5.038   4.873  15.319 -1.2620 -0.9281 -0.4779
 7995TIP3    H245477   5.142   4.768  15.353 -0.4951 -0.2656 -0.7369
 7996TIP3   OH245478   3.911   5.405  16.787  0.2002 -0.4155 -0.6745
 7996TIP3    H145479   3.840   5.364  16.837 -1.1985  2.2514 -0.2855
 7996TIP3    H245480   3.948   5.333  16.735 -0.7408 -2.5376  1.3694
 7997TIP3   OH245481   3.810   3.403   3.117 -0.0350 -0.0766  0.1986
 7997TIP3    H145482   3.858   3.439   3.191  2.3856  1.8313 -2.0873
 7997TIP3    H245483   3.729   3.370   3.155  0.6183  1.6586  3.5218
 7998TIP3   OH245484   2.123   0.571   2.047 -0.8590 -0.0916 -0.2770
 7998TIP3    H145485   2.116   0.569   1.951  1.1794  0.3699 -0.4834
 7998TIP3    H245486   2.073   0.494   2.076 -0.0070 -1.3206 -1.8587
 7999TIP3   OH245487   2.686   4.399   5.249 -0.7338 -0.4129 -0.0490
 7999TIP3    H145488   2.727   4.440   5.173  0.1885  0.7797  1.0568
 7999TIP3    H245489   2.746   4.328   5.274  0.1373  0.6178  0.8867
 8000TIP3   OH245490   2.205   3.292   2.422  0.0769  0.6295 -0.4657
 8000TIP3    H145491   2.250   3.377   2.421  0.1429  0.5944 -0.4989
 8000TIP3    H245492   2.250   3.241   2.355  0.3885  0.3841 -0.0735
 8001TIP3   OH245493   2.280   2.161   5.571 -0.1269 -0.7456  0.4385
 8001TIP3    H145494   2.352   2.153   5.634  1.2048 -1.4730 -1.0878
 8001TIP3    H245495   2.201   2.146   5.622  0.9759 -2.4539  1.7504
 8002TIP3   OH245496   0.899   5.178   3.754 -0.0176 -0.4506 -0.3981
 8002TIP3    H145497   0.980   5.227   3.754  0.3215 -0.8460  2.2657
 8002TIP3    H245498   0.925   5.089   3.729 -0.2974  0.1600 -3.1391
 8003TIP3   OH245499   5.783   1.423   1.626 -0.2043 -0.1247  0.2636
 8003TIP3    H145500   5.726   1.486   1.670 -1.2152 -1.4085  0.8745
 8003TIP3    H245501   5.726   1.385   1.558 -0.4878 -2.2100  1.5809
 8004TIP3   OH245502   2.014   2.282   3.290 -0.2314  0.1980  0.1942
 8004TIP3    H145503   2.103   2.312   3.312  0.1259  0.7168 -1.7536
 8004TIP3    H245504   1.974   2.358   3.248 -1.6314 -0.0323  1.0746
 8005TIP3   OH245505   4.335   4.278   3.893  0.2632  0.6181 -0.2704
 8005TIP3    H145506   4.425   4.309   3.902  0.2292  0.5630  0.3467
 8005TIP3    H245507   4.284   4.340   3.945 -0.3175  1.7482 -2.1021
 8006TIP3   OH245508   6.229   5.790  16.758  0.2168  0.3929  0.8343
 8006TIP3    H145509   6.178   5.818  16.834 -1.1280 -0.6737  0.3581
 8006TIP3    H245510   6.318   5.777  16.792  0.7985  4.2543  1.2961
 8007TIP3   OH245511   0.565   3.305  16.397 -0.3352 -0.4195  0.0166
 8007TIP3    H145512   0.610   3.316  16.312  0.0424 -1.4947  0.0547
 8007TIP3    H245513   0.561   3.393  16.433  1.2511 -0.1951 -0.2552
 8008TIP3   OH245514   2.628   5.836  17.164 -0.5103 -0.2244  0.3045
 8008TIP3    H145515   2.652   5.745  17.178 -0.6917  0.0145  2.5102
 8008TIP3    H245516   2.544   5.846  17.208 -0.0320  1.2239  0.9686
 8009TIP3   OH245517   6.148   6.519  12.843  0.3710  0.3748 -0.4279
 8009TIP3    H145518   6.158   6.500  12.937  0.8741 -0.0819 -0.5663
 8009TIP3    H245519   6.205   6.595  12.828 -0.7886  1.3339 -0.0927
 8010TIP3   OH245520   2.207   6.048   1.725 -0.4995 -0.2964 -0.0404
 8010TIP3    H145521   2.149   6.079   1.794 -0.8829 -0.7634 -0.1530
 8010TIP3    H245522   2.279   6.112   1.725 -2.3391  1.9382 -1.7786
 8011TIP3   OH245523   0.295   4.787  15.528 -0.5345 -0.3227  0.0006
 8011TIP3    H145524   0.361   4.765  15.593 -0.9074  0.3988  0.6266
 8011TIP3    H245525   0.314   4.877  15.503  0.2116 -0.8836 -1.6348
 8012TIP3   OH245526   4.439   2.634   6.227 -0.5228  0.3212 -0.1280
 8012TIP3    H145527   4.521   2.683   6.229 -0.7720  0.7312  0.4300
 8012TIP3    H245528   4.424   2.615   6.135  0.9282 -1.0108 -0.1305
 8013TIP3   OH245529   4.198   3.447  16.265  0.3125  0.1546  0.1189
 8013TIP3    H145530   4.191   3.540  16.285  0.0467  0.0392  0.5708
 8013TIP3    H245531   4.129   3.431  16.201  0.6724  0.3670 -0.3256
 8014TIP3   OH245532   6.430   6.065  12.945 -0.3787 -0.1308  0.3858
 8014TIP3    H145533   6.509   6.018  12.917 -0.1566  0.4777 -0.0271
 8014TIP3    H245534   6.463   6.149  12.978 -0.9722  0.8722 -1.4129
 8015TIP3   OH245535   5.190   4.579  15.791 -0.3960 -0.5776 -0.1860
 8015TIP3    H145536   5.121   4.524  15.828 -0.2369  0.0339  1.0559
 8015TIP3    H245537   5.215   4.638  15.862  0.9777 -0.3734 -0.8015
 8016TIP3   OH245538   3.195   6.553  12.135  0.4439 -0.0265 -0.6825
 8016TIP3    H145539   3.272   6.584  12.087  1.2341 -0.9846 -0.0668
 8016TIP3    H245540   3.223   6.470  12.174 -0.3030  0.4927  1.0520
 8017TIP3   OH245541   4.711   6.251  11.400 -0.2520  0.0768  0.3461
 8017TIP3    H145542   4.763   6.332  11.398 -0.7397  0.4157  0.8122
 8017TIP3    H245543   4.760   6.190  11.346  0.9635  0.1918  1.2499
 8018TIP3   OH245544   3.816   6.530   4.268  0.0316  0.3471 -0.1386
 8018TIP3    H145545   3.880   6.601   4.270 -0.3508  0.7080 -0.5555
 8018TIP3    H245546   3.825   6.487   4.353 -1.6153  2.5468  1.2619
 8019TIP3   OH245547   0.007   5.843   5.369 -0.0582 -0.1468  0.3695
 8019TIP3    H145548  -0.012   5.932   5.397  0.3886 -0.4911  1.8487
 8019TIP3    H245549   0.103   5.840   5.361 -0.1264 -0.2645 -0.5142
 8020TIP3   OH245550   6.451   1.028  15.042  0.0807 -0.2965  0.7308
 8020TIP3    H145551   6.366   1.052  15.078  0.5163  1.2538  0.7912
 8020TIP3    H245552   6.464   1.089  14.969  0.6312 -1.2841 -0.0201
 8021TIP3   OH245553   5.615   6.173   0.209  0.4177  0.1129 -0.1281
 8021TIP3    H145554   5.652   6.218   0.286  1.1639 -0.2725 -0.2597
 8021TIP3    H245555   5.535   6.132   0.242  0.8114 -0.1759  0.4880
 8022TIP3   OH245556   0.039   1.670   0.808 -0.1312  0.2125  0.3213
 8022TIP3    H145557   0.086   1.618   0.873 -0.2976  1.4082  1.4402
 8022TIP3    H245558  -0.047   1.629   0.802  0.9026 -1.9183 -1.6510
 8023TIP3   OH245559   4.209   3.937   0.516 -0.3007 -0.0097 -0.2752
 8023TIP3    H145560   4.281   3.882   0.549 -0.8749 -0.5109  0.1677
 8023TIP3    H245561   4.138   3.922   0.578  0.0538  2.5752  0.9317
 8024TIP3   OH245562   3.340   5.452   0.112  0.0138  0.1725  0.4508
 8024TIP3    H145563   3.377   5.388   0.051 -1.8247 -1.1900  0.6804
 8024TIP3    H245564   3.266   5.490   0.065  0.8782  1.9912  0.4397
 8025TIP3   OH245565   3.295   1.661   0.498  0.4162  0.2628  0.0187
 8025TIP3    H145566   3.255   1.745   0.518 -0.6800  0.1707 -1.6408
 8025TIP3    H245567   3.372   1.682   0.446 -0.3347  0.2424 -1.1416
 8026TIP3   OH245568   5.913   4.749   5.517 -0.0065 -0.3114 -0.5588
 8026TIP3    H145569   5.888   4.731   5.607  2.9209 -0.3949  0.3543
 8026TIP3    H245570   5.921   4.662   5.476  2.8246 -0.6364  0.4560
 8027TIP3   OH245571   2.398   0.674   2.703  0.4297  0.0346 -0.3663
 8027TIP3    H145572   2.434   0.602   2.652  0.3266 -0.8026  0.7125
 8027TIP3    H245573   2.458   0.684   2.777 -0.8363 -0.5376  0.7754
 8028TIP3   OH245574   2.216   3.343  12.605 -0.3355 -0.3999  0.1944
 8028TIP3    H145575   2.213   3.375  12.515 -0.2301 -0.0216  0.3228
 8028TIP3    H245576   2.268   3.262  12.600 -2.0799 -1.5277 -0.4098
 8029TIP3   OH245577   0.109   3.134   1.972 -0.5880  0.4216  0.0722
 8029TIP3    H145578   0.041   3.083   1.929 -1.2624 -1.2654  2.9160
 8029TIP3    H245579   0.086   3.225   1.953 -1.1485 -0.1837 -2.5034
 8030TIP3   OH245580   6.706   0.948  13.368  0.2163 -0.6836  0.1721
 8030TIP3    H145581   6.621   0.973  13.405  0.5393  1.7266 -0.5394
 8030TIP3    H245582   6.765   0.948  13.444 -0.2539 -1.7230  0.5622
 8031TIP3   OH245583   5.944   4.477   0.402 -0.0682  0.0182 -0.6004
 8031TIP3    H145584   5.982   4.460   0.315 -0.3698  0.0102 -0.7311
 8031TIP3    H245585   5.909   4.566   0.396  0.2129  0.1479 -0.3756
 8032TIP3   OH245586   0.536   0.509   1.782 -0.5380  0.3941  0.3750
 8032TIP3    H145587   0.518   0.454   1.705 -2.6137 -0.3797  1.3221
 8032TIP3    H245588   0.578   0.449   1.844 -0.6461  0.5052  0.5530
 8033TIP3   OH245589   4.476   2.274  14.631  0.5102  0.1273  0.0322
 8033TIP3    H145590   4.454   2.366  14.616  0.5451 -0.2598 -3.1401
 8033TIP3    H245591   4.568   2.267  14.606  0.3720 -0.8371 -0.2452
 8034TIP3   OH245592   4.793   1.510  16.972  0.0560  0.4596 -0.2409
 8034TIP3    H145593   4.818   1.549  16.889  0.5789  1.9928  0.5918
 8034TIP3    H245594   4.699   1.528  16.979  0.1199  0.8244 -0.2647
 8035TIP3   OH245595   3.045   2.048   3.157 -0.4067 -0.6464  0.2066
 8035TIP3    H145596   3.097   2.091   3.225 -1.0968 -0.6469  0.7582
 8035TIP3    H245597   3.028   1.961   3.192  0.7302 -1.2754 -0.7758
 8036TIP3   OH245598   2.249   4.975   2.756  0.6025  0.7279 -0.1073
 8036TIP3    H145599   2.319   4.960   2.820  0.1536 -0.5705  0.1006
 8036TIP3    H245600   2.170   4.981   2.809  0.3306  0.4570 -0.4833
 8037TIP3   OH245601   2.193   1.232  13.116  0.0062 -0.6780 -0.0595
 8037TIP3    H145602   2.139   1.158  13.143 -0.0552 -0.2192  1.1542
 8037TIP3    H245603   2.279   1.214  13.154  0.2128 -0.5340 -0.4558
 8038TIP3   OH245604   4.726   5.637   2.357  0.9457 -0.1169  0.2118
 8038TIP3    H145605   4.819   5.614   2.354  0.3377 -2.8188 -2.0612
 8038TIP3    H245606   4.687   5.574   2.417  0.4079  0.2695  0.2807
 8039TIP3   OH245607   4.452   1.358  13.595 -0.3747  0.0197  0.5713
 8039TIP3    H145608   4.418   1.410  13.523 -0.0627  1.5139  1.4749
 8039TIP3    H245609   4.415   1.270  13.580 -0.7109  0.4062 -1.1032
 8040TIP3   OH245610   4.225   4.350   1.014 -0.6620  0.3480 -0.6504
 8040TIP3    H145611   4.180   4.298   1.080  1.4581 -0.2691  0.4095
 8040TIP3    H245612   4.220   4.440   1.045  2.2639 -0.1441  1.7616
 8041TIP3   OH245613   5.350   4.613   0.216  0.4482 -0.4420 -0.0094
 8041TIP3    H145614   5.410   4.545   0.185  0.1946 -0.9792  0.6543
 8041TIP3    H245615   5.304   4.573   0.289  0.4590  0.5292  0.5436
 8042TIP3   OH245616   1.952   6.321  13.547 -0.2911  0.2335  0.3265
 8042TIP3    H145617   2.011   6.259  13.591 -0.5375 -0.4000 -0.2306
 8042TIP3    H245618   1.897   6.266  13.492 -0.6685  0.9358  0.0043
 8043TIP3   OH245619   4.772   1.605  15.798 -0.5169 -0.2617  0.2812
 8043TIP3    H145620   4.731   1.688  15.824  0.3683  0.6968 -1.2418
 8043TIP3    H245621   4.866   1.624  15.798 -0.1517 -1.8321  1.6870
 8044TIP3   OH245622   6.478   0.067  17.040  0.1154 -0.4410  0.0945
 8044TIP3    H145623   6.463   0.131  16.970  2.4554  1.3338  1.0805
 8044TIP3    H245624   6.409   0.084  17.104  0.1206  0.4298 -0.1204
 8045TIP3   OH245625   3.608   6.381  16.107  0.3023 -0.7264 -0.0997
 8045TIP3    H145626   3.532   6.345  16.062  1.2444 -0.6316 -1.8409
 8045TIP3    H245627   3.609   6.337  16.192 -1.7144 -0.6743 -0.0096
 8046TIP3   OH245628   4.251   5.274  12.342  0.4352 -0.8871 -0.0747
 8046TIP3    H145629   4.309   5.303  12.272  0.4345 -1.1952 -0.2013
 8046TIP3    H245630   4.255   5.345  12.406 -0.6496  0.0555 -1.0143
 8047TIP3   OH245631   1.045   0.532   2.424  0.2703  1.0759  0.9901
 8047TIP3    H145632   1.122   0.480   2.443 -1.2531 -1.4049  0.7603
 8047TIP3    H245633   1.055   0.559   2.333 -0.0877 -1.0893  0.2616
 8048TIP3   OH245634   2.293   5.399  11.326  0.1540 -0.2797  0.8171
 8048TIP3    H145635   2.379   5.370  11.296 -0.1303 -1.3433  0.9952
 8048TIP3    H245636   2.298   5.495  11.325  0.2382 -0.1903 -2.5091
 8049TIP3   OH245637   1.329   1.747   4.617 -0.1693 -0.3588 -0.2861
 8049TIP3    H145638   1.304   1.760   4.526 -0.0446  0.7155 -0.1701
 8049TIP3    H245639   1.321   1.652   4.630  1.0570 -0.6999 -1.7710
 8050TIP3   OH245640   4.838   4.324   1.056  0.5736 -0.1943  0.5535
 8050TIP3    H145641   4.759   4.379   1.054 -0.0506 -1.0862 -0.7746
 8050TIP3    H245642   4.804   4.234   1.058  1.5685 -0.5843  0.4952
 8051TIP3   OH245643   4.346   3.638  13.100 -0.5007 -0.4210  0.1361
 8051TIP3    H145644   4.364   3.715  13.155 -1.7754  0.7502 -1.0145
 8051TIP3    H245645   4.401   3.651  13.022 -1.2023 -0.3422 -0.3492
 8052TIP3   OH245646   2.578   4.501  11.458  0.0024 -0.2274 -0.1558
 8052TIP3    H145647   2.567   4.416  11.415  0.0972 -0.7581  0.8374
 8052TIP3    H245648   2.630   4.552  11.396 -0.4826 -0.7143 -0.9897
 8053TIP3   OH245649   0.933   3.400   3.460  0.2947  0.3334  0.3729
 8053TIP3    H145650   0.971   3.442   3.384 -1.0626  0.5202 -0.2367
 8053TIP3    H245651   0.852   3.449   3.476  1.3141  1.3669  2.9510
 8054TIP3   OH245652   6.667   3.143  11.587 -0.9056 -0.3103  0.4329
 8054TIP3    H145653   6.741   3.175  11.536 -1.9954  1.8566  0.0963
 8054TIP3    H245654   6.682   3.049  11.595  1.4624 -0.0497 -0.2664
 8055TIP3   OH245655   1.678   2.595  17.315  0.6975 -0.5873 -0.4255
 8055TIP3    H145656   1.643   2.683  17.322  0.6300 -0.6701  0.3287
 8055TIP3    H245657   1.648   2.564  17.230 -0.3886 -0.3689 -0.1326
 8056TIP3   OH245658   1.045   1.523  14.449 -0.1957  0.1014 -0.6784
 8056TIP3    H145659   1.090   1.487  14.525 -2.5370  1.5000  1.5562
 8056TIP3    H245660   0.965   1.472  14.442 -1.1468  1.5180 -0.6395
 8057TIP3   OH245661   5.771   4.054   4.538  0.2378  0.1303 -0.3396
 8057TIP3    H145662   5.792   4.109   4.463 -0.3449  0.2982 -0.3884
 8057TIP3    H245663   5.679   4.030   4.525  0.6355 -1.3371 -0.6229
 8058TIP3   OH245664   4.754   3.010  15.120  0.1505  0.0002  0.0023
 8058TIP3    H145665   4.811   3.010  15.044 -0.3309  0.5138 -0.3679
 8058TIP3    H245666   4.707   2.927  15.116  0.7616 -0.3585  0.2296
 8059TIP3   OH245667   4.336   1.410   1.727  0.0551  0.4814 -0.5020
 8059TIP3    H145668   4.309   1.330   1.770  0.4740  0.2027 -0.7414
 8059TIP3    H245669   4.257   1.464   1.722 -0.1535  0.2190 -0.0495
 8060TIP3   OH245670   6.041   6.419  16.302  0.3063  0.1634 -0.9324
 8060TIP3    H145671   5.971   6.357  16.323  0.6555  0.1914  0.3606
 8060TIP3    H245672   6.111   6.365  16.264 -0.8113  0.2738 -3.3813
 8061TIP3   OH245673   3.980   6.180   1.107 -0.0088  0.2418 -0.8398
 8061TIP3    H145674   4.052   6.126   1.074 -0.2953 -0.8250  0.2045
 8061TIP3    H245675   3.996   6.187   1.201  0.2200  2.3312 -0.9939
 8062TIP3   OH245676   5.188   0.775   3.502  0.0682  0.3017 -0.2294
 8062TIP3    H145677   5.186   0.686   3.538 -0.1586  0.1849 -0.5315
 8062TIP3    H245678   5.278   0.805   3.516  0.3348 -0.2381 -0.7701
 8063TIP3   OH245679   4.173   2.226   0.631  0.1600  0.2180  0.0170
 8063TIP3    H145680   4.125   2.192   0.707  2.0794 -2.2125  0.2521
 8063TIP3    H245681   4.129   2.187   0.556 -0.2595  0.7228 -0.0136
 8064TIP3   OH245682   2.134   6.076   6.238 -0.2480 -0.1552  0.0455
 8064TIP3    H145683   2.086   5.997   6.263  1.8348 -1.4013  0.3820
 8064TIP3    H245684   2.085   6.148   6.278 -2.2106 -1.2564 -0.2940
 8065TIP3   OH245685   0.268   6.512   5.028  0.5330 -0.2770 -0.0463
 8065TIP3    H145686   0.207   6.449   5.066 -1.4805  2.3837  1.5084
 8065TIP3    H245687   0.347   6.504   5.080 -0.5905  0.1737  1.8165
 8066TIP3   OH245688   0.671   6.128   5.891 -0.2670 -0.0409 -0.2549
 8066TIP3    H145689   0.609   6.105   5.960  0.1593 -0.0440  0.1336
 8066TIP3    H245690   0.621   6.121   5.810 -0.7432 -0.1450  0.0457
 8067TIP3   OH245691   4.720   0.281   4.599  0.1617 -0.2449  0.2786
 8067TIP3    H145692   4.769   0.239   4.670  0.2483  2.2063  1.8038
 8067TIP3    H245693   4.778   0.351   4.569  0.5732 -1.7962 -3.0488
 8068TIP3   OH245694   5.829   6.386  14.601 -0.6316  0.4363 -0.0346
 8068TIP3    H145695   5.816   6.410  14.693 -2.7141  0.6381 -0.3240
 8068TIP3    H245696   5.803   6.465  14.553  0.6155  0.3913 -0.8241
 8069TIP3   OH245697   2.099   3.337  11.128 -0.4162  0.2261 -0.5740
 8069TIP3    H145698   2.080   3.415  11.075 -2.9562 -0.9207 -1.5403
 8069TIP3    H245699   2.016   3.289  11.129 -0.1407 -0.4863  3.4378
 8070TIP3   OH245700   2.488   4.655  13.621 -0.1978  0.3673 -0.0707
 8070TIP3    H145701   2.494   4.624  13.711  0.0503  0.8050  0.0684
 8070TIP3    H245702   2.398   4.685  13.611  0.0323  1.2021  0.3287
 8071TIP3   OH245703   4.261   0.273   1.626 -0.4463 -0.1124 -0.3877
 8071TIP3    H145704   4.175   0.293   1.590 -0.0749 -0.3922 -1.4655
 8071TIP3    H245705   4.283   0.187   1.589 -0.0378 -0.3958  0.4961
 8072TIP3   OH245706   3.074   0.708  15.756  0.0618 -0.4074 -0.5937
 8072TIP3    H145707   3.019   0.695  15.833 -0.2443  0.9825 -0.5459
 8072TIP3    H245708   3.023   0.673  15.684 -0.1790 -0.6124 -0.3269
 8073TIP3   OH245709   6.259   1.939  11.782 -0.7222  0.0270  0.3180
 8073TIP3    H145710   6.254   2.000  11.708 -1.7589 -0.8101 -0.3300
 8073TIP3    H245711   6.248   1.995  11.860 -0.1941  0.8452 -0.1806
 8074TIP3   OH245712   1.607   5.417   2.246 -0.1518  0.1915  0.3577
 8074TIP3    H145713   1.633   5.501   2.208  1.8279 -0.0041  1.1471
 8074TIP3    H245714   1.559   5.440   2.325 -0.3379  0.5945  0.1272
 8075TIP3   OH245715   6.054   5.457  11.409 -0.3137 -0.3162 -0.0092
 8075TIP3    H145716   6.116   5.528  11.391 -0.2981 -0.6047 -1.1822
 8075TIP3    H245717   6.056   5.403  11.330 -1.0863 -1.0609  0.4616
 8076TIP3   OH245718   3.117   4.722  12.637 -0.2188  0.6296 -0.1443
 8076TIP3    H145719   3.136   4.629  12.624  0.8943  0.8551 -0.2705
 8076TIP3    H245720   3.105   4.731  12.731  2.5123  0.7976  0.2739
 8077TIP3   OH245721   3.056   5.619  12.327 -0.5404  0.3466 -0.1559
 8077TIP3    H145722   2.976   5.593  12.374 -0.4240  0.4157  0.0868
 8077TIP3    H245723   3.125   5.611  12.393 -0.0533 -1.4238 -0.8221
 8078TIP3   OH245724   1.662   0.334  11.629  0.7464 -0.0450 -0.6267
 8078TIP3    H145725   1.630   0.354  11.541  1.6132 -0.9678 -1.1747
 8078TIP3    H245726   1.746   0.290  11.614  0.4547 -1.0717  0.6226
 8079TIP3   OH245727   5.989   5.356   3.346 -0.3669 -0.2325  0.4218
 8079TIP3    H145728   6.016   5.344   3.437 -1.4206  1.5691  1.0221
 8079TIP3    H245729   6.067   5.337   3.295  0.8154  0.6350  1.8301
 8080TIP3   OH245730   5.471   2.315   2.687 -0.1154  0.5373 -0.0292
 8080TIP3    H145731   5.381   2.290   2.708 -0.2655  1.8516  1.0206
 8080TIP3    H245732   5.471   2.411   2.688  1.9864  0.6816  3.5713
 8081TIP3   OH245733   2.406   3.539   2.306 -0.3977  0.0036  0.1286
 8081TIP3    H145734   2.500   3.521   2.315  0.3586  2.9098 -0.9642
 8081TIP3    H245735   2.388   3.525   2.213 -1.0457 -0.4518  0.3164
 8082TIP3   OH245736   5.212   3.035   0.381  0.3037  0.2051 -0.3992
 8082TIP3    H145737   5.116   3.029   0.383  0.4085 -2.1770 -0.2070
 8082TIP3    H245738   5.240   3.004   0.467  1.2634  2.9085  0.3943
 8083TIP3   OH245739   1.570   5.280  13.981  0.6789  0.0945 -0.6736
 8083TIP3    H145740   1.561   5.356  14.038 -0.3857  0.4706 -1.3204
 8083TIP3    H245741   1.644   5.231  14.018  3.1274  2.7492 -1.7706
 8084TIP3   OH245742   0.753   6.401   2.021  0.1827  0.1570 -0.4002
 8084TIP3    H145743   0.846   6.385   2.005  0.1624 -0.7113  0.2418
 8084TIP3    H245744   0.709   6.345   1.957  0.1119 -2.0430  1.4527
 8085TIP3   OH245745   5.524   2.067   5.170  0.6095  0.0495  0.4967
 8085TIP3    H145746   5.580   2.127   5.220  0.1891 -1.0734  2.4419
 8085TIP3    H245747   5.583   2.025   5.108  1.0058  2.0555 -0.5995
 8086TIP3   OH245748   4.168   2.637  14.961  0.9719  0.0291  0.1580
 8086TIP3    H145749   4.178   2.573  15.031  0.8220  1.9627  2.0817
 8086TIP3    H245750   4.146   2.719  15.007  2.9081  1.8882 -1.9958
 8087TIP3   OH245751   5.640   6.466   0.721  0.3660  0.2696 -0.0363
 8087TIP3    H145752   5.730   6.496   0.713  0.3083  0.3770 -0.2851
 8087TIP3    H245753   5.587   6.543   0.701  0.2070 -0.2827 -1.8550
 8088TIP3   OH245754   6.592   0.221   0.681 -0.2466 -0.3687 -0.3778
 8088TIP3    H145755   6.531   0.222   0.755 -0.4833  2.7134 -0.4539
 8088TIP3    H245756   6.677   0.203   0.719 -0.4080  0.9327  0.6520
 8089TIP3   OH245757   0.104   1.001  13.570  0.1987  0.7558  0.1640
 8089TIP3    H145758   0.152   1.045  13.640  3.0048 -0.3450 -0.9131
 8089TIP3    H245759   0.095   0.911  13.601 -0.0944  0.6782 -0.1456
 8090TIP3   OH245760   0.484   5.852  16.878 -0.4746  0.4319  0.7432
 8090TIP3    H145761   0.541   5.837  16.803  0.1584 -0.5195  1.3984
 8090TIP3    H245762   0.481   5.947  16.887  0.1025  0.5271  0.0195
 8091TIP3   OH245763   4.735   4.467  11.759 -0.1400  0.5016 -0.3823
 8091TIP3    H145764   4.691   4.419  11.689 -0.3820  0.1099  0.0350
 8091TIP3    H245765   4.668   4.478  11.827 -0.0564  1.3295 -0.4175
 8092TIP3   OH245766   4.052   6.403  11.352  0.4027  0.3120 -0.1539
 8092TIP3    H145767   4.096   6.320  11.370 -0.0139 -0.0550 -0.7741
 8092TIP3    H245768   3.959   6.380  11.345  0.4078  0.5931 -1.5688
 8093TIP3   OH245769   3.318   3.135  13.154  0.1288 -0.4608  0.1930
 8093TIP3    H145770   3.223   3.128  13.140  0.1305 -0.4878  0.1951
 8093TIP3    H245771   3.352   3.048  13.131  0.3270 -0.0524 -1.1316
 8094TIP3   OH245772   5.087   4.746   3.873 -0.2938 -0.2752 -0.0185
 8094TIP3    H145773   5.026   4.717   3.805  1.0761 -0.9343 -1.0044
 8094TIP3    H245774   5.158   4.682   3.871 -0.0834 -0.1687  1.8861
 8095TIP3   OH245775   6.451   5.967   4.848  0.0914 -0.0535 -0.1224
 8095TIP3    H145776   6.460   5.901   4.779  1.4242  0.9833 -0.9734
 8095TIP3    H245777   6.517   6.032   4.828 -0.9322  1.3675  0.9368
 8096TIP3   OH245778   0.079   2.857   5.487 -0.4912  0.4626  0.4273
 8096TIP3    H145779   0.007   2.846   5.548 -0.3897 -2.7527  0.1471
 8096TIP3    H245780   0.041   2.836   5.401  0.1324  1.6264 -0.1569
 8097TIP3   OH245781   0.697   4.000   3.600 -0.4435  0.3000  0.0302
 8097TIP3    H145782   0.732   4.044   3.522  0.4698  0.0895  0.3008
 8097TIP3    H245783   0.627   3.944   3.567 -0.3435  0.5201 -0.5795
 8098TIP3   OH245784   0.091   1.753  11.278 -0.1299 -0.3739  0.1293
 8098TIP3    H145785   0.024   1.690  11.252 -1.0497 -0.1448  1.8202
 8098TIP3    H245786   0.048   1.838  11.268 -0.2384 -0.2430  1.5753
 8099TIP3   OH245787   3.426   0.189   4.545  0.4447  0.2763  0.2623
 8099TIP3    H145788   3.500   0.237   4.507  0.2124  0.3330 -0.1276
 8099TIP3    H245789   3.349   0.223   4.500  0.3502 -1.0251 -0.6439
 8100TIP3   OH245790   3.905   0.696   2.548 -0.2620 -0.2119 -0.5726
 8100TIP3    H145791   3.911   0.604   2.521  0.7113  0.0062 -1.1337
 8100TIP3    H245792   3.996   0.721   2.567 -0.4963  0.6945 -0.6206
 8101TIP3   OH245793   1.601   2.119   1.487 -0.0222  0.2708  0.1276
 8101TIP3    H145794   1.556   2.091   1.408  0.9405 -0.1550 -0.2858
 8101TIP3    H245795   1.680   2.162   1.456 -0.0948  0.9560  0.8420
 8102TIP3   OH245796   4.578   2.981   4.297  0.2259  0.1071 -0.2981
 8102TIP3    H145797   4.499   2.953   4.344  0.0696  0.0270 -0.5989
 8102TIP3    H245798   4.623   2.899   4.275  0.0705  0.1172 -0.6682
 8103TIP3   OH245799   2.288   4.313   2.628  0.5559 -0.0388  0.2111
 8103TIP3    H145800   2.245   4.249   2.571  0.3702  0.0224  0.2820
 8103TIP3    H245801   2.377   4.320   2.594  1.1543 -1.6827  1.2702
 8104TIP3   OH245802   4.635   6.097  16.636 -0.0558 -0.0656  0.3147
 8104TIP3    H145803   4.553   6.061  16.668  0.4890 -0.7851  0.9273
 8104TIP3    H245804   4.616   6.189  16.618 -0.5177  0.2457  2.2301
 8105TIP3   OH245805   0.550   6.433  16.772 -0.2879  0.2660  0.0470
 8105TIP3    H145806   0.494   6.433  16.850  0.0209 -2.0579  0.3340
 8105TIP3    H245807   0.492   6.461  16.701 -1.0427  0.7030  0.8157
 8106TIP3   OH245808   0.179   5.700  16.235  1.0238 -0.0262  0.1974
 8106TIP3    H145809   0.135   5.785  16.229 -0.4546 -0.6720  1.2408
 8106TIP3    H245810   0.219   5.700  16.322  1.1912 -0.3104  0.1227
 8107TIP3   OH245811   5.707   6.646  15.635 -0.8006  0.0409  0.2924
 8107TIP3    H145812   5.772   6.598  15.685 -1.7705 -0.6853  0.8793
 8107TIP3    H245813   5.733   6.633  15.543 -0.7297 -1.1359  0.4689
 8108TIP3   OH245814   5.087   0.212   0.849 -0.3010 -0.0743 -0.0961
 8108TIP3    H145815   5.153   0.270   0.811  0.9338  0.5969  2.8270
 8108TIP3    H245816   5.004   0.258   0.834  0.0434 -0.0478 -2.2167
 8109TIP3   OH245817   1.787   5.399   5.765 -0.1777  0.2074 -0.1696
 8109TIP3    H145818   1.881   5.413   5.764 -0.0712 -0.5118 -0.4250
 8109TIP3    H245819   1.767   5.369   5.854 -0.3642  1.6103  0.2877
 8110TIP3   OH245820   3.865   5.407  12.731  0.1002  0.2757  0.0290
 8110TIP3    H145821   3.806   5.403  12.806  1.5733  0.9863  1.2765
 8110TIP3    H245822   3.825   5.471  12.672 -0.2146  0.9949  1.0019
 8111TIP3   OH245823   4.964   5.404  15.547 -0.2048  0.5793  0.4688
 8111TIP3    H145824   4.915   5.467  15.599  1.7580  1.0075  1.9389
 8111TIP3    H245825   5.045   5.450  15.523 -0.2437 -0.2334 -1.4605
 8112TIP3   OH245826   4.540   3.037  11.311  0.0245  0.4769  0.5605
 8112TIP3    H145827   4.586   3.055  11.229 -1.1550  0.7762 -0.0620
 8112TIP3    H245828   4.582   3.093  11.376  0.5566  0.7114  0.0155
 8113TIP3   OH245829   6.227   2.801   0.272 -0.0634 -0.3127  0.1713
 8113TIP3    H145830   6.305   2.852   0.247 -0.7155  0.9988  0.7151
 8113TIP3    H245831   6.241   2.782   0.365 -0.8985  0.9537  0.5893
 8114TIP3   OH245832   0.773   3.560   3.625  0.0230  0.2186  0.7549
 8114TIP3    H145833   0.844   3.623   3.613 -0.2818  1.0261  2.7161
 8114TIP3    H245834   0.810   3.491   3.679 -0.1623 -0.3758  0.1444
 8115TIP3   OH245835   5.945   2.017  17.448  0.7477  0.4854 -0.0436
 8115TIP3    H145836   5.902   1.944  17.493  0.0993 -0.1349 -1.6226
 8115TIP3    H245837   5.873   2.073  17.420  1.1834  1.1595  0.1575
 8116TIP3   OH245838   2.866   2.738   5.126 -0.0350  0.7892 -0.1555
 8116TIP3    H145839   2.892   2.670   5.064 -2.4142  0.7556 -1.1921
 8116TIP3    H245840   2.924   2.812   5.106  1.3479 -0.2703 -0.2304
 8117TIP3   OH245841   4.589   0.156  12.427 -0.5983  0.1321 -0.4243
 8117TIP3    H145842   4.538   0.237  12.432 -0.1094  0.3657  1.2937
 8117TIP3    H245843   4.614   0.149  12.334 -1.5407  1.3651 -0.7986
 8118TIP3   OH245844   1.800   0.100  11.535 -0.0292 -0.3482  0.0402
 8118TIP3    H145845   1.792   0.056  11.620 -3.0153  1.2034  0.7151
 8118TIP3    H245846   1.796   0.029  11.471  1.6220 -1.5049  1.1488
 8119TIP3   OH245847   3.127   2.182   3.711  0.1870  0.0344 -0.1468
 8119TIP3    H145848   3.204   2.188   3.768  0.4333  2.5548 -0.6314
 8119TIP3    H245849   3.151   2.117   3.644  1.9853  0.9137 -0.3948
 8120TIP3   OH245850   2.066   2.066   2.966  0.2682 -0.8044 -0.0516
 8120TIP3    H145851   2.059   2.160   2.952 -0.1222 -1.1703 -2.7734
 8120TIP3    H245852   2.102   2.058   3.054  2.2005  1.9080 -0.4670
 8121TIP3   OH245853   5.232   1.247   5.059  0.0826 -0.0134 -0.6847
 8121TIP3    H145854   5.229   1.186   5.132  2.3840  1.2552  0.6037
 8121TIP3    H245855   5.178   1.321   5.087  0.6151  0.2848 -0.4250
 8122TIP3   OH245856   5.603   5.495  13.321  0.3165  0.1044  0.2192
 8122TIP3    H145857   5.536   5.478  13.387 -0.6165  1.7799 -0.2408
 8122TIP3    H245858   5.630   5.408  13.291  0.4510 -0.6752  2.4518
 8123TIP3   OH245859   2.065   2.319  15.427 -0.0825  0.5376 -0.4039
 8123TIP3    H145860   2.057   2.255  15.498 -1.5221  0.8416 -0.2637
 8123TIP3    H245861   2.029   2.400  15.462 -0.5638  0.7682 -1.3848
 8124TIP3   OH245862   4.744   2.044   2.690  0.4409 -0.0742 -0.3125
 8124TIP3    H145863   4.816   2.089   2.735  0.8720 -0.7792 -0.2891
 8124TIP3    H245864   4.750   1.953   2.720  0.2928 -0.3992 -1.2362
 8125TIP3   OH245865   4.060   1.246  13.376  0.4910 -0.2573  0.3812
 8125TIP3    H145866   3.996   1.281  13.314 -0.7854 -3.3771 -0.2609
 8125TIP3    H245867   4.116   1.189  13.323  0.2034 -1.9597  1.7979
 8126TIP3   OH245868   4.554   1.411  12.689 -0.6912 -0.0587 -0.3063
 8126TIP3    H145869   4.630   1.388  12.743  0.4863 -2.3169 -2.6923
 8126TIP3    H245870   4.576   1.496  12.651 -0.1148  0.0703  0.3038
 8127TIP3   OH245871   5.800   2.328   0.164  0.4896  0.2570  0.4039
 8127TIP3    H145872   5.886   2.313   0.124  0.9693  1.5702  0.8939
 8127TIP3    H245873   5.760   2.396   0.110 -0.6742 -1.0077 -0.3942
 8128TIP3   OH245874   5.519   5.874  15.210  0.7928 -0.3426 -0.3307
 8128TIP3    H145875   5.602   5.917  15.192  0.1670  0.8889 -0.3732
 8128TIP3    H245876   5.497   5.829  15.128  1.6389 -1.0955 -0.1591
 8129TIP3   OH245877   4.480   0.136   0.680  0.0256 -0.2803 -0.2776
 8129TIP3    H145878   4.547   0.069   0.674  1.8461  1.4772 -0.7351
 8129TIP3    H245879   4.502   0.187   0.758 -0.2582  0.8290 -0.8911
 8130TIP3   OH245880   5.004   4.473  13.872  0.0873 -0.1222 -0.0793
 8130TIP3    H145881   5.028   4.386  13.840 -0.9146 -0.6659  0.6061
 8130TIP3    H245882   4.995   4.462  13.966  1.8812  1.2087  0.3070
 8131TIP3   OH245883   3.492   0.987   4.081 -0.0112  0.2268  0.8976
 8131TIP3    H145884   3.587   0.985   4.082 -0.0131 -0.4410  0.3394
 8131TIP3    H245885   3.470   1.066   4.031  0.2617 -0.3444 -0.1450
 8132TIP3   OH245886   5.294   1.304  13.895  0.3227  0.5153  0.0259
 8132TIP3    H145887   5.319   1.260  13.813 -0.9375  1.3713 -0.8686
 8132TIP3    H245888   5.315   1.242  13.964 -0.6723 -1.1754 -1.1319
 8133TIP3   OH245889   5.706   6.166  11.837 -0.6952 -0.1470  0.1738
 8133TIP3    H145890   5.765   6.213  11.779 -0.3570 -1.5682 -0.6907
 8133TIP3    H245891   5.726   6.199  11.925  0.4121  0.3824 -0.2723
 8134TIP3   OH245892   5.084   3.991   5.663 -0.7412 -1.1308 -0.2191
 8134TIP3    H145893   5.102   4.082   5.686 -1.8494 -0.2285 -2.5297
 8134TIP3    H245894   4.997   3.974   5.700 -0.9677 -0.9002 -0.6398
 8135TIP3   OH245895   1.333   6.699  14.493  0.0589 -0.3812 -0.1814
 8135TIP3    H145896   1.298   6.637  14.557 -0.6823  0.4640  0.2541
 8135TIP3    H245897   1.381   6.645  14.431  1.9936 -1.1237  1.8317
 8136TIP3   OH245898   2.899   2.822   3.251 -0.1519 -0.7957 -0.6786
 8136TIP3    H145899   2.969   2.865   3.203 -1.0184  0.2140 -1.0781
 8136TIP3    H245900   2.911   2.849   3.342 -0.5772  0.1615 -0.9001
 8137TIP3   OH245901   4.908   5.290  15.288  0.2310 -0.7519  0.7784
 8137TIP3    H145902   4.974   5.337  15.237  0.8245 -1.9426  0.4198
 8137TIP3    H245903   4.913   5.331  15.375  0.2997  0.2413  0.3240
 8138TIP3   OH245904   5.977   4.884  14.883 -0.9478  0.5335  0.0122
 8138TIP3    H145905   6.006   4.952  14.822 -1.6162  0.1462 -0.7438
 8138TIP3    H245906   5.913   4.833  14.834 -0.0693 -0.9774  0.3981
 8139TIP3   OH245907   5.615   1.105  12.518  0.1427  0.1586  0.8785
 8139TIP3    H145908   5.652   1.041  12.579  0.2742  0.7036  1.3745
 8139TIP3    H245909   5.543   1.146  12.566  0.6885  1.0854  0.9413
 8140TIP3   OH245910   4.757   4.802  13.954  0.1142  0.2661 -0.1321
 8140TIP3    H145911   4.687   4.744  13.983  0.5039  0.0289  0.3470
 8140TIP3    H245912   4.722   4.890  13.968  0.2612  0.1525  0.9860
 8141TIP3   OH245913   4.043   3.688  17.021 -0.3623 -0.3358  0.0022
 8141TIP3    H145914   4.004   3.634  16.952 -1.3146  1.1481 -0.6986
 8141TIP3    H245915   4.106   3.631  17.064 -0.9668 -1.8329 -0.9988
 8142TIP3   OH245916   6.518   3.299   0.339 -0.3997  0.2289  0.0086
 8142TIP3    H145917   6.573   3.367   0.379  1.6009 -1.2867  0.0156
 8142TIP3    H245918   6.560   3.280   0.255 -1.1526 -0.6802 -0.1813
 8143TIP3   OH245919   4.947   0.526   6.651  0.7541 -0.1443 -0.4072
 8143TIP3    H145920   4.938   0.436   6.682  0.7094 -0.1157 -0.3373
 8143TIP3    H245921   4.928   0.580   6.727  2.3352 -0.0775 -0.0337
 8144TIP3   OH245922   6.737   4.998  17.366  0.4078 -0.1426  0.6241
 8144TIP3    H145923   6.814   5.040  17.403  0.5017 -0.6871  1.0676
 8144TIP3    H245924   6.767   4.910  17.341  0.6823  0.5930 -1.9333
 8145TIP3   OH245925   4.089   5.882   4.430  0.0108  0.8031 -0.6696
 8145TIP3    H145926   4.064   5.865   4.339 -1.5235  0.9523 -0.2958
 8145TIP3    H245927   4.156   5.950   4.423 -0.8497  1.5912 -1.6504
 8146TIP3   OH245928   2.074   6.426   5.694  0.0349  0.1526  0.1318
 8146TIP3    H145929   2.027   6.508   5.675 -0.1277  0.3756  1.3670
 8146TIP3    H245930   2.025   6.359   5.648 -0.4834  0.6167 -0.0095
 8147TIP3   OH245931   5.308   5.672   0.868  0.2316  0.1715 -0.4497
 8147TIP3    H145932   5.236   5.609   0.873  1.4222 -1.2970 -1.2884
 8147TIP3    H245933   5.270   5.754   0.901 -1.5310 -0.8050  0.0611
 8148TIP3   OH245934   4.848   0.818  13.696 -0.4264  0.3886 -0.7280
 8148TIP3    H145935   4.928   0.862  13.667 -0.2848 -0.5104 -1.7505
 8148TIP3    H245936   4.778   0.862  13.648 -0.3792  0.1230 -1.0432
 8149TIP3   OH245937   4.099   0.313   3.651 -0.1977 -0.3211 -0.5117
 8149TIP3    H145938   4.054   0.374   3.710 -0.6151  0.8640 -2.0043
 8149TIP3    H245939   4.108   0.361   3.569  0.7052 -1.8007 -1.3197
 8150TIP3   OH245940   1.488   1.440   2.204 -0.5246 -0.6186 -0.2427
 8150TIP3    H145941   1.414   1.497   2.225  1.2163  1.3197  1.1127
 8150TIP3    H245942   1.495   1.381   2.279 -2.0941 -2.5085 -1.4759
 8151TIP3   OH245943   0.222   2.766   6.149  0.6390  0.1428  0.1336
 8151TIP3    H145944   0.290   2.833   6.135  1.2459  0.0830  2.4458
 8151TIP3    H245945   0.219   2.718   6.067  2.5642  0.9045 -0.4349
 8152TIP3   OH245946   1.795   0.798  15.615 -0.1549  0.1737 -0.2129
 8152TIP3    H145947   1.869   0.854  15.639  0.7756 -0.9010 -0.4763
 8152TIP3    H245948   1.774   0.749  15.694  0.8642 -1.0918 -0.6863
 8153TIP3   OH245949   2.323   0.272   2.729 -0.6179 -0.2960 -0.4358
 8153TIP3    H145950   2.294   0.211   2.661 -2.3395 -0.8941  0.7585
 8153TIP3    H245951   2.380   0.220   2.785 -2.4839 -1.0237  0.8672
 8154TIP3   OH245952   1.259   0.133   2.346 -0.1048  0.2964 -0.3754
 8154TIP3    H145953   1.276   0.103   2.435 -1.5374 -0.4557 -0.3185
 8154TIP3    H245954   1.298   0.066   2.290 -0.0912  0.2435 -0.3028
 8155TIP3   OH245955   2.288   6.538   1.939 -0.2068  0.1236 -0.0765
 8155TIP3    H145956   2.322   6.505   2.022 -1.1679  0.0259  0.2835
 8155TIP3    H245957   2.365   6.577   1.897  0.0845  1.1936  1.3491
 8156TIP3   OH245958   4.945   6.058  14.514 -0.0899  0.2168  0.3682
 8156TIP3    H145959   4.882   6.001  14.559 -0.1793  0.3965  0.4692
 8156TIP3    H245960   4.926   6.046  14.421  1.1691 -1.4404  0.2608
 8157TIP3   OH245961   0.230   4.589  17.023  0.0470 -0.0644 -0.1855
 8157TIP3    H145962   0.274   4.589  16.938 -0.8717  0.5948 -0.6716
 8157TIP3    H245963   0.213   4.682  17.041  0.7663 -0.1419  1.0057
 8158TIP3   OH245964   5.071   4.422   0.210 -0.3816 -0.5177  0.1982
 8158TIP3    H145965   5.146   4.441   0.154  0.0900 -4.2021 -0.7242
 8158TIP3    H245966   5.019   4.502   0.210  1.7989  1.0271 -1.9780
 8159TIP3   OH245967   3.291   5.435  12.477  0.3069  0.1868 -0.4723
 8159TIP3    H145968   3.349   5.417  12.550  0.3699  0.3306 -0.4865
 8159TIP3    H245969   3.221   5.371  12.485  0.4317  0.0594 -0.4160
 8160TIP3   OH245970   3.983   0.111  12.168 -0.2543  0.0005  0.2989
 8160TIP3    H145971   4.043   0.121  12.242  3.5198 -0.4607 -2.3643
 8160TIP3    H245972   3.973   0.200  12.134 -0.5493 -0.0058  0.3713
 8161TIP3   OH245973   2.929   2.948  12.045 -0.0112 -0.1524  0.4162
 8161TIP3    H145974   2.898   3.025  11.997  0.4754 -0.1052  0.1660
 8161TIP3    H245975   3.022   2.966  12.061  0.1434 -0.7457  0.2275
 8162TIP3   OH245976   4.710   3.499  10.661  0.0210  0.9434 -0.1557
 8162TIP3    H145977   4.645   3.458  10.603 -0.4297  0.2250  0.8327
 8162TIP3    H245978   4.790   3.503  10.608 -0.5490  0.8898 -1.0403
 8163TIP3   OH245979   6.722   5.353  12.421  0.0039 -0.8554  0.0639
 8163TIP3    H145980   6.630   5.333  12.435  0.1170 -1.1011  0.4921
 8163TIP3    H245981   6.727   5.385  12.331 -0.7771  0.8374  0.5904
 8164TIP3   OH245982   6.237   3.403  17.333  0.3201 -0.5915 -0.3748
 8164TIP3    H145983   6.179   3.406  17.409  1.0539 -2.3430  0.2915
 8164TIP3    H245984   6.180   3.427  17.259  0.1406  3.7971  0.8761
 8165TIP3   OH245985   0.594   4.245   2.122  0.0171 -0.2174 -0.4312
 8165TIP3    H145986   0.621   4.266   2.033  3.5438 -1.2926  0.2101
 8165TIP3    H245987   0.646   4.304   2.177 -1.0489 -0.5253  0.9663
 8166TIP3   OH245988   0.972   6.551   2.817 -0.3146 -0.6750  0.4219
 8166TIP3    H145989   1.023   6.472   2.802 -0.0424 -0.8177  1.9438
 8166TIP3    H245990   0.926   6.566   2.735  0.7446 -1.5867 -0.3690
 8167TIP3   OH245991   3.244   1.195   0.428  1.1122 -0.1324  0.0750
 8167TIP3    H145992   3.303   1.179   0.501  0.0782  1.8397  1.4253
 8167TIP3    H245993   3.279   1.273   0.385  1.0488 -0.5951 -0.8569
 8168TIP3   OH245994   2.557   0.335  10.527  0.1337 -0.0868 -0.3209
 8168TIP3    H145995   2.527   0.414  10.572  0.4885 -0.3166  0.3512
 8168TIP3    H245996   2.619   0.295  10.589  1.7076  0.2946 -1.5616
 8169TIP3   OH245997   1.997   6.196   3.378 -0.0085  0.2228  0.0405
 8169TIP3    H145998   2.049   6.275   3.368 -0.2278  0.1325 -2.3029
 8169TIP3    H245999   1.906   6.227   3.380 -0.0406  0.1139  0.6530
 8170TIP3   OH246000   4.743   5.795  16.788 -0.0056  0.0298  0.5441
 8170TIP3    H146001   4.781   5.717  16.828  0.8362  0.0604 -0.1625
 8170TIP3    H246002   4.812   5.860  16.790 -0.4789  0.5433  0.5088
 8171TIP3   OH246003   4.957   5.695  13.552 -0.2670 -0.3602  0.3866
 8171TIP3    H146004   5.027   5.710  13.615 -0.6607 -1.8513  1.2269
 8171TIP3    H246005   4.897   5.768  13.565 -0.5618 -0.8577  2.0786
 8172TIP3   OH246006   1.248   6.220   5.135  0.4187 -0.6598  0.8357
 8172TIP3    H146007   1.190   6.236   5.210  0.0317  0.5399  0.3004
 8172TIP3    H246008   1.294   6.303   5.121  1.5295 -1.2953  0.6113
 8173TIP3   OH246009   5.311   5.757   3.733 -0.3278 -0.8404  0.3010
 8173TIP3    H146010   5.355   5.770   3.817 -1.3546 -0.2037  0.7630
 8173TIP3    H246011   5.224   5.727   3.756 -0.5008 -1.0216 -0.5578
 8174TIP3   OH246012   1.527   0.867  15.308  0.1899 -0.0053  0.6181
 8174TIP3    H146013   1.550   0.774  15.307  1.1435  0.2136 -0.3736
 8174TIP3    H246014   1.596   0.909  15.256 -1.4807  0.9416 -0.9608
 8175TIP3   OH246015   6.409   6.087  16.109  0.0990 -0.7084  0.2692
 8175TIP3    H146016   6.432   6.093  16.017 -1.4502  0.8312 -0.0664
 8175TIP3    H246017   6.382   6.176  16.133  2.1645 -0.6144  2.7134
 8176TIP3   OH246018   3.000   3.898  16.266 -0.4291  0.2110  0.3265
 8176TIP3    H146019   3.053   3.857  16.334 -0.4952  0.9050  0.8001
 8176TIP3    H246020   3.059   3.963  16.226 -0.5637  0.1853  0.0806
 8177TIP3   OH246021   2.793   6.101  11.926 -0.6029 -0.3694  0.0372
 8177TIP3    H146022   2.791   6.006  11.917 -0.4431 -0.2738 -1.1746
 8177TIP3    H246023   2.701   6.127  11.917 -0.6201 -0.3839  0.1617
 8178TIP3   OH246024   1.024   4.475  11.294  0.7877 -0.3047  0.0074
 8178TIP3    H146025   0.989   4.446  11.210 -0.0006 -0.5240  0.4031
 8178TIP3    H246026   1.119   4.477  11.281  0.6592  0.0142 -0.9927
 8179TIP3   OH246027   1.490   5.356   6.075  0.0783 -0.0462  0.2877
 8179TIP3    H146028   1.585   5.360   6.088  0.0835 -0.2722  0.3124
 8179TIP3    H246029   1.453   5.384   6.159  0.1220  0.2398  0.2147
 8180TIP3   OH246030   0.185   2.389  14.683  0.5914  0.3253 -0.3101
 8180TIP3    H146031   0.222   2.477  14.684  0.4632  0.3809 -0.4912
 8180TIP3    H246032   0.167   2.372  14.590  0.1094  0.3185 -0.2135
 8181TIP3   OH246033   0.377   4.951   3.669 -0.1588 -0.3288 -0.0513
 8181TIP3    H146034   0.300   5.006   3.661 -0.1903 -0.6946 -3.4032
 8181TIP3    H246035   0.342   4.863   3.686 -0.5651 -0.5370 -1.7903
 8182TIP3   OH246036   3.061   5.927  12.329  0.2624  0.0524  0.8397
 8182TIP3    H146037   2.986   5.963  12.282  0.4510  1.5858  1.6441
 8182TIP3    H246038   3.033   5.839  12.354  0.2321 -0.9250 -2.2170
 8183TIP3   OH246039   6.579   2.893   0.584  0.2303 -0.5415  0.3611
 8183TIP3    H146040   6.625   2.929   0.508  0.8139 -0.6189  0.6782
 8183TIP3    H246041   6.502   2.849   0.546 -0.0171  0.2706 -0.0946
 8184TIP3   OH246042   3.159   6.467   3.631 -0.2243  0.2407  0.6537
 8184TIP3    H146043   3.205   6.529   3.688 -0.7853  0.5139  0.8115
 8184TIP3    H246044   3.127   6.399   3.690 -0.1461  0.1251  0.5625
 8185TIP3   OH246045   6.303   0.204   0.148  0.0732 -0.4667  0.1335
 8185TIP3    H146046   6.330   0.122   0.106 -0.1825 -0.0528 -0.8912
 8185TIP3    H246047   6.341   0.272   0.092  0.3672  0.1166  1.0282
 8186TIP3   OH246048   3.654   3.538   4.050  0.3810  0.2938  0.7638
 8186TIP3    H146049   3.622   3.500   3.968 -0.6689  1.1669  0.7512
 8186TIP3    H246050   3.576   3.544   4.105  1.0005  0.1388  1.6658
 8187TIP3   OH246051   3.503   6.130  17.060  0.3176  0.0555  0.0654
 8187TIP3    H146052   3.430   6.140  16.999  0.7799  0.3445 -0.4416
 8187TIP3    H246053   3.529   6.219  17.082 -0.2817 -0.0348  1.2255
 8188TIP3   OH246054   4.245   0.037  11.159  0.3608  0.9756 -0.1052
 8188TIP3    H146055   4.201  -0.019  11.096 -0.1148  2.3507 -1.0269
 8188TIP3    H246056   4.338   0.018  11.147  0.1616 -0.6543  0.6315
 8189TIP3   OH246057   2.080   1.358   0.087  0.0951 -0.0551  0.4549
 8189TIP3    H146058   2.040   1.284   0.041  0.3966  0.8200 -1.3195
 8189TIP3    H246059   2.010   1.423   0.093  0.3805  0.2855  0.1463
 8190TIP3   OH246060   4.821   2.472   6.840  0.3291 -0.3269  0.4442
 8190TIP3    H146061   4.846   2.556   6.879  0.2602  0.7343 -1.6315
 8190TIP3    H246062   4.730   2.485   6.812  0.8206 -0.4931 -1.3401
 8191TIP3   OH246063   0.429   3.762   0.356  0.0877 -0.3782 -0.3527
 8191TIP3    H146064   0.367   3.699   0.392 -0.4753  0.0979 -0.4918
 8191TIP3    H246065   0.379   3.814   0.294  0.6274  0.0025 -0.4820
 8192TIP3   OH246066   5.723   4.193  15.731 -0.6757  0.4478 -0.2004
 8192TIP3    H146067   5.646   4.138  15.716 -0.1372 -0.3126 -0.2969
 8192TIP3    H246068   5.792   4.130  15.753  0.4663  0.9061 -2.2313
 8193TIP3   OH246069   4.146   6.238  14.033 -0.6375 -0.4623  0.6022
 8193TIP3    H146070   4.145   6.244  14.129 -0.1928 -0.7679  0.6301
 8193TIP3    H246071   4.071   6.181  14.012 -1.0375  0.0061  0.7323
 8194TIP3   OH246072   4.966   3.780  16.441  0.3420 -0.1354  0.0478
 8194TIP3    H146073   5.003   3.738  16.518 -0.2815 -2.5357 -0.8976
 8194TIP3    H246074   4.956   3.872  16.467  0.3544 -0.8083  2.7316
 8195TIP3   OH246075   5.849   6.404  11.321  0.0632  0.2755  0.1688
 8195TIP3    H146076   5.902   6.361  11.253 -2.5344 -2.3169 -0.3762
 8195TIP3    H246077   5.831   6.336  11.385  0.1945  2.0090  2.1658
 8196TIP3   OH246078   0.805   5.674  12.799  0.2536  0.1751 -0.0026
 8196TIP3    H146079   0.724   5.691  12.848 -0.1834 -0.9057 -0.3276
 8196TIP3    H246080   0.779   5.614  12.730  1.1713  0.5092 -0.6624
 8197TIP3   OH246081   1.324   3.347  16.434 -0.4994  0.0942 -0.2596
 8197TIP3    H146082   1.318   3.361  16.529 -1.5619  0.3254 -0.3497
 8197TIP3    H246083   1.293   3.257  16.421  1.5250 -0.6635 -0.2058
 8198TIP3   OH246084   1.470   3.556  16.853 -0.1681  0.5168 -0.3567
 8198TIP3    H146085   1.510   3.572  16.938  0.1510  2.0214 -0.7633
 8198TIP3    H246086   1.539   3.516  16.800  0.2923  1.4893 -0.5186
 8199TIP3   OH246087   2.611   6.139  12.667  0.2028  0.2350 -0.2372
 8199TIP3    H146088   2.626   6.088  12.587 -0.0015 -0.4766  0.1724
 8199TIP3    H246089   2.529   6.187  12.650 -0.2503 -0.5037 -0.1662
 8200TIP3   OH246090   2.687   4.767   5.587  0.0408  0.3662  0.1547
 8200TIP3    H146091   2.676   4.835   5.653  1.7094  1.2782 -0.4491
 8200TIP3    H246092   2.709   4.689   5.638  0.7265  0.9160  0.7281
 8201TIP3   OH246093   2.690   5.546   6.115  0.3431  0.1392  0.4665
 8201TIP3    H146094   2.613   5.584   6.073  1.1536  0.8840 -0.3967
 8201TIP3    H246095   2.732   5.620   6.160  2.3067  0.5101 -1.7901
 8202TIP3   OH246096   5.600   1.611   3.860  0.2073 -0.2020 -0.1863
 8202TIP3    H146097   5.517   1.657   3.875  0.8991  0.9807  0.1907
 8202TIP3    H246098   5.595   1.534   3.916 -0.6270 -0.1334 -0.1514
 8203TIP3   OH246099   4.954   2.970  12.757  0.3541  0.2491 -1.0231
 8203TIP3    H146100   5.001   2.994  12.837 -0.4738 -1.5539  0.0668
 8203TIP3    H246101   4.974   3.040  12.696  1.1511  1.6162  0.7089
 8204TIP3   OH246102   5.637   4.936  12.260 -0.1606 -0.1926  0.8124
 8204TIP3    H146103   5.635   4.918  12.354 -0.5201 -1.3477  0.6058
 8204TIP3    H246104   5.568   4.880  12.223 -1.2981  1.6046  0.0634
 8205TIP3   OH246105   1.098   6.334   1.666  0.7026 -0.3966 -0.1299
 8205TIP3    H146106   1.060   6.261   1.616 -0.8522  2.0610 -2.7961
 8205TIP3    H246107   1.187   6.343   1.632  1.1055 -1.3426  0.6210
 8206TIP3   OH246108   2.256   6.253  11.462  0.2249 -0.0382  0.0539
 8206TIP3    H146109   2.163   6.255  11.438 -0.5177  0.2339  2.7012
 8206TIP3    H246110   2.289   6.339  11.436 -1.0538  1.0406  1.7363
 8207TIP3   OH246111   3.585   3.973   3.580 -0.0881  0.1604 -0.4967
 8207TIP3    H146112   3.646   3.900   3.593  0.5973  0.8414  0.2900
 8207TIP3    H246113   3.529   3.971   3.657  0.8876  1.3333  0.2717
 8208TIP3   OH246114   5.549   2.345   3.038 -0.0414  0.3415 -0.0003
 8208TIP3    H146115   5.638   2.323   3.010 -0.1891  0.1515 -0.3275
 8208TIP3    H246116   5.495   2.332   2.960 -0.6424 -1.3159  0.6430
 8209TIP3   OH246117   3.083   1.768  13.739 -0.6029 -0.4740 -0.1387
 8209TIP3    H146118   3.117   1.804  13.821 -0.6943  0.4517 -0.4906
 8209TIP3    H246119   3.024   1.836  13.706 -0.2115 -0.6289 -1.1946
 8210TIP3   OH246120   1.582   0.777  17.216 -0.3409 -0.7864  0.1891
 8210TIP3    H146121   1.629   0.750  17.137  1.8582 -1.4587  1.6399
 8210TIP3    H246122   1.616   0.720  17.285  0.9126  2.3709  2.4272
 8211TIP3   OH246123   1.276   1.443  11.302 -0.2353 -0.4788  0.1954
 8211TIP3    H146124   1.208   1.464  11.367  0.0197 -1.7747  0.9071
 8211TIP3    H246125   1.228   1.407  11.228 -0.8651  3.5935 -1.6911
 8212TIP3   OH246126   2.372   2.952   2.687  0.6979  0.4282 -0.5919
 8212TIP3    H146127   2.389   2.860   2.669  0.1640  0.2041  0.0092
 8212TIP3    H246128   2.409   2.966   2.775 -1.7623  0.0164  0.6092
 8213TIP3   OH246129   6.722   0.096   4.211 -0.7450 -0.2280 -0.1012
 8213TIP3    H146130   6.680   0.167   4.163 -0.4272 -1.2417 -1.9732
 8213TIP3    H246131   6.708   0.019   4.156  2.5447 -0.8291 -0.2812
 8214TIP3   OH246132   6.358   0.463  15.678  0.3987 -0.1976 -0.1422
 8214TIP3    H146133   6.294   0.519  15.722  0.4475  0.1289 -0.4754
 8214TIP3    H246134   6.309   0.424  15.606  0.5163 -0.1194 -0.2655
 8215TIP3   OH246135   4.401   4.073  16.896  0.1821 -0.1638 -0.5075
 8215TIP3    H146136   4.369   3.989  16.863 -1.4927  0.2257  0.0356
 8215TIP3    H246137   4.343   4.094  16.969  2.2410  0.2077  1.1106
 8216TIP3   OH246138   4.642   1.268   1.907  0.4219  0.0751 -0.2007
 8216TIP3    H146139   4.735   1.252   1.924  0.4340 -0.2109 -0.5362
 8216TIP3    H246140   4.636   1.363   1.893  1.0048 -0.1495 -2.2369
 8217TIP3   OH246141   3.830   4.985  14.212  0.9565  0.5043  0.4227
 8217TIP3    H146142   3.760   5.042  14.181 -1.0991 -1.3609  1.3616
 8217TIP3    H246143   3.903   5.045  14.232  0.2199  2.3477 -2.0005
 8218TIP3   OH246144   1.137   5.293  16.326 -0.5649 -0.1367 -0.4007
 8218TIP3    H146145   1.070   5.268  16.390 -3.1051  2.2054 -1.9125
 8218TIP3    H246146   1.197   5.349  16.375 -0.2055 -1.4942  0.7708
 8219TIP3   OH246147   6.563   5.301  15.767 -0.5728 -0.4203 -0.2771
 8219TIP3    H146148   6.629   5.354  15.723 -0.5527 -0.1694  0.0472
 8219TIP3    H246149   6.557   5.221  15.714  3.1740 -2.5111  1.9657
 8220TIP3   OH246150   0.098   1.050  15.898 -0.7443 -0.2103  0.1906
 8220TIP3    H146151   0.080   0.960  15.872 -1.3076  0.2739 -1.1671
 8220TIP3    H246152   0.159   1.082  15.832  0.7798 -0.0881  1.6009
 8221TIP3   OH246153   1.567   6.516   1.431 -0.0820 -0.5555 -0.9819
 8221TIP3    H146154   1.571   6.604   1.396 -0.2797 -0.0296  0.2498
 8221TIP3    H246155   1.529   6.463   1.361 -0.2082  0.3861 -1.6308
 8222TIP3   OH246156   5.007   3.468  13.848  0.4567  0.0813  0.1384
 8222TIP3    H146157   4.964   3.433  13.770 -0.3595 -1.3301  1.1775
 8222TIP3    H246158   5.058   3.543  13.816 -2.2081  1.4367 -1.2795
 8223TIP3   OH246159   6.042   4.134   7.137  0.1623 -0.0529 -0.1931
 8223TIP3    H146160   6.022   4.060   7.079  0.8825  0.2223 -0.8184
 8223TIP3    H246161   6.135   4.152   7.120  0.0376  0.8668  0.0922
 8224TIP3   OH246162   3.548   4.352  12.504  0.2459  0.0797  0.2591
 8224TIP3    H146163   3.640   4.329  12.517  0.6152  0.5586 -1.3289
 8224TIP3    H246164   3.500   4.276  12.539  1.3182 -1.2249 -0.9789
 8225TIP3   OH246165   4.026   4.554  15.636  0.0339 -0.0773  0.0977
 8225TIP3    H146166   3.940   4.518  15.660  0.2896  0.1231  1.4083
 8225TIP3    H246167   4.011   4.648  15.627  0.0269 -0.1000 -0.1438
 8226TIP3   OH246168   3.350   2.006   3.632  0.1915  0.7533  0.0763
 8226TIP3    H146169   3.359   2.042   3.720  0.2727 -0.9024  0.7875
 8226TIP3    H246170   3.426   1.949   3.622 -0.3594  0.1285 -0.6447
 8227TIP3   OH246171   2.734   6.618   2.337  0.5379 -0.1866 -0.2895
 8227TIP3    H146172   2.733   6.687   2.404 -2.3514 -0.9090  0.5768
 8227TIP3    H246173   2.819   6.626   2.295  1.6323  1.7059  2.0399
 8228TIP3   OH246174   4.508   3.365   3.022 -0.5856 -0.1029  0.6357
 8228TIP3    H146175   4.526   3.456   2.999 -2.4859  0.5189  1.3712
 8228TIP3    H246176   4.506   3.365   3.118  1.3186 -1.3633  0.7147
 8229TIP3   OH246177   3.760   6.341   3.434 -0.0852  0.1041  0.4645
 8229TIP3    H146178   3.690   6.306   3.489 -1.7224  1.2627 -0.7801
 8229TIP3    H246179   3.784   6.424   3.476 -0.0738  0.1154  0.4355
 8230TIP3   OH246180   1.254   4.020   1.047 -0.3723  0.5687  0.1163
 8230TIP3    H146181   1.347   4.017   1.068 -0.3632  3.1352  0.8148
 8230TIP3    H246182   1.247   3.977   0.962  1.2638 -0.6170  0.5426
 8231TIP3   OH246183   3.729   1.684  13.275 -0.1537 -0.3067 -0.3483
 8231TIP3    H146184   3.649   1.672  13.325  0.1991 -1.4705 -0.0296
 8231TIP3    H246185   3.698   1.698  13.185 -0.7888  1.8929  0.1434
 8232TIP3   OH246186   0.579   4.707  11.583  0.5764 -0.0131 -0.1441
 8232TIP3    H146187   0.618   4.696  11.496 -1.1689  0.0719 -0.9852
 8232TIP3    H246188   0.548   4.619  11.606  1.9442 -0.2519  0.8840
 8233TIP3   OH246189   1.021   2.138  13.029 -0.0959  0.0414 -0.0787
 8233TIP3    H146190   1.027   2.065  12.967 -1.6555 -1.6030  1.5734
 8233TIP3    H246191   1.090   2.121  13.093 -1.2331 -0.7446  0.9890
 8234TIP3   OH246192   6.644   4.533   1.671 -0.4434  0.3099 -0.5674
 8234TIP3    H146193   6.601   4.595   1.729 -0.8436  1.7333 -2.2981
 8234TIP3    H246194   6.725   4.509   1.717 -1.7151 -0.2932  1.4887
 8235TIP3   OH246195   4.324   4.556   3.131  0.4329 -0.1620  0.1692
 8235TIP3    H146196   4.330   4.507   3.213  0.6522  0.6756  0.6709
 8235TIP3    H246197   4.314   4.647   3.159 -0.4125  0.0373 -0.7418
 8236TIP3   OH246198   5.429   5.067  16.981  0.2604 -0.4796  0.5458
 8236TIP3    H146199   5.376   5.134  17.025 -1.0903 -0.1049 -1.5403
 8236TIP3    H246200   5.438   5.098  16.891  1.0475 -2.2801 -0.0430
 8237TIP3   OH246201   3.999   4.067   4.644 -0.1638  0.6519  0.4341
 8237TIP3    H146202   3.983   4.149   4.690 -0.6261  0.2532  1.0067
 8237TIP3    H246203   4.085   4.078   4.604 -1.0815  2.2041 -1.2825
 8238TIP3   OH246204   1.817   1.659  11.527 -0.0403  0.2675  0.4213
 8238TIP3    H146205   1.824   1.722  11.600 -1.4711  1.1298 -0.1334
 8238TIP3    H246206   1.865   1.582  11.557  1.3490  1.4346  1.3366
 8239TIP3   OH246207   1.346   2.888  12.394 -0.4579  0.8461  0.0102
 8239TIP3    H146208   1.253   2.887  12.371 -0.8494 -0.5743  1.4540
 8239TIP3    H246209   1.350   2.941  12.473 -0.2692 -0.0807  0.6468
 8240TIP3   OH246210   3.147   2.307  15.138 -0.4792 -0.0212  0.2011
 8240TIP3    H146211   3.178   2.221  15.167 -0.7901 -0.0524  0.4437
 8240TIP3    H246212   3.147   2.361  15.217  0.6673  0.4912 -0.1307
 8241TIP3   OH246213   1.029   0.200   0.942 -0.0077  0.2250  0.2905
 8241TIP3    H146214   1.113   0.219   0.983 -0.3044  0.6149  0.7249
 8241TIP3    H246215   1.000   0.117   0.981 -0.0318  0.3148  0.4613
 8242TIP3   OH246216   3.541   4.678  12.907 -0.4085  0.2403  0.8039
 8242TIP3    H146217   3.517   4.758  12.953 -1.9639  0.3676 -0.1304
 8242TIP3    H246218   3.526   4.608  12.971  0.4126  0.6366  1.4415
 8243TIP3   OH246219   3.963   5.983   6.254  0.2844 -0.4430 -0.7455
 8243TIP3    H146220   4.034   5.920   6.258 -0.0273 -0.8633 -1.5966
 8243TIP3    H246221   3.886   5.930   6.233 -0.3121 -0.0176  0.2938
 8244TIP3   OH246222   3.575   0.317   0.448 -0.8049  0.1650  0.2455
 8244TIP3    H146223   3.546   0.363   0.528  0.4268  0.0927  0.7534
 8244TIP3    H246224   3.666   0.295   0.465 -0.1848  1.0654 -1.6002
 8245TIP3   OH246225   6.025   0.668  14.974 -0.8472  0.1753  0.0374
 8245TIP3    H146226   5.938   0.653  15.010 -1.6152  0.5534 -1.5722
 8245TIP3    H246227   6.027   0.615  14.894  1.0811 -1.2744  0.9706
 8246TIP3   OH246228   6.686   3.098   3.189  0.4850  0.7219  0.0184
 8246TIP3    H146229   6.664   3.190   3.198 -0.8923  0.5409 -1.1054
 8246TIP3    H246230   6.641   3.055   3.261 -2.4778  0.4542 -1.8264
 8247TIP3   OH246231   2.465   5.292   2.502  0.2627  0.1950  0.4413
 8247TIP3    H146232   2.416   5.334   2.573 -0.1220  1.5508 -0.5817
 8247TIP3    H246233   2.397   5.264   2.440  0.6811  0.6914 -0.2528
 8248TIP3   OH246234   5.368   4.210   1.126  0.0561 -0.0731  0.1600
 8248TIP3    H146235   5.424   4.205   1.203 -1.3164 -0.5953  1.1622
 8248TIP3    H246236   5.375   4.301   1.097  1.8966 -0.2715 -0.1540
 8249TIP3   OH246237   6.681   0.979  11.738 -0.0227 -0.2652  0.3866
 8249TIP3    H146238   6.680   0.896  11.786 -2.5585 -1.2058 -1.1374
 8249TIP3    H246239   6.663   1.045  11.805  0.4251 -1.0839  1.3496
 8250TIP3   OH246240   4.244   1.141   0.750  0.0365  0.1886 -0.4157
 8250TIP3    H146241   4.259   1.069   0.812 -0.8903  0.1932 -0.1683
 8250TIP3    H246242   4.302   1.211   0.781  1.7410 -0.7653 -1.2663
 8251TIP3   OH246243   3.455   1.669  11.933 -0.6222  0.2119  0.5209
 8251TIP3    H146244   3.399   1.629  11.867 -0.9373 -0.4111  1.1534
 8251TIP3    H246245   3.544   1.648  11.905 -0.7850 -2.1699  1.5382
 8252TIP3   OH246246   4.815   2.335  11.960 -0.0582  0.3078  0.4919
 8252TIP3    H146247   4.785   2.374  12.042  0.4100 -1.0985  1.3715
 8252TIP3    H246248   4.752   2.366  11.894 -1.4495  0.1090  1.6750
 8253TIP3   OH246249   5.630   2.449  15.744  0.0244  0.0732  0.2837
 8253TIP3    H146250   5.534   2.456  15.746  0.0252  0.4909 -0.6543
 8253TIP3    H246251   5.656   2.505  15.672  0.8146 -1.8708 -1.0167
 8254TIP3   OH246252   1.101   5.205   2.234 -0.4141  0.1201 -0.1200
 8254TIP3    H146253   1.048   5.226   2.311  0.8711 -1.4650  1.2625
 8254TIP3    H246254   1.136   5.118   2.252  1.5488  0.5489 -1.6072
 8255TIP3   OH246255   3.253   3.347   5.208  0.7136  0.3212 -0.0580
 8255TIP3    H146256   3.247   3.309   5.121 -2.2719 -1.3669  0.7620
 8255TIP3    H246257   3.212   3.433   5.200 -0.7967 -0.3772 -0.0968
 8256TIP3   OH246258   5.458   2.953   6.312 -0.4915 -0.3494 -0.5021
 8256TIP3    H146259   5.519   3.023   6.336  1.9187 -2.2569 -0.6519
 8256TIP3    H246260   5.375   2.979   6.352  0.1248  2.8034 -0.9968
 8257TIP3   OH246261   4.184   3.429  15.391  0.4391 -0.8202 -0.0189
 8257TIP3    H146262   4.094   3.449  15.367  0.0207 -2.3107  0.2394
 8257TIP3    H246263   4.234   3.440  15.311 -0.0968 -0.7266 -0.3430
 8258TIP3   OH246264   2.969   0.212   3.555 -0.1095 -0.3698  0.4142
 8258TIP3    H146265   2.946   0.179   3.642  1.5487  0.6491  1.3064
 8258TIP3    H246266   2.950   0.306   3.560  0.6584 -0.1795 -0.0756
 8259TIP3   OH246267   0.955   1.611   5.611  1.0774 -0.1939 -0.0520
 8259TIP3    H146268   1.011   1.683   5.638  1.3261 -0.7456  0.9884
 8259TIP3    H246269   1.014   1.537   5.601  0.7780 -0.3387 -0.7762
 8260TIP3   OH246270   3.314   4.114  15.587 -0.0185  0.1638 -0.1141
 8260TIP3    H146271   3.339   4.024  15.567 -1.2177 -0.5754  1.4656
 8260TIP3    H246272   3.269   4.108  15.671  0.2781  2.3179  0.2585
 8261TIP3   OH246273   6.503   0.866  13.162 -0.0118  0.2459  0.2390
 8261TIP3    H146274   6.469   0.803  13.224 -1.9723 -0.5290 -1.5118
 8261TIP3    H246275   6.593   0.838  13.146  0.4682  0.3321  2.4515
 8262TIP3   OH246276   5.412   3.226   0.175  0.2547  0.0717  0.0880
 8262TIP3    H146277   5.332   3.196   0.218  0.2221 -1.7165 -1.1543
 8262TIP3    H246278   5.473   3.242   0.247 -0.9159  0.6214  0.9957
 8263TIP3   OH246279   3.858   1.084  15.420  0.7219  0.4718  0.4606
 8263TIP3    H146280   3.830   1.048  15.504  0.0400  0.1032  0.0781
 8263TIP3    H246281   3.812   1.168  15.413 -0.1944 -0.0573 -0.0906
 8264TIP3   OH246282   4.448   1.256   5.650 -0.3592 -0.0621  0.4190
 8264TIP3    H146283   4.404   1.340   5.665  0.0177  0.0430  1.0102
 8264TIP3    H246284   4.540   1.275   5.668 -0.1232 -0.3650 -0.4425
 8265TIP3   OH246285   5.081   3.479  12.160  0.0179 -0.3167  0.0784
 8265TIP3    H146286   5.081   3.502  12.253 -0.0163  0.4341 -0.1000
 8265TIP3    H246287   5.067   3.384  12.158  0.3963 -0.3929  0.8506
 8266TIP3   OH246288   6.418   0.978   1.727 -0.1155 -0.4108  0.1612
 8266TIP3    H146289   6.365   0.996   1.649 -0.4916  0.5468  0.6204
 8266TIP3    H246290   6.385   1.040   1.792  0.5067 -0.8905  0.9396
 8267TIP3   OH246291   2.464   5.054   1.250  0.0362 -0.0627 -0.7772
 8267TIP3    H146292   2.503   5.129   1.296 -1.3795 -1.9389  4.1693
 8267TIP3    H246293   2.395   5.093   1.196  0.6441  2.3634  0.0456
 8268TIP3   OH246294   5.315   6.287  15.950  0.0893  0.2550  0.1841
 8268TIP3    H146295   5.386   6.224  15.938 -0.5585 -0.2260 -1.2932
 8268TIP3    H246296   5.300   6.325  15.863 -0.3649  1.5624  0.7987
 8269TIP3   OH246297   0.459   3.503   3.310 -0.2121 -0.3815 -0.0204
 8269TIP3    H146298   0.522   3.570   3.281  1.1210 -1.7863 -0.5257
 8269TIP3    H246299   0.407   3.546   3.378  1.2983  0.8517  0.4037
 8270TIP3   OH246300   1.660   6.324  12.037  0.0550  0.0277  0.4634
 8270TIP3    H146301   1.679   6.387  11.969  0.1606  0.4073  0.8398
 8270TIP3    H246302   1.724   6.342  12.106 -0.0833 -0.3152  0.6878
 8271TIP3   OH246303   0.332   5.376   6.898  0.3878  0.1373 -0.4373
 8271TIP3    H146304   0.257   5.325   6.927  0.8333 -1.4282 -1.8882
 8271TIP3    H246305   0.297   5.433   6.829  0.0799  1.2028  0.5588
 8272TIP3   OH246306   4.545   6.631   1.233  0.2971 -0.2298 -0.1900
 8272TIP3    H146307   4.526   6.549   1.188 -1.1939 -0.7549  1.2944
 8272TIP3    H246308   4.504   6.622   1.319 -0.0329  2.1228 -0.0208
 8273TIP3   OH246309   4.696   0.924   5.793 -0.0575 -0.2866  0.2330
 8273TIP3    H146310   4.764   0.989   5.811  0.0824  0.5721 -2.9415
 8273TIP3    H246311   4.745   0.844   5.773 -0.1576 -0.6583  1.3686
 8274TIP3   OH246312   0.998   5.740   1.403  0.1999 -0.4766  0.4598
 8274TIP3    H146313   0.936   5.778   1.466 -0.1413  0.0702 -0.1915
 8274TIP3    H246314   0.944   5.720   1.326  0.6463 -0.9579  0.2657
 8275TIP3   OH246315   2.808   3.944  16.480  0.2093 -0.3982 -0.2836
 8275TIP3    H146316   2.864   3.906  16.413  0.0633 -0.3560 -0.4302
 8275TIP3    H246317   2.727   3.892  16.476  0.4028 -0.7625  0.2374
 8276TIP3   OH246318   0.006   5.841   4.126  0.3699  0.1435  0.1897
 8276TIP3    H146319   0.048   5.925   4.141  0.0003  0.3268  0.2147
 8276TIP3    H246320  -0.080   5.864   4.090 -0.0768 -0.1943  1.0135
 8277TIP3   OH246321   6.706   2.353   5.892 -0.5540 -0.3195 -0.1849
 8277TIP3    H146322   6.613   2.343   5.870 -0.7513  1.6645 -0.4232
 8277TIP3    H246323   6.733   2.266   5.921 -2.7495 -0.7143  0.8815
 8278TIP3   OH246324   5.758   1.712  13.180 -0.2337  0.1457 -0.2584
 8278TIP3    H146325   5.733   1.636  13.231  1.8058 -0.3303  0.1100
 8278TIP3    H246326   5.826   1.680  13.120  0.6857  1.6641 -0.0726
 8279TIP3   OH246327   5.737   1.235  16.589 -0.1901 -0.5358 -1.1179
 8279TIP3    H146328   5.721   1.141  16.587 -0.4892 -0.4842 -2.7716
 8279TIP3    H246329   5.663   1.273  16.542 -0.8891  0.6990  0.8585
 8280TIP3   OH246330   3.090   0.216   2.541  0.4205  0.1289 -0.0335
 8280TIP3    H146331   3.185   0.212   2.534  0.4566 -0.8279  0.7816
 8280TIP3    H246332   3.073   0.227   2.634 -0.2655  0.7561 -0.2220
 8281TIP3   OH246333   3.619   2.331  11.848 -0.3511  0.5928  0.4401
 8281TIP3    H146334   3.682   2.321  11.777  0.1270  1.6030  0.6965
 8281TIP3    H246335   3.620   2.247  11.894  1.5826  0.9101  1.0588
 8282TIP3   OH246336   3.679   2.199   4.436 -0.1004 -0.1112 -0.3260
 8282TIP3    H146337   3.721   2.189   4.522 -1.4671 -0.3233  0.3441
 8282TIP3    H246338   3.751   2.221   4.377  0.7824  0.7244  0.9955
 8283TIP3   OH246339   1.475   5.930   2.709 -0.2074 -0.4655 -0.1548
 8283TIP3    H146340   1.523   5.892   2.782  0.6390  0.3917 -0.2405
 8283TIP3    H246341   1.505   6.021   2.706 -3.3423  0.7868  1.1123
 8284TIP3   OH246342   4.249   1.506   1.163 -0.7948 -0.0226  0.1589
 8284TIP3    H146343   4.191   1.572   1.125 -1.8728 -1.3107 -0.5408
 8284TIP3    H246344   4.273   1.541   1.248 -1.2519  1.3121 -0.2336
 8285TIP3   OH246345   5.763   3.506  16.980  0.0677 -0.4078  0.2388
 8285TIP3    H146346   5.841   3.524  16.927 -0.7052  0.8049 -0.5380
 8285TIP3    H246347   5.738   3.592  17.015 -1.5461 -0.5661 -0.4437
 8286TIP3   OH246348   3.849   1.594  11.833  0.1095 -0.9377 -0.1981
 8286TIP3    H146349   3.802   1.526  11.784 -0.8457  0.6276 -1.5904
 8286TIP3    H246350   3.853   1.668  11.772  0.1473  0.6198  1.6082
 8287TIP3   OH246351   5.598   4.484  14.528 -0.2698 -0.0018 -0.2970
 8287TIP3    H146352   5.530   4.417  14.523  0.3544 -0.8156  1.4461
 8287TIP3    H246353   5.562   4.558  14.479 -1.1571 -1.4248 -1.9065
 8288TIP3   OH246354   2.017   6.154   2.793  0.1140  0.5476  0.4190
 8288TIP3    H146355   2.053   6.066   2.777 -0.2264  0.0485  2.2028
 8288TIP3    H246356   2.028   6.168   2.887 -2.8604  1.0228  0.7958
 8289TIP3   OH246357   2.761   4.434  14.405 -0.1172 -0.4872  0.1056
 8289TIP3    H146358   2.666   4.439  14.396  0.0554  0.1353 -1.8662
 8289TIP3    H246359   2.782   4.499  14.472 -1.1479 -1.4768  1.4473
 8290TIP3   OH246360   3.054   6.229  14.073 -0.2768  0.1916 -0.1482
 8290TIP3    H146361   3.059   6.135  14.089  0.3462 -0.1586 -2.1090
 8290TIP3    H246362   3.144   6.256  14.054 -0.4670  1.1715  0.2479
 8291TIP3   OH246363   5.087   1.749   5.314  0.0491  0.2322 -0.1540
 8291TIP3    H146364   5.088   1.670   5.260 -0.9310  0.8730 -1.1421
 8291TIP3    H246365   5.004   1.792   5.293 -0.7364  0.1467  2.4045
 8292TIP3   OH246366   1.122   6.388   4.272 -0.2785  0.0492 -0.1384
 8292TIP3    H146367   1.068   6.459   4.306 -2.0599 -1.6212  0.7511
 8292TIP3    H246368   1.202   6.392   4.323 -0.7510  0.8410  0.5621
 8293TIP3   OH246369   5.342   1.765   1.346 -0.0346 -0.3145 -0.0519
 8293TIP3    H146370   5.304   1.683   1.314 -1.6894  0.5661 -0.4579
 8293TIP3    H246371   5.348   1.821   1.269 -0.2391  0.4192  0.4523
 8294TIP3   OH246372   4.360   4.486   1.386 -0.3732  0.5111  0.0157
 8294TIP3    H146373   4.376   4.484   1.291 -3.4750 -1.0970 -0.6141
 8294TIP3    H246374   4.407   4.411   1.420 -0.6348  0.0869 -0.5462
 8295TIP3   OH246375   0.003   4.475  12.883 -0.3822  0.2617  0.6139
 8295TIP3    H146376   0.056   4.489  12.804 -0.0677 -1.9424  0.3445
 8295TIP3    H246377   0.067   4.465  12.953 -0.3137 -2.5410  0.2659
 8296TIP3   OH246378   5.859   5.360   6.656  0.4594 -0.2141 -0.0943
 8296TIP3    H146379   5.866   5.384   6.749  0.6085  0.1610 -0.2001
 8296TIP3    H246380   5.788   5.296   6.653  0.1015  0.1666  0.2055
 8297TIP3   OH246381   2.109   3.525   5.521  0.4145 -0.1276  0.4918
 8297TIP3    H146382   2.117   3.479   5.438 -0.1273  1.1825 -0.3058
 8297TIP3    H246383   2.157   3.470   5.583  0.8392 -1.1177 -0.6767
 8298TIP3   OH246384   3.877   0.613   5.997 -0.1801  0.9838  0.0379
 8298TIP3    H146385   3.801   0.654   6.037 -0.5560  0.2570  0.0768
 8298TIP3    H246386   3.888   0.658   5.913 -0.3298  1.4444  0.2649
 8299TIP3   OH246387   0.258   4.022   0.056 -0.2389 -0.1015 -0.5895
 8299TIP3    H146388   0.170   4.044   0.085 -0.2456 -0.6183 -0.2048
 8299TIP3    H246389   0.246   3.953  -0.010 -0.0233 -2.0913  1.3345
 8300TIP3   OH246390   1.477   4.987   4.041 -0.0738  0.4265 -0.2636
 8300TIP3    H146391   1.547   4.948   3.988 -0.4329 -0.0790 -0.3654
 8300TIP3    H246392   1.501   4.965   4.131 -1.7247 -2.5148 -0.4352
 8301TIP3   OH246393   0.459   4.945   4.432 -0.5455 -0.3630  0.2365
 8301TIP3    H146394   0.520   4.872   4.420 -0.2401 -0.1663  0.5667
 8301TIP3    H246395   0.515   5.022   4.439 -0.9157  0.1383 -1.6884
 8302TIP3   OH246396   3.264   6.755   1.693 -0.3416 -0.1835  0.8297
 8302TIP3    H146397   3.355   6.726   1.697 -1.0192 -3.2528 -1.9194
 8302TIP3    H246398   3.213   6.679   1.718 -2.1796  0.5252 -0.5344
 8303TIP3   OH246399   3.812   5.493  15.043  0.4278  0.0707 -0.0462
 8303TIP3    H146400   3.877   5.444  15.093  1.5056  1.3801 -0.1141
 8303TIP3    H246401   3.798   5.573  15.094 -0.0921  0.4276 -0.7363
 8304TIP3   OH246402   1.761   6.639  12.703  0.2316 -0.0618 -0.1431
 8304TIP3    H146403   1.771   6.725  12.742 -0.0329  0.1106 -0.4551
 8304TIP3    H246404   1.767   6.653  12.609 -1.4169 -0.1294 -0.2932
 8305TIP3   OH246405   3.781   3.993  11.464 -0.1364  0.0202  0.0793
 8305TIP3    H146406   3.773   3.998  11.559  1.2673 -0.4234  0.2521
 8305TIP3    H246407   3.805   3.902  11.446 -0.2415  0.1329 -0.6845
 8306TIP3   OH246408   3.022   1.432  11.671  0.0427  0.4458 -0.0551
 8306TIP3    H146409   3.058   1.351  11.705  0.7646  0.0460 -1.6583
 8306TIP3    H246410   3.069   1.446  11.588  0.0131  2.5580  0.2334
 8307TIP3   OH246411   0.919   6.008   5.866 -0.1802  0.2289 -0.3020
 8307TIP3    H146412   0.829   6.041   5.867 -0.3289 -0.1313 -1.0136
 8307TIP3    H246413   0.974   6.086   5.858 -0.5013  0.3586 -1.3731
 8308TIP3   OH246414   4.073   6.581  16.122 -0.2139 -0.6037 -0.0367
 8308TIP3    H146415   4.167   6.592  16.138 -0.1323 -2.4636  1.0856
 8308TIP3    H246416   4.064   6.591  16.027  1.0833 -0.1517 -0.1367
 8309TIP3   OH246417   5.195   5.022  10.989  0.0383  0.4640  0.1495
 8309TIP3    H146418   5.190   4.936  10.948 -1.0408 -0.5368  2.2160
 8309TIP3    H246419   5.214   5.082  10.917 -3.8618 -0.8051 -2.2404
 8310TIP3   OH246420   2.004   6.490   4.778  0.2747 -0.2254 -0.3275
 8310TIP3    H146421   1.961   6.406   4.794 -0.9527  0.1880 -1.2977
 8310TIP3    H246422   2.080   6.469   4.725 -0.4904 -0.6650 -1.2805
 8311TIP3   OH246423   2.798   6.633  16.227  0.5091 -0.0326  0.1195
 8311TIP3    H146424   2.803   6.635  16.323  1.0755 -0.0857  0.0958
 8311TIP3    H246425   2.764   6.546  16.206  0.4891 -0.0608  0.2655
 8312TIP3   OH246426   4.644   2.523  15.572 -0.4453  0.0169 -0.4285
 8312TIP3    H146427   4.572   2.507  15.632 -0.7703 -0.5616 -0.9662
 8312TIP3    H246428   4.716   2.553  15.628 -1.2909  1.2599  0.0370
 8313TIP3   OH246429   2.166   5.832  15.249  0.2504  0.3766 -0.5971
 8313TIP3    H146430   2.205   5.838  15.337  0.9248 -1.0396 -0.7583
 8313TIP3    H246431   2.238   5.853  15.190  0.2973 -0.4581 -0.8492
 8314TIP3   OH246432   5.395   6.242   3.058 -0.2362  0.3284  0.2717
 8314TIP3    H146433   5.449   6.212   2.985 -1.9471 -1.9427 -0.2016
 8314TIP3    H246434   5.434   6.325   3.085  2.4636 -0.3962 -1.0423
 8315TIP3   OH246435   2.065   6.661  12.491 -0.2247 -0.2091  0.7373
 8315TIP3    H146436   2.036   6.741  12.532  0.1113 -0.1867  0.9339
 8315TIP3    H246437   2.038   6.591  12.551 -1.4431 -0.3408  0.0771
 8316TIP3   OH246438   0.138   2.616   1.406  0.0073 -0.1523 -0.0526
 8316TIP3    H146439   0.199   2.546   1.431  0.5408  0.2185 -0.3079
 8316TIP3    H246440   0.061   2.569   1.372  0.6295 -0.6219 -0.8605
 8317TIP3   OH246441   3.368   6.289  15.981 -0.1281 -0.0993 -0.0023
 8317TIP3    H146442   3.382   6.262  15.890 -0.3002  0.0264 -0.0656
 8317TIP3    H246443   3.313   6.366  15.975 -0.0265 -0.0093  0.2040
 8318TIP3   OH246444   6.308   5.613   1.296  0.4495  0.3847 -0.0661
 8318TIP3    H146445   6.216   5.640   1.293  0.2106 -0.3036  0.7284
 8318TIP3    H246446   6.308   5.536   1.353  1.1986 -0.8730 -1.6635
 8319TIP3   OH246447   0.571   1.050  13.937 -0.2568  0.3037  0.4166
 8319TIP3    H146448   0.647   1.091  13.979  0.7189 -0.2609 -0.7491
 8319TIP3    H246449   0.496   1.094  13.977  0.6771  1.1183  1.3570
 8320TIP3   OH246450   2.157   3.504   4.117  0.4847 -0.1289  0.3739
 8320TIP3    H146451   2.159   3.473   4.207 -0.0469 -0.0533  0.4113
 8320TIP3    H246452   2.247   3.532   4.099  0.1619  1.8302  1.5612
 8321TIP3   OH246453   4.842   0.871  17.481  0.0935  0.5228 -0.6269
 8321TIP3    H146454   4.795   0.839  17.404 -0.8095 -1.8569  0.7942
 8321TIP3    H246455   4.932   0.882  17.450 -0.0155 -1.3670 -1.8232
 8322TIP3   OH246456   5.138   5.931   0.425  0.2071 -0.0397 -0.1101
 8322TIP3    H146457   5.081   5.999   0.389 -0.8792  0.0239  1.6196
 8322TIP3    H246458   5.088   5.850   0.416  0.1252 -0.0960  0.7925
 8323TIP3   OH246459   6.616   4.370  12.445  0.3085 -0.0586  0.1078
 8323TIP3    H146460   6.558   4.446  12.452  1.0357  0.3670  3.0960
 8323TIP3    H246461   6.557   4.297  12.428 -0.6530  0.8641 -0.6600
 8324TIP3   OH246462   1.407   0.035  15.133  0.3429  0.1343  0.1563
 8324TIP3    H146463   1.479  -0.020  15.102 -0.2494  0.6746 -2.3989
 8324TIP3    H246464   1.330  -0.022  15.129  0.1417  0.4201 -0.0530
 8325TIP3   OH246465   5.304   5.662  14.688 -0.8582 -0.5331  0.2423
 8325TIP3    H146466   5.363   5.730  14.654 -0.0946 -0.3570  1.8406
 8325TIP3    H246467   5.322   5.586  14.633  0.9967 -0.5206  0.7672
 8326TIP3   OH246468   2.212   0.744  16.922  0.1053 -0.2144  0.4059
 8326TIP3    H146469   2.233   0.831  16.890  0.8262 -0.4384  0.2595
 8326TIP3    H246470   2.143   0.758  16.987  0.9789  0.5647  1.1918
 8327TIP3   OH246471   3.603   4.306  16.892  0.5166  0.3956  0.7016
 8327TIP3    H146472   3.663   4.274  16.824 -1.1881 -0.8129 -0.2897
 8327TIP3    H246473   3.629   4.258  16.971  1.1398  0.2401  0.4083
 8328TIP3   OH246474   5.777   1.733   3.685 -0.1747  0.4594 -0.1012
 8328TIP3    H146475   5.721   1.680   3.741 -1.3416  1.8827  0.1549
 8328TIP3    H246476   5.801   1.675   3.613 -1.2343 -0.4803  0.2701
 8329TIP3   OH246477   0.884   0.591  12.391 -0.3662  0.0536 -0.0838
 8329TIP3    H146478   0.799   0.607  12.432  0.0725 -0.0061  0.8790
 8329TIP3    H246479   0.901   0.670  12.339  0.1558  1.2428  1.7953
 8330TIP3   OH246480   3.230   3.942  14.770 -0.0016  0.0103  0.1406
 8330TIP3    H146481   3.258   3.943  14.862 -0.7684 -1.1762  0.4088
 8330TIP3    H246482   3.166   3.871  14.766  1.5058 -1.3176 -1.7525
 8331TIP3   OH246483   0.117   5.102   0.266 -0.2342 -0.2317 -0.6038
 8331TIP3    H146484   0.034   5.060   0.243 -0.4333 -0.5232  0.5996
 8331TIP3    H246485   0.180   5.030   0.270  0.2686  0.0818 -2.2752
 8332TIP3   OH246486   1.564   5.830   5.135 -0.1513  0.3776 -0.1667
 8332TIP3    H146487   1.558   5.907   5.191 -0.3894 -0.1621  0.5738
 8332TIP3    H246488   1.473   5.809   5.113 -0.2929 -0.9840  1.4852
 8333TIP3   OH246489   1.878   4.322   4.989 -0.2031 -0.0470  0.4708
 8333TIP3    H146490   1.973   4.334   4.988 -0.1225 -0.1158 -2.5929
 8333TIP3    H246491   1.865   4.239   5.035  1.5741 -1.6821 -1.7327
 8334TIP3   OH246492   0.961   5.457  12.085  0.1137 -0.5010  0.8957
 8334TIP3    H146493   0.920   5.435  12.001 -0.3022  0.7318  0.7611
 8334TIP3    H246494   1.054   5.438  12.072  0.0503 -0.3172  0.1557
 8335TIP3   OH246495   0.666   2.986   5.557  1.0113 -0.1193  0.0328
 8335TIP3    H146496   0.726   2.912   5.547  2.5879  1.0485  0.4510
 8335TIP3    H246497   0.655   2.995   5.652  0.9278  0.2516 -0.0113
 8336TIP3   OH246498   2.356   3.798  16.350  0.6810  0.0459  0.3737
 8336TIP3    H146499   2.347   3.871  16.411 -1.1461 -1.3789  1.9157
 8336TIP3    H246500   2.311   3.828  16.271 -0.5288  0.4253  1.1701
 8337TIP3   OH246501   3.338   4.227   3.882  0.5023  0.3420  0.2306
 8337TIP3    H146502   3.414   4.274   3.849  0.4914  0.0116 -0.2758
 8337TIP3    H246503   3.292   4.197   3.804 -0.1289  0.5073  0.5299
 8338TIP3   OH246504   4.529   0.899  14.747 -0.4122 -0.2745  0.1192
 8338TIP3    H146505   4.589   0.838  14.703 -0.9697  0.4942 -1.8165
 8338TIP3    H246506   4.444   0.882  14.707 -1.5594 -1.2399  2.7029
 8339TIP3   OH246507   4.100   3.106   2.849  0.0094 -0.2674 -0.3074
 8339TIP3    H146508   4.146   3.179   2.891  0.0068  0.2949 -1.2656
 8339TIP3    H246509   4.025   3.089   2.905 -0.5390  1.1233 -0.5880
 8340TIP3   OH246510   1.010   0.019  13.014 -0.0772 -0.0397 -0.1069
 8340TIP3    H146511   1.069  -0.027  12.954 -1.7244 -0.6183 -1.3308
 8340TIP3    H246512   1.009  -0.036  13.093 -1.3137 -1.6640 -1.2119
 8341TIP3   OH246513   0.563   4.746   1.957  0.0945 -0.6188 -0.6707
 8341TIP3    H146514   0.607   4.758   1.873  0.7318 -0.7535 -0.3631
 8341TIP3    H246515   0.505   4.670   1.943  1.1264 -1.4309 -0.6304
 8342TIP3   OH246516   6.023   3.666   3.966 -0.2778 -0.6343 -0.4749
 8342TIP3    H146517   5.960   3.615   4.017  0.1618 -0.3692  0.3422
 8342TIP3    H246518   6.092   3.604   3.944 -0.1139 -0.5679 -0.1356
 8343TIP3   OH246519   2.229   2.061  15.902  0.2878 -0.4534 -0.4876
 8343TIP3    H146520   2.275   1.979  15.884 -1.1644 -1.3268 -0.3916
 8343TIP3    H246521   2.287   2.129  15.867  2.5469 -1.2984  1.3304
 8344TIP3   OH246522   2.793   4.683   4.106  0.5632  0.4330 -0.5388
 8344TIP3    H146523   2.839   4.646   4.030  1.5812 -0.5482  0.5170
 8344TIP3    H246524   2.846   4.657   4.181 -1.2013  0.1153  0.6562
 8345TIP3   OH246525   3.977   5.466  13.207  0.7371 -0.7742  0.4068
 8345TIP3    H146526   3.983   5.417  13.289  1.2618 -0.0518  0.8048
 8345TIP3    H246527   3.885   5.493  13.202  0.4621 -1.6831  0.2366
 8346TIP3   OH246528   5.152   2.853   1.416  0.3300 -0.1558 -0.1327
 8346TIP3    H146529   5.201   2.910   1.356 -0.7345  1.4898  0.5013
 8346TIP3    H246530   5.060   2.867   1.392  0.0485 -2.8539 -1.0105
 8347TIP3   OH246531   1.842   0.368   2.928  0.5566 -0.4538 -0.5846
 8347TIP3    H146532   1.868   0.457   2.951 -1.5637  0.8798 -2.9042
 8347TIP3    H246533   1.924   0.326   2.902  1.5853  0.8189  0.4403
 8348TIP3   OH246534   0.947   0.136  11.015 -0.2024  0.3126 -0.2828
 8348TIP3    H146535   0.987   0.098  10.937 -1.5835  0.9235 -1.3323
 8348TIP3    H246536   1.015   0.130  11.082  0.0003 -3.1604 -0.5995
 8349TIP3   OH246537   2.876   5.818   2.766 -0.3439 -0.2702 -0.0357
 8349TIP3    H146538   2.796   5.860   2.734 -0.5048  0.1355  0.8882
 8349TIP3    H246539   2.909   5.876   2.835  0.7479 -0.4338 -0.3853
 8350TIP3   OH246540   1.363   5.971  13.816  0.5261  0.2645  0.1025
 8350TIP3    H146541   1.336   6.032  13.884  1.6343  1.7068 -0.6990
 8350TIP3    H246542   1.440   5.927  13.852 -1.1934 -1.9258  1.3290
 8351TIP3   OH246543   5.776   4.651  12.891  0.2536 -0.5637  0.0892
 8351TIP3    H146544   5.766   4.730  12.837 -0.5816  1.2690  2.7107
 8351TIP3    H246545   5.867   4.656  12.922  0.0307 -0.2877  0.7112
 8352TIP3   OH246546   0.532   4.824  14.066 -0.3412  0.2236 -0.6418
 8352TIP3    H146547   0.599   4.890  14.081 -1.3097  0.8520  1.3820
 8352TIP3    H246548   0.449   4.872  14.073 -1.0373 -0.8866 -0.9353
 8353TIP3   OH246549   5.850   3.850  12.407 -0.2988  0.1892 -0.2346
 8353TIP3    H146550   5.888   3.904  12.338 -0.3779 -0.2182 -0.6064
 8353TIP3    H246551   5.756   3.859  12.396 -0.3166  0.8255  0.3887
 8354TIP3   OH246552   5.754   0.279   5.361  0.0371  0.2535 -0.2529
 8354TIP3    H146553   5.768   0.193   5.402 -0.4691  0.2601 -0.0662
 8354TIP3    H246554   5.744   0.260   5.268 -0.7911  0.0312 -0.1251
 8355TIP3   OH246555   3.341   3.376  13.299  0.0523  0.4063 -0.2694
 8355TIP3    H146556   3.297   3.311  13.243 -0.6809  1.4607 -0.9546
 8355TIP3    H246557   3.402   3.420  13.240  0.8975  0.0280  0.3069
 8356TIP3   OH246558   4.444   2.053   6.174  0.6876  0.3852  0.0967
 8356TIP3    H146559   4.462   2.054   6.268 -1.9692  0.1854  0.6869
 8356TIP3    H246560   4.405   1.967   6.159  3.1126 -0.5086 -1.7011
 8357TIP3   OH246561   2.387   6.364   4.252  0.6868 -0.8489  0.5685
 8357TIP3    H146562   2.427   6.411   4.179 -1.8665  1.2650  0.3611
 8357TIP3    H246563   2.403   6.419   4.328  0.7110 -1.4946  1.0444
 8358TIP3   OH246564   5.606   2.170  12.161  0.5297  0.1315 -0.3815
 8358TIP3    H146565   5.697   2.201  12.162  0.4256  0.5016 -1.3464
 8358TIP3    H246566   5.613   2.075  12.174  0.8343  0.4893  3.1057
 8359TIP3   OH246567   3.895   5.263  16.375 -0.3781  0.2741 -0.0426
 8359TIP3    H146568   3.979   5.304  16.352 -0.6409  0.3069 -1.0088
 8359TIP3    H246569   3.857   5.321  16.441  0.5216  0.0567  0.6892
 8360TIP3   OH246570   5.773   6.584   2.304 -0.3794  0.2097 -0.0154
 8360TIP3    H146571   5.723   6.664   2.292 -1.0817 -0.1166  0.6556
 8360TIP3    H246572   5.710   6.513   2.288  0.1697 -0.2076 -0.3612
 8361TIP3   OH246573   4.763   4.260  16.090  0.3267  0.1168  0.4960
 8361TIP3    H146574   4.692   4.323  16.078 -0.0219  0.0031  1.7664
 8361TIP3    H246575   4.720   4.175  16.085  0.3003  0.0522  1.5484
 8362TIP3   OH246576   0.068   2.499  10.767  0.4649  0.0194 -0.5246
 8362TIP3    H146577   0.061   2.588  10.799 -1.4864  0.1888 -1.2373
 8362TIP3    H246578   0.128   2.504  10.693  0.9516  0.5921 -0.0923
 8363TIP3   OH246579   1.831   2.130  12.643  0.6489 -0.3382  0.1237
 8363TIP3    H146580   1.803   2.056  12.696  0.2596  0.4774  1.0947
 8363TIP3    H246581   1.881   2.186  12.703 -0.4144  0.9547 -0.1258
 8364TIP3   OH246582   6.569   1.567   0.819 -0.2887 -0.4960 -0.1289
 8364TIP3    H146583   6.555   1.661   0.822  0.9594 -0.2745 -0.8704
 8364TIP3    H246584   6.493   1.533   0.770 -2.1221 -0.2263  2.3360
 8365TIP3   OH246585   1.274   1.368   0.037 -0.3136  0.0381 -0.1090
 8365TIP3    H146586   1.356   1.395  -0.005 -0.5820  0.6406 -0.2624
 8365TIP3    H246587   1.206   1.391  -0.026 -0.8666  2.3748  1.2022
 8366TIP3   OH246588   1.699   3.060   0.355 -0.0850  0.0234 -0.2264
 8366TIP3    H146589   1.763   3.121   0.391 -1.8914  1.3543  0.8949
 8366TIP3    H246590   1.671   3.100   0.273 -2.2907  1.5416  1.1726
 8367TIP3   OH246591   5.184   3.535   7.121  0.0790 -0.4628 -0.0536
 8367TIP3    H146592   5.097   3.494   7.117  0.2426 -0.9381  0.8597
 8367TIP3    H246593   5.246   3.463   7.112  0.3774 -0.2007 -0.1220
 8368TIP3   OH246594   0.608   2.689   2.861 -0.1982 -0.2348 -0.0166
 8368TIP3    H146595   0.608   2.599   2.894  0.2546 -0.0163  0.6081
 8368TIP3    H246596   0.700   2.717   2.869 -0.3855  0.3699  0.0537
 8369TIP3   OH246597   1.197   0.349   0.033 -0.3337  0.0776 -0.4562
 8369TIP3    H146598   1.106   0.350   0.005 -0.4777  1.2595 -0.0065
 8369TIP3    H246599   1.196   0.391   0.119  0.3226 -1.9590  0.6115
 8370TIP3   OH246600   1.433   5.005   4.613  0.3202  0.0276 -0.9295
 8370TIP3    H146601   1.375   4.938   4.651  0.3456 -0.6030 -1.9761
 8370TIP3    H246602   1.444   5.068   4.684  1.6347 -1.8817  0.6932
 8371TIP3   OH246603   1.799   4.656   5.922  0.3848  0.2103 -0.0321
 8371TIP3    H146604   1.860   4.703   5.978  1.4225  3.3063 -3.3659
 8371TIP3    H246605   1.842   4.573   5.903  1.4696  0.4875  1.0952
 8372TIP3   OH246606   0.151   4.390   4.910 -0.1914 -0.2120  0.3975
 8372TIP3    H146607   0.163   4.296   4.920 -0.4041 -0.0581  2.9268
 8372TIP3    H246608   0.186   4.411   4.824 -0.6405 -2.6725 -0.4390
 8373TIP3   OH246609   0.943   6.222  17.017  0.5667  0.4449 -0.1618
 8373TIP3    H146610   0.934   6.189  17.106  0.4544  0.0641 -0.3132
 8373TIP3    H246611   0.995   6.302  17.026 -0.1486  0.8635  0.3439
 8374TIP3   OH246612   6.275   1.578  14.565  0.3510 -0.1932  0.1818
 8374TIP3    H146613   6.214   1.646  14.537  1.4073  0.1717 -1.3354
 8374TIP3    H246614   6.342   1.626  14.614  0.9537 -0.1634 -0.6577
 8375TIP3   OH246615   5.143   6.091  10.935 -0.1252  1.1403  0.1627
 8375TIP3    H146616   5.162   6.096  10.841 -0.4859  3.0212  0.1542
 8375TIP3    H246617   5.082   6.163  10.951 -0.1816  0.7631  1.8277
 8376TIP3   OH246618   2.122   4.679   4.944 -0.3694 -0.4727  0.1338
 8376TIP3    H146619   2.202   4.635   4.972  0.8539  0.5279 -1.5697
 8376TIP3    H246620   2.140   4.772   4.957 -0.3644 -0.0834 -2.1944
 8377TIP3   OH246621   5.127   1.912   4.966  0.3234  0.2862 -0.1330
 8377TIP3    H146622   5.087   1.958   4.892  3.2440  1.8231 -0.9459
 8377TIP3    H246623   5.162   1.832   4.927  0.6464  0.4173 -0.1146
 8378TIP3   OH246624   4.705   6.114  10.847  0.1532 -0.1496  0.5831
 8378TIP3    H146625   4.703   6.034  10.900  0.3010  0.7272  1.9541
 8378TIP3    H246626   4.618   6.119  10.808 -0.4868 -0.0219  1.9817
 8379TIP3   OH246627   6.312   3.795  16.960 -0.1558 -0.5413 -0.7423
 8379TIP3    H146628   6.332   3.702  16.967 -0.5180 -0.6085 -0.5401
 8379TIP3    H246629   6.273   3.818  17.045 -0.2598 -0.2574 -0.8623
 8380TIP3   OH246630   5.248   2.718   0.024  0.0048  0.1043 -0.1281
 8380TIP3    H146631   5.298   2.655  -0.028 -0.0151 -0.0635  0.0569
 8380TIP3    H246632   5.311   2.786   0.045 -0.0802  0.3671 -0.6956
 8381TIP3   OH246633   0.558   5.251  12.128 -0.5155 -0.3619  0.0655
 8381TIP3    H146634   0.511   5.265  12.210  0.1208 -0.7875  0.5184
 8381TIP3    H246635   0.603   5.167  12.140 -1.8134 -1.3354 -1.4081
 8382TIP3   OH246636   0.175   2.355   4.484 -0.0664  0.0552  0.4573
 8382TIP3    H146637   0.112   2.424   4.508  1.1607  0.8445  1.5782
 8382TIP3    H246638   0.243   2.401   4.435 -0.3680 -0.8025 -0.8066
 8383TIP3   OH246639   1.217   1.587   3.078  0.5498 -1.0446 -0.2824
 8383TIP3    H146640   1.181   1.514   3.028  2.4093 -1.9772 -0.3352
 8383TIP3    H246641   1.258   1.545   3.154  1.3666 -0.0388 -0.1470
 8384TIP3   OH246642   5.311   6.278   6.017 -0.0919  0.1084  0.5591
 8384TIP3    H146643   5.227   6.287   5.972  0.2719  0.9305  0.0178
 8384TIP3    H246644   5.307   6.343   6.087  0.2896  0.5043  0.2163
 8385TIP3   OH246645   0.572   1.769  13.066 -0.7569  0.4716  0.0798
 8385TIP3    H146646   0.524   1.696  13.107 -2.6953  1.7238  0.1894
 8385TIP3    H246647   0.652   1.777  13.118 -2.6049  1.2906  3.0487
 8386TIP3   OH246648   3.917   4.332  15.068 -0.6207  0.1842  0.0207
 8386TIP3    H146649   3.893   4.359  15.157 -0.8775  0.3857 -0.1088
 8386TIP3    H246650   3.922   4.414  15.019 -3.0224 -0.0844 -0.7887
 8387TIP3   OH246651   5.804   6.492   3.176  0.3565 -0.2938  0.1891
 8387TIP3    H146652   5.880   6.438   3.197 -0.5147 -1.5998  0.0892
 8387TIP3    H246653   5.749   6.436   3.121 -0.4515  0.7982 -0.1566
 8388TIP3   OH246654   6.149   3.293  12.018  0.0869 -0.0463  0.3212
 8388TIP3    H146655   6.097   3.216  11.994  1.3840 -0.7336 -0.4357
 8388TIP3    H246656   6.152   3.346  11.939  1.2685 -0.4772  0.0468
 8389TIP3   OH246657   5.129   3.502  13.369 -0.1094  0.3705 -0.3187
 8389TIP3    H146658   5.085   3.428  13.411 -0.4459  0.9951  0.4534
 8389TIP3    H246659   5.159   3.557  13.441 -1.3408  1.8345 -0.8559
 8390TIP3   OH246660   5.868   3.986   4.224  0.0367 -0.1856 -0.3497
 8390TIP3    H146661   5.828   4.057   4.274  1.7045  0.5867 -0.0427
 8390TIP3    H246662   5.959   3.982   4.256 -0.3203 -3.3524  0.6089
 8391TIP3   OH246663   5.768   5.601   2.305  0.4270 -0.1914 -0.3828
 8391TIP3    H146664   5.685   5.567   2.271  0.6314 -1.0832 -0.0033
 8391TIP3    H246665   5.816   5.523   2.334  1.7076  0.2444 -1.2754
 8392TIP3   OH246666   2.147   1.418   5.288 -0.3137  0.0763 -0.4925
 8392TIP3    H146667   2.133   1.392   5.380 -2.7860 -0.1851 -0.8849
 8392TIP3    H246668   2.234   1.458   5.288 -0.3648  0.3765  2.0330
 8393TIP3   OH246669   1.385   5.298   6.781  0.4145  0.0243  0.2654
 8393TIP3    H146670   1.466   5.319   6.828  2.1998 -0.2788 -2.4073
 8393TIP3    H246671   1.372   5.373   6.722 -1.3047  0.0671  0.6587
 8394TIP3   OH246672   4.286   5.097   3.015 -0.0017 -0.2449  0.6274
 8394TIP3    H146673   4.247   5.010   3.024  1.0429 -0.7583  0.3649
 8394TIP3    H246674   4.368   5.091   3.065  0.4624  0.3402 -0.0569
 8395TIP3   OH246675   2.678   6.550  17.428 -0.2897 -0.4354 -1.1551
 8395TIP3    H146676   2.688   6.482  17.494  0.1137  0.3454 -0.4065
 8395TIP3    H246677   2.728   6.518  17.353 -0.5100 -1.1877 -0.9876
 8396TIP3   OH246678   5.637   0.337   4.343 -0.9347  0.4680  0.1316
 8396TIP3    H146679   5.569   0.270   4.332 -1.0763  0.6654 -0.1819
 8396TIP3    H246680   5.696   0.299   4.409 -1.7320  0.6000  0.9446
 8397TIP3   OH246681   2.170   2.887   2.030 -0.1427 -0.1718 -0.6053
 8397TIP3    H146682   2.164   2.982   2.038 -1.1090 -0.1250 -1.6025
 8397TIP3    H246683   2.253   2.872   1.985 -0.4328  0.2777 -1.3168
 8398TIP3   OH246684   4.340   0.338   0.393  0.1360 -0.4361  0.8468
 8398TIP3    H146685   4.364   0.424   0.428 -2.2063  0.2123  1.0828
 8398TIP3    H246686   4.291   0.296   0.464 -0.3694 -1.1845  0.0845
 8399TIP3   OH246687   0.286   6.158  15.371  0.3938 -0.2559  0.5359
 8399TIP3    H146688   0.320   6.233  15.323  1.9999 -0.6495  1.0064
 8399TIP3    H246689   0.293   6.183  15.463 -0.5833 -0.3719  0.6523
 8400TIP3   OH246690   1.077   4.384  16.545 -0.2635 -0.1629  0.0789
 8400TIP3    H146691   1.094   4.345  16.631  3.5636  1.9940  0.5224
 8400TIP3    H246692   1.162   4.383  16.501 -0.8740  3.4738 -1.5647
 8401TIP3   OH246693   6.468   3.024  16.460  0.2645 -0.8301 -0.1655
 8401TIP3    H146694   6.403   3.065  16.402  0.3221 -0.1496  0.2362
 8401TIP3    H246695   6.421   3.011  16.542  1.1261  1.4456  0.7689
 8402TIP3   OH246696   3.142   4.364  11.535  0.0456 -0.0174  0.1197
 8402TIP3    H146697   3.128   4.458  11.526 -0.8246 -0.1896 -0.5201
 8402TIP3    H246698   3.233   4.355  11.561  1.3462  0.8293 -3.5506
 8403TIP3   OH246699   4.190   4.346  12.399 -0.1807  0.2056 -0.3553
 8403TIP3    H146700   4.188   4.250  12.398  1.4984  0.1496 -0.8699
 8403TIP3    H246701   4.108   4.371  12.356 -1.1265 -0.9687  0.6839
 8404TIP3   OH246702   5.911   6.482   0.050 -0.0952 -0.1177 -0.4366
 8404TIP3    H146703   5.849   6.414   0.078  0.8089 -0.9758 -0.4520
 8404TIP3    H246704   5.980   6.433   0.005 -0.8588  1.0535 -3.1175
 8405TIP3   OH246705   3.987   1.032  12.529 -0.2979 -0.5391  0.4844
 8405TIP3    H146706   3.931   1.024  12.452  0.7516  1.1932 -0.5048
 8405TIP3    H246707   4.041   1.109  12.512  1.7007 -1.5577  1.8401
 8406TIP3   OH246708   0.821   0.963  13.728 -0.1988  0.6361  0.2038
 8406TIP3    H146709   0.855   0.917  13.651 -0.5774  1.9890 -0.8227
 8406TIP3    H246710   0.892   0.959  13.792  0.6442  0.6389 -0.7133
 8407TIP3   OH246711   1.499   4.672  10.834  0.2378 -0.3792 -0.0491
 8407TIP3    H146712   1.516   4.755  10.879 -0.4880  0.4444 -1.2110
 8407TIP3    H246713   1.540   4.605  10.889 -1.1985  0.4636  2.1682
 8408TIP3   OH246714   2.053   0.934  16.028  0.3618 -0.3410 -0.6134
 8408TIP3    H146715   1.983   0.948  16.092  1.5619 -0.0054  0.6754
 8408TIP3    H246716   2.096   0.854  16.058 -0.7188 -1.7456 -2.6003
 8409TIP3   OH246717   1.180   4.760  16.645 -0.4518 -0.4176 -0.5895
 8409TIP3    H146718   1.245   4.770  16.714  0.1426 -0.7041 -1.0944
 8409TIP3    H246719   1.200   4.831  16.583 -0.3503 -0.7553 -0.9510
 8410TIP3   OH246720   2.527   3.046  14.922  0.2590 -0.1581  0.1682
 8410TIP3    H146721   2.438   3.080  14.929  0.5366  0.2725  2.8376
 8410TIP3    H246722   2.517   2.957  14.889 -1.4850 -1.0743  2.8094
 8411TIP3   OH246723   1.689   5.403  15.156 -0.6639 -0.7163  0.4781
 8411TIP3    H146724   1.617   5.380  15.098 -1.5392 -0.9623  1.6290
 8411TIP3    H246725   1.767   5.403  15.099 -1.5707 -0.3280 -0.8035
 8412TIP3   OH246726   5.669   6.388   3.508 -0.0081  0.2004  0.9047
 8412TIP3    H146727   5.676   6.482   3.489 -0.0750 -0.0233 -0.3108
 8412TIP3    H246728   5.660   6.384   3.603 -0.6950  1.4662  0.9242
 8413TIP3   OH246729   6.165   2.139   4.015  0.2167  0.0513 -0.0389
 8413TIP3    H146730   6.183   2.046   4.030 -0.3017  0.2510  2.1486
 8413TIP3    H246731   6.073   2.141   3.989  0.4885 -0.1039 -1.0584
 8414TIP3   OH246732   1.174   0.430   1.633 -0.2636 -0.1329 -0.2820
 8414TIP3    H146733   1.192   0.475   1.551 -0.5853 -1.0252 -0.8568
 8414TIP3    H246734   1.238   0.465   1.695 -0.2922  0.8582 -0.7898
 8415TIP3   OH246735   1.311   3.279   0.139  0.5219  0.3802  0.5649
 8415TIP3    H146736   1.235   3.238   0.180  0.3470  1.5101  1.4004
 8415TIP3    H246737   1.275   3.350   0.087  1.0081  0.9982  1.0621
 8416TIP3   OH246738   1.306   0.341   4.922 -0.0309  0.1018 -0.0383
 8416TIP3    H146739   1.294   0.420   4.974  0.4177  0.1496 -0.0041
 8416TIP3    H246740   1.241   0.348   4.852  0.6425  0.9744 -0.5936
 8417TIP3   OH246741   6.190   0.315   4.911 -0.4808  0.8137 -0.2171
 8417TIP3    H146742   6.159   0.345   4.825 -0.9104 -0.1215 -0.3965
 8417TIP3    H246743   6.146   0.232   4.925  1.9634 -0.6247 -0.4824
 8418TIP3   OH246744   5.428   4.796  17.081 -0.4097  0.0213  0.0203
 8418TIP3    H146745   5.485   4.765  17.011 -2.2776  1.6236 -2.3670
 8418TIP3    H246746   5.481   4.860  17.129  0.4256  0.0868 -0.9557
 8419TIP3   OH246747   2.904   3.411  12.321 -0.0222 -0.2477 -0.1252
 8419TIP3    H146748   2.823   3.449  12.285  0.3472  0.3758 -0.2987
 8419TIP3    H246749   2.965   3.484  12.326  0.3049 -0.5657  0.7058
 8420TIP3   OH246750   4.084   2.838  10.808  0.3579 -0.0604 -0.4479
 8420TIP3    H146751   4.064   2.932  10.801 -1.9084 -0.2545  1.9958
 8420TIP3    H246752   4.000   2.797  10.827  1.2045 -2.7211 -1.9510
 8421TIP3   OH246753   5.452   5.252   5.514 -0.6497 -0.5978  0.3790
 8421TIP3    H146754   5.451   5.304   5.594 -1.1967  0.7514 -0.4526
 8421TIP3    H246755   5.537   5.209   5.512 -0.0039  0.6422  0.8894
 8422TIP3   OH246756   1.430   2.943  16.461  0.1786  0.6173 -0.3245
 8422TIP3    H146757   1.364   2.983  16.404  2.5080  1.3802 -2.6832
 8422TIP3    H246758   1.432   2.851  16.434 -1.2127  0.1060  1.1467
 8423TIP3   OH246759   0.276   4.692  12.258 -0.3251 -0.0057  0.7563
 8423TIP3    H146760   0.371   4.690  12.261 -0.3635 -0.6985  2.3403
 8423TIP3    H246761   0.253   4.627  12.191  0.3057  0.4539  0.0758
 8424TIP3   OH246762   3.003   1.932   2.262 -0.3021  0.5304  0.4975
 8424TIP3    H146763   2.935   1.984   2.305 -0.6011  1.9488 -1.5754
 8424TIP3    H246764   3.064   1.912   2.333 -2.5887 -0.4331  2.3533
 8425TIP3   OH246765   1.339   1.933   5.173  0.0733  0.0457 -0.3432
 8425TIP3    H146766   1.381   1.952   5.257 -0.4002  0.4849 -0.2022
 8425TIP3    H246767   1.411   1.901   5.117  0.4872  0.2474  0.0671
 8426TIP3   OH246768   5.580   4.927   4.645  0.2605 -0.1057 -0.5606
 8426TIP3    H146769   5.527   4.973   4.710  0.3306 -3.6774  2.3282
 8426TIP3    H246770   5.668   4.926   4.682  0.7521 -0.5889 -1.6994
 8427TIP3   OH246771   3.525   5.270   2.866 -0.0943 -0.5039  0.0381
 8427TIP3    H146772   3.522   5.176   2.881  0.6341 -0.1529  2.9121
 8427TIP3    H246773   3.506   5.309   2.951 -0.5650  1.9820 -1.1052
 8428TIP3   OH246774   4.167   6.247  12.617  0.3798 -0.2939 -0.4106
 8428TIP3    H146775   4.099   6.307  12.647 -0.6331 -1.5043 -0.2290
 8428TIP3    H246776   4.155   6.242  12.522  0.4509 -0.2314 -0.4233
 8429TIP3   OH246777   0.924   0.591   0.103 -0.0066  0.0767 -0.2585
 8429TIP3    H146778   0.937   0.568   0.011 -1.4300 -0.8964 -0.2598
 8429TIP3    H246779   0.874   0.518   0.138  0.3393  0.5413  1.2506
 8430TIP3   OH246780   4.832   2.921  13.294 -0.3615  0.0890 -0.0221
 8430TIP3    H146781   4.762   2.913  13.229  1.9033  1.0342 -2.8027
 8430TIP3    H246782   4.825   3.011  13.326 -1.7950 -0.5284  1.5531
 8431TIP3   OH246783   1.573   4.639  11.689  0.1392 -0.4668  0.0414
 8431TIP3    H146784   1.513   4.700  11.647 -0.6493  0.3732  2.2623
 8431TIP3    H246785   1.519   4.563  11.710 -0.4803  0.5959  2.7374
 8432TIP3   OH246786   3.483   2.511   4.950 -0.1029 -0.1636 -0.3378
 8432TIP3    H146787   3.570   2.511   4.991  0.2835 -0.8230 -1.1137
 8432TIP3    H246788   3.488   2.579   4.883  0.3672 -1.2361 -1.4394
 8433TIP3   OH246789   5.379   1.826  15.525 -0.0153  0.1091 -0.1525
 8433TIP3    H146790   5.290   1.828  15.490  0.1492 -0.1861 -0.6053
 8433TIP3    H246791   5.424   1.760  15.472 -0.2577 -1.8023  1.8778
 8434TIP3   OH246792   5.723   3.250  13.288  0.0282 -0.4659 -0.3786
 8434TIP3    H146793   5.714   3.286  13.376 -0.4313 -0.1863 -0.5345
 8434TIP3    H246794   5.634   3.223  13.264 -0.1817  1.0544 -1.4267
 8435TIP3   OH246795   6.325   2.357  13.250  0.8435  0.1012 -0.4544
 8435TIP3    H146796   6.342   2.324  13.339 -1.6790  0.5047  0.2400
 8435TIP3    H246797   6.324   2.279  13.195 -0.2306 -0.4831  0.3511
 8436TIP3   OH246798   5.389   6.754  17.353  0.1670  0.2053  0.8916
 8436TIP3    H146799   5.469   6.748  17.406 -1.1815 -0.3109  3.0240
 8436TIP3    H246800   5.397   6.683  17.289  2.0645  1.1270  0.0347
 8437TIP3   OH246801   4.315   6.473  11.252  0.7619  0.4187 -0.4367
 8437TIP3    H146802   4.324   6.565  11.225  2.4400  0.0682 -1.1790
 8437TIP3    H246803   4.222   6.465  11.276  0.6843  2.4414  0.2090
 8438TIP3   OH246804   5.729   4.534   4.976 -0.0923 -0.0524 -0.2955
 8438TIP3    H146805   5.813   4.537   4.929  0.4744  1.2147  0.7458
 8438TIP3    H246806   5.708   4.441   4.981  1.2465 -0.3917 -0.5894
 8439TIP3   OH246807   5.432   2.659   4.741  0.0843 -0.1810 -0.1642
 8439TIP3    H146808   5.439   2.733   4.680  0.3694  0.3037  0.4446
 8439TIP3    H246809   5.409   2.699   4.825  2.4684 -0.4986  0.7232
 8440TIP3   OH246810   2.651   2.321   5.665  0.6303 -0.2262  0.1699
 8440TIP3    H146811   2.585   2.388   5.680  0.7538  0.2016 -1.1598
 8440TIP3    H246812   2.702   2.320   5.746 -0.2008  0.3268  0.7177
 8441TIP3   OH246813   4.199   1.175  16.134  0.4822  0.3474  0.2607
 8441TIP3    H146814   4.201   1.267  16.107  3.0107  0.4209  0.4601
 8441TIP3    H246815   4.185   1.127  16.052  0.9656  0.8531 -0.1322
 8442TIP3   OH246816   6.370   6.680  15.103 -0.0605  0.1279  0.5413
 8442TIP3    H146817   6.341   6.746  15.040  0.3317  1.2895  1.5442
 8442TIP3    H246818   6.318   6.698  15.181  1.2165  0.2992  1.3645
 8443TIP3   OH246819   0.174   3.618  17.187  0.3433 -0.2854  0.2957
 8443TIP3    H146820   0.180   3.542  17.128 -0.4035  0.2792 -0.5256
 8443TIP3    H246821   0.090   3.659  17.165  0.8415  0.9109  0.5666
 8444TIP3   OH246822   3.545   0.762   4.598 -0.0250 -0.2535 -0.2251
 8444TIP3    H146823   3.618   0.724   4.550 -0.8745 -0.5124 -1.3785
 8444TIP3    H246824   3.542   0.853   4.568  0.8170  0.2231  1.0689
 8445TIP3   OH246825   6.295   3.431   4.633  0.0413  0.5530  0.4763
 8445TIP3    H146826   6.270   3.505   4.578 -0.6952 -0.5507 -0.7384
 8445TIP3    H246827   6.390   3.432   4.634  0.0474  1.5890  0.6202
 8446TIP3   OH246828   3.832   5.639   5.471  0.4621 -0.1229  0.8519
 8446TIP3    H146829   3.781   5.560   5.492 -2.0199  1.1468 -0.0076
 8446TIP3    H246830   3.846   5.634   5.377  2.2423 -0.5390  1.0898
 8447TIP3   OH246831   4.767   2.966  12.454  0.0497 -0.1212  0.8316
 8447TIP3    H146832   4.861   2.969  12.474  0.5482 -0.1884 -1.2453
 8447TIP3    H246833   4.738   3.057  12.460  0.7555  0.2258 -0.4828
 8448TIP3   OH246834   6.279   0.887   3.847 -0.1923 -0.3358  0.1057
 8448TIP3    H146835   6.227   0.932   3.781 -0.5123 -1.4756 -0.4433
 8448TIP3    H246836   6.223   0.886   3.925  0.5257  1.7891  0.7247
 8449TIP3   OH246837   2.358   4.839   3.995  0.0723  0.3469 -0.3309
 8449TIP3    H146838   2.293   4.771   4.012  0.5235  0.2135  0.9353
 8449TIP3    H246839   2.442   4.797   4.012  0.3343  1.3608  1.0938
 8450TIP3   OH246840   1.533   5.987   2.265  0.2296 -0.1896 -0.7573
 8450TIP3    H146841   1.583   6.009   2.343 -0.6514  1.6615 -0.6497
 8450TIP3    H246842   1.596   5.996   2.193  0.6501 -0.3084 -0.4069
 8451TIP3   OH246843   6.724   6.291  11.845  0.1150  0.3033 -0.0443
 8451TIP3    H146844   6.741   6.384  11.858 -0.8304  0.3498  0.9480
 8451TIP3    H246845   6.659   6.269  11.911  0.1051 -0.9992 -0.4670
 8452TIP3   OH246846   5.375   3.125  14.099  0.1265  0.4755 -0.4794
 8452TIP3    H146847   5.337   3.190  14.038 -0.3805  2.5747  1.8914
 8452TIP3    H246848   5.334   3.145  14.183  0.9323 -2.1871  0.6394
 8453TIP3   OH246849   2.268   0.965  12.736 -0.2500 -0.2278 -0.4431
 8453TIP3    H146850   2.213   0.989  12.662  0.4303 -2.0757 -1.6023
 8453TIP3    H246851   2.274   0.870  12.733  0.2983 -0.3162  1.6417
 8454TIP3   OH246852   3.560   6.247   1.335 -0.4305 -0.0690 -0.4036
 8454TIP3    H146853   3.540   6.169   1.387  0.7501 -0.1341 -0.0204
 8454TIP3    H246854   3.534   6.320   1.390  0.0883 -0.1562 -0.0361
 8455TIP3   OH246855   2.790   4.457  15.696 -0.0004  0.4092  0.2654
 8455TIP3    H146856   2.870   4.453  15.644 -0.1328  0.2167  0.0712
 8455TIP3    H246857   2.799   4.536  15.749 -0.1851  0.9975 -0.5779
 8456TIP3   OH246858   0.099   2.451  16.139 -0.0241 -0.2435 -0.5724
 8456TIP3    H146859   0.159   2.503  16.087  0.4490 -0.0597  0.1453
 8456TIP3    H246860   0.012   2.470  16.103  0.0806  1.4081 -0.0301
 8457TIP3   OH246861   3.835   5.836   1.378 -0.4018  0.6337 -0.2208
 8457TIP3    H146862   3.792   5.768   1.326 -1.6547  1.2814 -0.0818
 8457TIP3    H246863   3.824   5.916   1.326  0.2900  0.8917  0.0201
 8458TIP3   OH246864   6.779   1.535   1.700  0.5306  0.1575 -0.0228
 8458TIP3    H146865   6.865   1.491   1.696  0.0821 -0.6190 -1.9299
 8458TIP3    H246866   6.800   1.628   1.692  1.2720  0.1148  1.0550
 8459TIP3   OH246867   0.700   1.592  11.632  0.1002 -0.2123  0.2067
 8459TIP3    H146868   0.633   1.556  11.573  1.7944 -1.5062 -1.0579
 8459TIP3    H246869   0.702   1.685  11.612 -2.2345  0.1204  1.2678
 8460TIP3   OH246870   4.411   0.687  16.611  0.3145  0.4646 -0.1315
 8460TIP3    H146871   4.330   0.644  16.640 -0.1239  0.3693 -1.4148
 8460TIP3    H246872   4.477   0.618  16.614  0.8080  0.9494  2.5862
 8461TIP3   OH246873   1.408   1.981  12.386  0.0497  0.1320  0.4124
 8461TIP3    H146874   1.394   2.018  12.299 -1.9336 -1.2738  0.0742
 8461TIP3    H246875   1.503   1.970  12.392  0.3961  2.0518 -0.7762
 8462TIP3   OH246876   0.244   1.266   3.905 -0.3426 -0.2779  0.2886
 8462TIP3    H146877   0.173   1.215   3.945 -0.1002 -1.2479 -0.4725
 8462TIP3    H246878   0.230   1.256   3.810  0.7507 -0.4196  0.1268
 8463TIP3   OH246879   3.213   5.839   5.599 -0.3037  0.1934  0.1752
 8463TIP3    H146880   3.228   5.746   5.581 -0.2477  0.6983 -3.1432
 8463TIP3    H246881   3.123   5.844   5.631 -1.3813 -0.8487 -2.3939
 8464TIP3   OH246882   2.668   1.623  17.156 -0.3678 -0.2153 -0.4136
 8464TIP3    H146883   2.636   1.704  17.196 -0.8224 -0.3036 -0.5895
 8464TIP3    H246884   2.623   1.554  17.204  2.0955 -0.5220  1.6458
 8465TIP3   OH246885   4.161   5.305  16.264  0.1371  0.1361  0.0762
 8465TIP3    H146886   4.229   5.239  16.248  0.3670  0.2717  0.4900
 8465TIP3    H246887   4.192   5.354  16.340 -0.8720 -0.4087  0.8571
 8466TIP3   OH246888   3.136   5.487  16.850  0.8474 -0.1509 -0.3135
 8466TIP3    H146889   3.161   5.554  16.787 -1.1340  1.8734  0.9214
 8466TIP3    H246890   3.047   5.464  16.827 -0.2237  1.2105  2.0890
 8467TIP3   OH246891   3.641   2.496  16.679 -0.1414 -0.0894  0.2948
 8467TIP3    H146892   3.593   2.547  16.613 -0.3606 -2.4164 -1.4829
 8467TIP3    H246893   3.577   2.480  16.748 -0.1428  1.7196  0.7689
 8468TIP3   OH246894   5.623   2.195  12.652 -0.2295 -0.5535 -0.5048
 8468TIP3    H146895   5.612   2.180  12.746 -1.7926  3.9066  0.2503
 8468TIP3    H246896   5.708   2.240  12.645 -0.2446 -0.6234 -1.2141
 8469TIP3   OH246897   3.679   1.382   1.482 -0.1353  0.5580 -0.9311
 8469TIP3    H146898   3.619   1.319   1.443 -0.4490  1.3794 -1.8269
 8469TIP3    H246899   3.653   1.388   1.573 -1.2851  0.7430 -1.2621
 8470TIP3   OH246900   4.920   3.075   0.393  0.4495 -0.2234 -0.0436
 8470TIP3    H146901   4.852   3.141   0.408  0.0639 -0.6129 -0.0559
 8470TIP3    H246902   4.957   3.098   0.308 -2.0947 -2.0597 -1.8189
 8471TIP3   OH246903   2.728   6.499  15.747  0.3213 -0.0217  0.3310
 8471TIP3    H146904   2.742   6.592  15.729  0.0771 -0.2669 -1.2629
 8471TIP3    H246905   2.806   6.456  15.711 -0.5779 -0.6227 -0.9497
 8472TIP3   OH246906   4.354   0.235  14.603  0.3749 -0.7315  0.0316
 8472TIP3    H146907   4.260   0.257  14.603  0.8533  1.8694  2.4439
 8472TIP3    H246908   4.376   0.227  14.510 -1.5502  2.1518 -0.8468
 8473TIP3   OH246909   5.645   0.687   3.299 -0.7688  0.8063 -0.6131
 8473TIP3    H146910   5.645   0.765   3.242  1.1478  1.5462  0.2965
 8473TIP3    H246911   5.716   0.633   3.265  0.3668  1.2297  0.9815
 8474TIP3   OH246912   5.774   0.729   4.120 -0.2968 -0.1659 -0.4319
 8474TIP3    H146913   5.679   0.715   4.114 -0.2890 -0.1252 -0.6830
 8474TIP3    H246914   5.810   0.641   4.132 -0.3533 -0.2020 -0.5228
 8475TIP3   OH246915   5.634   5.038   5.503  0.0931  0.7665  0.0110
 8475TIP3    H146916   5.613   4.992   5.422 -1.6943  2.1717 -0.3940
 8475TIP3    H246917   5.611   4.977   5.573 -0.1890  0.2578 -0.5228
 8476TIP3   OH246918   2.588   2.407   4.068  0.0394 -0.2819  0.5614
 8476TIP3    H146919   2.610   2.350   3.994  1.9479  1.5208 -0.3806
 8476TIP3    H246920   2.494   2.419   4.062  0.1682  0.0429 -1.8282
 8477TIP3   OH246921   3.084   3.667   6.571 -0.3931 -0.7489 -0.6481
 8477TIP3    H146922   3.054   3.597   6.513  1.3898 -0.9874 -1.3494
 8477TIP3    H246923   3.109   3.623   6.652 -2.5163 -0.4604  0.2316
 8478TIP3   OH246924   5.550   6.694   5.217  0.0464 -0.9529  0.6403
 8478TIP3    H146925   5.484   6.707   5.149  0.1366 -1.3694  0.4672
 8478TIP3    H246926   5.618   6.642   5.174  0.3874 -0.7068  0.8774
 8479TIP3   OH246927   2.971   0.415   5.572 -0.2600  0.4135 -0.2280
 8479TIP3    H146928   3.018   0.379   5.496  0.4268  0.3819  0.1993
 8479TIP3    H246929   3.023   0.491   5.598 -0.4855  0.4192  0.2182
 8480TIP3   OH246930   4.963   0.773  11.199 -0.0319 -0.7685 -0.4554
 8480TIP3    H146931   4.946   0.770  11.293 -2.2323  0.5571 -0.7557
 8480TIP3    H246932   4.993   0.862  11.183 -1.1505 -0.5202 -1.2172
 8481TIP3   OH246933   3.921   6.461  12.479 -0.3767  0.1291 -0.7581
 8481TIP3    H146934   3.983   6.398  12.443 -0.3133  0.6965 -1.6888
 8481TIP3    H246935   3.841   6.411  12.493  0.2434 -0.6014  0.4123
 8482TIP3   OH246936   2.905   2.698  15.896  0.1719 -0.7314 -0.0119
 8482TIP3    H146937   2.879   2.742  15.977  0.6040  0.9302 -0.7208
 8482TIP3    H246938   2.996   2.672  15.911  0.6347  0.6290 -0.3551
 8483TIP3   OH246939   3.424   4.319   4.263  0.4818 -0.3626 -0.0765
 8483TIP3    H146940   3.339   4.298   4.222  0.3760 -1.3670  0.6344
 8483TIP3    H246941   3.483   4.334   4.189  0.2310 -1.9135 -0.6257
 8484TIP3   OH246942   2.998   4.020  11.746  0.2757  0.0821  0.0700
 8484TIP3    H146943   2.936   4.073  11.697  0.9663  0.6586 -0.1933
 8484TIP3    H246944   2.960   4.014  11.834 -1.2216 -1.3782 -0.6191
 8485TIP3   OH246945   3.086   2.446  16.724 -0.0233  0.0081 -0.4415
 8485TIP3    H146946   3.073   2.540  16.741  2.1389  0.5551 -1.4705
 8485TIP3    H246947   3.006   2.419  16.678  0.1555  1.8749 -1.9818
 8486TIP3   OH246948   1.994   5.306   6.942  0.4253 -0.6952 -0.9126
 8486TIP3    H146949   1.950   5.239   6.890  0.5807 -0.4661 -1.3512
 8486TIP3    H246950   2.087   5.283   6.935  0.3465 -1.7022  0.7435
 8487TIP3   OH246951   5.398   2.805   6.076 -0.0789  0.1070 -0.3671
 8487TIP3    H146952   5.465   2.796   6.008 -0.1254 -1.2129 -0.2688
 8487TIP3    H246953   5.447   2.815   6.157  0.0446 -1.6993 -0.1863
 8488TIP3   OH246954   0.823   5.369   0.345  0.5462 -0.0240 -0.0159
 8488TIP3    H146955   0.778   5.429   0.285  1.1648  0.8295  0.3493
 8488TIP3    H246956   0.916   5.390   0.334  0.6486  0.5658  1.6438
 8489TIP3   OH246957   3.168   1.949   1.528 -0.2239  0.1950 -0.6392
 8489TIP3    H146958   3.106   1.957   1.455 -0.1057 -1.0445 -0.9041
 8489TIP3    H246959   3.116   1.970   1.606 -0.3067  1.7170 -1.0766
 8490TIP3   OH246960   3.534   1.345  11.281  0.3232 -0.2787 -0.0248
 8490TIP3    H146961   3.443   1.316  11.279 -0.3956  1.7765 -0.1491
 8490TIP3    H246962   3.538   1.415  11.215  1.8987 -0.0584  0.2545
 8491TIP3   OH246963   6.271   3.099   1.978 -0.4601 -0.5760 -0.3519
 8491TIP3    H146964   6.213   3.113   1.903 -0.7594  0.8519  0.1114
 8491TIP3    H246965   6.238   3.158   2.045  1.8541  0.7416 -0.2674
 8492TIP3   OH246966   6.608   5.247  12.148 -0.0008  0.0857  0.0289
 8492TIP3    H146967   6.636   5.212  12.064  1.2383  1.2237 -0.0554
 8492TIP3    H246968   6.569   5.172  12.193  1.3635 -1.0794 -0.6593
 8493TIP3   OH246969   5.904   0.063  16.050 -0.0990  0.2526  0.5717
 8493TIP3    H146970   5.955   0.142  16.070 -1.2230  0.9434  0.8030
 8493TIP3    H246971   5.930   0.041  15.960 -0.1378  1.1903  0.3151
 8494TIP3   OH246972   3.076   0.528   0.337 -0.5351 -0.3102  0.1866
 8494TIP3    H146973   3.130   0.516   0.259  2.3203  2.7660  1.4637
 8494TIP3    H246974   3.005   0.586   0.308  0.0335  0.1465 -0.3016
 8495TIP3   OH246975   2.100   5.524   0.778 -0.2353  0.3635  0.0989
 8495TIP3    H146976   2.024   5.467   0.766  0.8331 -1.1775  0.3179
 8495TIP3    H246977   2.090   5.558   0.867 -0.3158 -0.4179  0.3994
 8496TIP3   OH246978   6.524   2.430   2.272  1.0830 -0.6368 -0.1193
 8496TIP3    H146979   6.542   2.349   2.320  0.6054 -1.1434 -0.7960
 8496TIP3    H246980   6.604   2.446   2.222  1.6584 -0.0059  0.9563
 8497TIP3   OH246981   0.453   6.044  13.663  0.3023  0.4062 -0.2897
 8497TIP3    H146982   0.368   6.068  13.699  1.1981  2.2057  0.7296
 8497TIP3    H246983   0.494   5.989  13.730  0.2124  0.0528 -0.5174
 8498TIP3   OH246984   6.757   3.639   5.299  0.5147 -0.1430 -0.0762
 8498TIP3    H146985   6.691   3.708   5.306 -1.4699 -1.7771 -1.6777
 8498TIP3    H246986   6.793   3.649   5.211  0.2969 -1.0793 -0.2710
 8499TIP3   OH246987   6.531   6.565   4.213  0.8229  0.7369  0.2195
 8499TIP3    H146988   6.540   6.538   4.121  0.6185 -2.7512  1.0616
 8499TIP3    H246989   6.588   6.641   4.221  0.4514  1.5053 -2.8737
 8500TIP3   OH246990   1.025   2.842   6.037  0.0233  0.6272 -0.3721
 8500TIP3    H146991   1.083   2.868   6.108  1.6148 -2.6270 -0.3380
 8500TIP3    H246992   0.937   2.857   6.071  0.7768  0.8481  1.5882
 8501TIP3   OH246993   2.965   2.895   3.513 -0.0619  0.4588  0.3347
 8501TIP3    H146994   2.984   2.937   3.597 -2.1416 -0.4847  1.3602
 8501TIP3    H246995   2.964   2.801   3.534  1.9514 -0.0070 -1.3431
 8502TIP3   OH246996   0.974   0.056   0.301  0.2560 -0.2847  0.0686
 8502TIP3    H146997   0.958   0.138   0.348 -3.1046 -0.3587 -0.7021
 8502TIP3    H246998   0.994  -0.007   0.370 -1.0919  0.3814  1.1361
 8503TIP3   OH246999   6.724   4.564  11.610  0.2783  0.1136  0.0382
 8503TIP3    H147000   6.652   4.627  11.609  0.0676 -0.1266  0.1023
 8503TIP3    H247001   6.693   4.492  11.665  0.5322 -0.0322 -0.0068
 8504TIP3   OH247002   2.116   4.974   3.089 -0.1804 -0.3439 -0.1632
 8504TIP3    H147003   2.068   5.000   3.010  0.7961 -0.0417 -0.6662
 8504TIP3    H247004   2.173   5.048   3.109  3.3397 -2.2400 -2.1426
 8505TIP3   OH247005   2.459   1.632   2.071 -0.0726  0.2887  0.7279
 8505TIP3    H147006   2.387   1.568   2.074  0.5930 -0.6273 -1.3983
 8505TIP3    H247007   2.509   1.614   2.151  0.6543 -2.6068 -0.2626
 8506TIP3   OH247008   2.606   3.766   5.978  0.1877 -0.0144  0.2548
 8506TIP3    H147009   2.577   3.697   6.037  1.7083 -2.0326 -1.2104
 8506TIP3    H247010   2.701   3.765   5.985  0.4462 -0.4748 -2.2897
 8507TIP3   OH247011   1.172   4.005  14.777 -0.0714  0.4066 -0.2349
 8507TIP3    H147012   1.242   3.940  14.781  0.3684  0.8736 -0.2488
 8507TIP3    H247013   1.091   3.953  14.778  0.2636 -0.1184  0.1651
 8508TIP3   OH247014   6.664   1.618   3.492  0.0946  0.0247  0.0905
 8508TIP3    H147015   6.573   1.627   3.465 -0.0154 -0.6106  0.2224
 8508TIP3    H247016   6.715   1.657   3.421 -0.2809  0.4010  0.0281
 8509TIP3   OH247017   1.066   5.384   6.797 -0.3175 -0.2901  0.1379
 8509TIP3    H147018   1.110   5.304   6.828 -0.9493 -0.5096  0.4793
 8509TIP3    H247019   1.138   5.440   6.769  0.1031 -1.2698 -0.8177
 8510TIP3   OH247020   5.248   1.379   3.738  0.1927  0.1520  0.5825
 8510TIP3    H147021   5.176   1.436   3.713 -1.0504 -1.3673  0.5193
 8510TIP3    H247022   5.298   1.366   3.657 -1.3416 -1.3078 -0.2023
 8511TIP3   OH247023   0.884   2.007   2.978 -0.1838 -0.0498 -0.1551
 8511TIP3    H147024   0.965   1.965   3.007  1.2386  0.1810 -3.3136
 8511TIP3    H247025   0.816   1.967   3.031  1.8970 -0.6668  2.2685
 8512TIP3   OH247026   5.811   4.770  17.032 -0.7483  0.4018 -0.2717
 8512TIP3    H147027   5.753   4.762  16.957  2.7178 -1.3227 -3.0979
 8512TIP3    H247028   5.890   4.812  16.997  1.1716 -0.7375  2.3010
 8513TIP3   OH247029   4.104   0.471   2.992  0.5319  0.4637 -0.2665
 8513TIP3    H147030   4.024   0.525   2.987 -0.6424 -0.9182  2.0334
 8513TIP3    H247031   4.125   0.453   2.900  0.2871  3.7187 -1.1070
 8514TIP3   OH247032   3.864   5.850   2.188 -0.1960 -0.1472  0.1973
 8514TIP3    H147033   3.919   5.911   2.236  0.3047  0.4329 -1.0534
 8514TIP3    H247034   3.828   5.901   2.116  0.0839 -1.2678 -0.7788
 8515TIP3   OH247035   0.606   2.839  11.220 -0.3707  0.0137 -0.1180
 8515TIP3    H147036   0.618   2.932  11.202 -0.7048  0.6131  2.4077
 8515TIP3    H247037   0.687   2.798  11.190 -0.2332  1.0787 -1.3065
 8516TIP3   OH247038   5.643   6.657   1.534  0.1837  0.0508  0.5352
 8516TIP3    H147039   5.667   6.722   1.600 -1.9052  2.4201 -0.8435
 8516TIP3    H247040   5.694   6.681   1.456 -1.8131  1.2528 -0.5019
 8517TIP3   OH247041   5.539   4.498   5.449 -0.4062 -0.1968  0.1028
 8517TIP3    H147042   5.552   4.504   5.355  0.3632  1.6248  0.2977
 8517TIP3    H247043   5.450   4.462   5.458 -1.2119  1.3081 -1.3253
 8518TIP3   OH247044   1.594   3.967   0.679 -0.8235 -0.3705  0.4183
 8518TIP3    H147045   1.668   4.021   0.653  0.0396 -1.0146  1.4388
 8518TIP3    H247046   1.531   3.977   0.609  0.2919  0.0782 -0.5521
 8519TIP3   OH247047   1.473   1.778  15.857 -0.2546 -0.0463 -0.1345
 8519TIP3    H147048   1.532   1.745  15.789  0.3697  2.3915 -0.9104
 8519TIP3    H247049   1.385   1.762  15.823  0.0237 -0.4348 -0.6867
 8520TIP3   OH247050   2.059   2.455  11.240 -0.3491  0.3036 -0.0782
 8520TIP3    H147051   2.137   2.432  11.291  0.0886  1.2140 -0.3181
 8520TIP3    H247052   2.001   2.379  11.249  0.0620  0.1083  1.0918
 8521TIP3   OH247053   2.397   6.283  12.514  0.7016 -0.1299 -0.4812
 8521TIP3    H147054   2.479   6.331  12.520  0.7534 -0.3200  0.6227
 8521TIP3    H247055   2.396   6.249  12.425  1.7828 -0.0528 -0.5421
 8522TIP3   OH247056   4.363   5.828   0.836  0.9114  0.2272 -0.0613
 8522TIP3    H147057   4.387   5.886   0.764  1.1534 -0.0582 -0.2099
 8522TIP3    H247058   4.283   5.867   0.872  0.7858  0.3645 -0.4841
 8523TIP3   OH247059   2.371   1.821  14.323  0.5144  0.3277  0.0611
 8523TIP3    H147060   2.438   1.837  14.389 -0.5618  1.8833  0.8278
 8523TIP3    H247061   2.411   1.849  14.241  0.4628  2.3776  0.6747
 8524TIP3   OH247062   6.599   1.753   0.563 -0.0891  0.0852 -0.7393
 8524TIP3    H147063   6.593   1.847   0.577 -0.3322 -0.1805  1.3111
 8524TIP3    H247064   6.692   1.737   0.544  0.0842  0.6637 -0.3829
 8525TIP3   OH247065   6.625   0.695   0.173 -0.3606  0.4172 -0.4118
 8525TIP3    H147066   6.628   0.710   0.078 -1.7166  1.3772 -0.3260
 8525TIP3    H247067   6.571   0.617   0.184  0.5493 -0.2374 -0.4558
 8526TIP3   OH247068   1.548   6.716  13.581  0.0900  0.0415 -0.7257
 8526TIP3    H147069   1.547   6.782  13.511  0.9852  0.7510 -0.0975
 8526TIP3    H247070   1.509   6.761  13.656 -0.8739 -0.7167 -0.7576
 8527TIP3   OH247071   2.585   1.764  14.068  0.2074  0.1911 -0.2619
 8527TIP3    H147072   2.577   1.670  14.084  3.0221 -0.1718 -0.4619
 8527TIP3    H247073   2.661   1.772  14.011 -0.1980  2.5859 -0.5481
 8528TIP3   OH247074   0.554   5.028   6.616 -0.1497  0.9288 -0.0538
 8528TIP3    H147075   0.586   5.111   6.581  1.1461  1.4476  2.2261
 8528TIP3    H247076   0.610   5.009   6.690 -2.2504 -0.5329  1.2829
 8529TIP3   OH247077   1.051   1.829   3.139  0.6694  0.0318  0.2720
 8529TIP3    H147078   1.114   1.788   3.080 -0.9729  1.5726 -2.8550
 8529TIP3    H247079   1.017   1.757   3.192  1.6208 -1.6815 -1.3170
 8530TIP3   OH247080   2.341   3.784   6.447 -0.9572  0.1905 -0.5685
 8530TIP3    H147081   2.313   3.758   6.359 -0.3354  0.2772 -0.7976
 8530TIP3    H247082   2.273   3.750   6.504 -2.0950  1.3222 -1.1964
 8531TIP3   OH247083   6.547   6.332  11.142  0.2990  0.0308  0.1197
 8531TIP3    H147084   6.504   6.247  11.151 -0.6787  0.4332 -0.6169
 8531TIP3    H247085   6.600   6.323  11.063  5.0109 -1.8565  3.0469
 8532TIP3   OH247086   2.539   3.852   6.642  0.3645 -0.1534  0.3060
 8532TIP3    H147087   2.475   3.848   6.572  1.3706 -1.3534 -0.6045
 8532TIP3    H247088   2.579   3.939   6.634  0.0337 -0.0494 -0.2142
 8533TIP3   OH247089   1.233   2.448  12.282 -0.5908  0.0993  0.3087
 8533TIP3    H147090   1.262   2.392  12.355  1.2076  0.4597 -0.0770
 8533TIP3    H247091   1.296   2.520  12.282  0.0051 -0.3462 -2.1284
 8534TIP3   OH247092   4.521   3.126  17.104 -0.4884  0.1910 -0.2660
 8534TIP3    H147093   4.528   3.119  17.199  1.3634 -1.8505 -0.4959
 8534TIP3    H247094   4.471   3.049  17.077 -1.1457  0.8366 -0.9632
 8535TIP3   OH247095   4.785   3.565  16.394  0.5561 -0.5356  0.4986
 8535TIP3    H147096   4.737   3.566  16.477  0.8243  2.0155  0.6993
 8535TIP3    H247097   4.848   3.637  16.402 -0.3905  0.7690 -2.4493
 8536TIP3   OH247098   3.759   2.547  16.153 -0.8582 -0.2885 -0.0486
 8536TIP3    H147099   3.700   2.623  16.153 -1.1076 -0.4539  1.3023
 8536TIP3    H247100   3.718   2.486  16.214  0.6561 -0.4550  0.8545
 8537TIP3   OH247101   2.370   5.228  13.332  0.0358 -0.2652 -0.6409
 8537TIP3    H147102   2.354   5.298  13.395 -0.8225 -1.1799  0.1910
 8537TIP3    H247103   2.465   5.229  13.317  0.0923  0.7249 -0.2488
 8538TIP3   OH247104   6.242   1.347  16.327  0.0804 -1.0580 -0.4895
 8538TIP3    H147105   6.292   1.367  16.247  0.3068 -0.9919 -0.3333
 8538TIP3    H247106   6.211   1.257  16.313 -1.0120 -0.5744 -1.2218
 8539TIP3   OH247107   1.817   4.762   2.994 -0.3586  0.4856 -0.6008
 8539TIP3    H147108   1.864   4.726   3.070  1.4423  1.8356 -1.0237
 8539TIP3    H247109   1.762   4.689   2.964 -0.2493 -0.4495  1.2767
 8540TIP3   OH247110   4.314   6.455   3.298  0.1211 -1.2271 -0.5331
 8540TIP3    H147111   4.337   6.364   3.313 -0.7445 -1.3939 -0.1616
 8540TIP3    H247112   4.242   6.472   3.359 -0.0266 -0.4251 -0.9190
 8541TIP3   OH247113   4.916   6.091  16.134 -0.2011 -0.6412 -0.1662
 8541TIP3    H147114   4.822   6.080  16.118 -0.3945 -1.5186  1.4239
 8541TIP3    H247115   4.929   6.058  16.223  1.3514  0.9139  0.2275
 8542TIP3   OH247116   5.931   5.250  12.172  0.3878  0.9078 -0.5077
 8542TIP3    H147117   5.929   5.155  12.169 -1.4917  0.8775  0.3901
 8542TIP3    H247118   5.839   5.277  12.169  0.8407  2.6591 -0.0763
 8543TIP3   OH247119   0.050   0.607   4.885 -0.2005  0.1118  0.3129
 8543TIP3    H147120   0.048   0.526   4.834  0.7648 -0.9253  1.8263
 8543TIP3    H247121   0.107   0.666   4.837  0.1213 -0.5815 -0.1634
 8544TIP3   OH247122   5.442   2.574  16.158  0.9043 -0.1177 -0.0868
 8544TIP3    H147123   5.434   2.523  16.239 -0.6549  1.1355  0.6141
 8544TIP3    H247124   5.525   2.621  16.168  2.5594 -2.6510 -0.9040
 8545TIP3   OH247125   0.943   1.201  11.945 -0.1516  0.1570 -0.6540
 8545TIP3    H147126   0.960   1.262  11.873  1.1467 -0.3555 -0.8093
 8545TIP3    H247127   0.914   1.121  11.901 -0.9812  0.3578 -0.4963
 8546TIP3   OH247128   0.079   5.365  13.517  0.0442 -0.4191  0.1866
 8546TIP3    H147129  -0.008   5.340  13.486 -0.4294  1.0107  0.2803
 8546TIP3    H247130   0.125   5.396  13.439  0.4597 -1.1058  0.1493
 8547TIP3   OH247131   0.357   0.115  17.093 -0.0945 -0.3318  0.5251
 8547TIP3    H147132   0.424   0.180  17.072 -0.1609  0.1569  1.7496
 8547TIP3    H247133   0.398   0.031  17.073  0.4257  0.0254  0.0647
 8548TIP3   OH247134   2.622   2.558   0.227  0.3055  0.0898  0.4763
 8548TIP3    H147135   2.704   2.591   0.263  0.3114  0.9004 -0.2478
 8548TIP3    H247136   2.648   2.516   0.145  0.0253  0.1316  0.3668
 8549TIP3   OH247137   3.046   0.183  17.457  0.4943 -0.2677 -0.6806
 8549TIP3    H147138   3.090   0.142  17.531  0.2961 -0.1215 -0.4810
 8549TIP3    H247139   2.986   0.246  17.496 -0.5438 -1.0879 -0.9040
 8550TIP3   OH247140   0.156   2.899   4.671 -0.6273  0.1677  0.2301
 8550TIP3    H147141   0.214   2.828   4.643 -2.1409 -1.4142  0.9155
 8550TIP3    H247142   0.213   2.958   4.721  1.2186  0.8819 -2.4888
 8551TIP3   OH247143   1.154   3.409   2.500 -0.0100  0.0534  0.0209
 8551TIP3    H147144   1.128   3.397   2.591  0.2485  0.8737  0.2123
 8551TIP3    H247145   1.248   3.387   2.499  0.6492  2.5622  0.5251
 8552TIP3   OH247146   0.505   1.849  14.839 -0.1010 -0.0098  0.3460
 8552TIP3    H147147   0.576   1.787  14.856  0.4441  0.9411  1.7902
 8552TIP3    H247148   0.432   1.795  14.808  1.3693 -0.9684 -1.6793
 8553TIP3   OH247149   1.476   3.894   4.199  0.1871  0.4128 -0.1680
 8553TIP3    H147150   1.453   3.956   4.130 -0.0256 -0.7249 -1.1604
 8553TIP3    H247151   1.482   3.947   4.278  0.7957  1.8311 -1.1138
 8554TIP3   OH247152   6.214   0.059   3.559 -0.3621 -0.3316  0.5899
 8554TIP3    H147153   6.171   0.121   3.618 -1.4025  0.4406 -0.8831
 8554TIP3    H247154   6.286   0.110   3.520 -0.0024 -0.6721  0.8038
 8555TIP3   OH247155   4.068   5.679  17.313  0.4515  0.4540  0.4149
 8555TIP3    H147156   3.987   5.629  17.318 -0.5131  2.0404  1.4146
 8555TIP3    H247157   4.126   5.637  17.377  0.1879 -0.2436  0.2097
 8556TIP3   OH247158   6.588   3.593   4.838  0.4109  0.1791  0.4280
 8556TIP3    H147159   6.558   3.539   4.764  0.2352  1.0129 -0.1182
 8556TIP3    H247160   6.657   3.541   4.879 -0.3594 -0.8610  0.4532
 8557TIP3   OH247161   1.605   6.619   2.243 -0.2423 -0.0864  0.0116
 8557TIP3    H147162   1.532   6.666   2.203 -3.4913 -0.7141  4.4146
 8557TIP3    H247163   1.675   6.683   2.248 -1.0814  1.1689 -2.6887
 8558TIP3   OH247164   2.381   3.137  10.988  0.0652  0.2373 -0.1964
 8558TIP3    H147165   2.337   3.190  10.921 -0.2064  0.5196  0.2047
 8558TIP3    H247166   2.360   3.046  10.963 -0.8696  0.3678  0.0595
 8559TIP3   OH247167   2.981   6.626  15.868  0.1176  0.3269  0.0963
 8559TIP3    H147168   2.968   6.545  15.818 -0.0278  0.3011  0.1752
 8559TIP3    H247169   3.032   6.682  15.810 -0.0575  0.2990 -0.0867
 8560TIP3   OH247170   3.203   1.700   5.134  0.1092  0.2718  0.0441
 8560TIP3    H147171   3.204   1.693   5.230  2.2597  0.9377  0.1211
 8560TIP3    H247172   3.276   1.758   5.114 -1.7319  2.0463 -1.9010
 8561TIP3   OH247173   6.737   5.808   5.036  0.3318 -0.0949 -0.1491
 8561TIP3    H147174   6.679   5.878   5.066  0.5925  1.3213 -2.6184
 8561TIP3    H247175   6.825   5.843   5.052  0.5088  1.2417 -3.3074
 8562TIP3   OH247176   2.591   5.868   5.372  0.0164  0.0689  0.1771
 8562TIP3    H147177   2.608   5.775   5.363 -0.7783 -0.0286 -0.4775
 8562TIP3    H247178   2.675   5.910   5.354  0.5199 -0.5370  1.0753
 8563TIP3   OH247179   1.372   4.404  15.325  0.0978 -0.1052  0.8744
 8563TIP3    H147180   1.282   4.372  15.331  0.2632 -0.3584  2.4530
 8563TIP3    H247181   1.389   4.444  15.410  1.0072  1.2766  0.0981
 8564TIP3   OH247182   4.230   5.655  16.955 -0.0445 -0.0690  0.6918
 8564TIP3    H147183   4.227   5.715  17.029 -0.1956  0.7688  0.0309
 8564TIP3    H247184   4.312   5.677  16.909 -0.9326  0.8763 -0.5298
 8565TIP3   OH247185   1.795   5.065   5.930  0.4107 -0.3916  0.5216
 8565TIP3    H147186   1.872   5.065   5.874 -1.0572  0.9050 -1.6157
 8565TIP3    H247187   1.739   4.996   5.894 -0.7682  0.7914  0.0112
 8566TIP3   OH247188   2.689   4.818   3.159  0.2324 -0.3922  0.1245
 8566TIP3    H147189   2.680   4.804   3.254 -1.0019  0.1607  0.1004
 8566TIP3    H247190   2.665   4.735   3.119  0.7187 -0.6149  0.2795
 8567TIP3   OH247191   2.282   4.515  13.356 -0.1043  0.1656 -0.1743
 8567TIP3    H147192   2.375   4.534  13.347 -0.4768  1.4347 -2.0529
 8567TIP3    H247193   2.269   4.500  13.450  1.4925  2.7226  0.5461
 8568TIP3   OH247194   6.264   2.069   1.251  0.0990  0.1836  0.0716
 8568TIP3    H147195   6.169   2.059   1.255  0.1272  0.1724  1.1759
 8568TIP3    H247196   6.298   1.995   1.302  0.6963  0.1824 -0.3252
 8569TIP3   OH247197   2.081   6.685  17.484  0.1188  0.7050  0.7515
 8569TIP3    H147198   2.140   6.754  17.515  1.0232  0.2224  0.1175
 8569TIP3    H247199   2.087   6.616  17.550  1.5319 -0.0359 -0.1102
 8570TIP3   OH247200   5.228   3.499  12.739  0.2529  0.1496  0.4433
 8570TIP3    H147201   5.172   3.501  12.661  0.3659 -0.9562  0.3098
 8570TIP3    H247202   5.168   3.491  12.812 -0.0182  3.5577  0.7464
 8571TIP3   OH247203   0.984   6.474   6.643 -0.1495 -0.2930 -0.1600
 8571TIP3    H147204   1.053   6.488   6.577  1.0664 -0.6222  0.9996
 8571TIP3    H247205   0.929   6.552   6.637  0.9630  0.5026 -0.3726
 8572TIP3   OH247206   1.936   1.717   3.096  0.1499  0.3173 -0.8191
 8572TIP3    H147207   1.922   1.741   3.004  1.6273 -0.7646 -1.3481
 8572TIP3    H247208   1.851   1.734   3.137 -0.6388  0.5471 -2.4342
 8573TIP3   OH247209   5.138   2.897   6.165  0.1737 -0.5419 -0.5496
 8573TIP3    H147210   5.096   2.816   6.194  0.1188 -1.0066 -1.8866
 8573TIP3    H247211   5.227   2.872   6.141  0.3121 -0.1074 -0.5122
 8574TIP3   OH247212   5.246   2.074   5.164 -0.4051  0.2373  0.0958
 8574TIP3    H147213   5.340   2.059   5.155 -0.5637 -2.7519  2.0814
 8574TIP3    H247214   5.207   2.027   5.090 -0.4023  1.6554 -0.8519
 8575TIP3   OH247215   3.061   4.450   7.172 -0.2197  0.1244 -0.7529
 8575TIP3    H147216   3.027   4.492   7.093  0.3353 -0.3256 -1.2394
 8575TIP3    H247217   3.124   4.386   7.140  0.1638  0.0774  0.0720
 8576TIP3   OH247218   4.110   2.686  17.043  0.1594 -0.4384 -0.3091
 8576TIP3    H147219   4.067   2.761  17.002  0.1570 -0.1333  0.2356
 8576TIP3    H247220   4.203   2.705  17.039  0.1455 -0.2773  0.0617
 8577TIP3   OH247221   5.991   5.260   0.886 -0.0703 -0.4014 -0.0872
 8577TIP3    H147222   6.064   5.320   0.904 -0.3256  0.1892 -0.9567
 8577TIP3    H247223   6.023   5.175   0.917  1.2014 -0.2592 -0.9076
 8578TIP3   OH247224   1.012   2.379   4.269 -0.1308 -0.1374  0.3377
 8578TIP3    H147225   0.953   2.331   4.211  2.0589 -3.1911  0.4080
 8578TIP3    H247226   0.955   2.438   4.318 -2.3767  0.9530 -3.1708
 8579TIP3   OH247227   4.990   6.181   5.575  0.0179  0.1535  0.0021
 8579TIP3    H147228   4.941   6.263   5.580 -0.0353  0.1199  0.0475
 8579TIP3    H247229   4.990   6.148   5.665  0.2201  0.2076  0.0224
 8580TIP3   OH247230   2.094   4.022  11.523  0.5273  0.4212  0.5711
 8580TIP3    H147231   2.036   4.048  11.595  0.8947  0.4272  0.8680
 8580TIP3    H247232   2.182   4.042  11.555  0.8612 -1.5043  0.9485
 8581TIP3   OH247233   5.833   4.326   2.074 -0.2938 -0.4278  0.0262
 8581TIP3    H147234   5.829   4.294   2.165 -0.8628  0.3325  0.2783
 8581TIP3    H247235   5.742   4.326   2.045 -0.2962  0.7649 -0.0252
 8582TIP3   OH247236   3.651   4.380  17.370  0.4777 -0.5008  0.5578
 8582TIP3    H147237   3.582   4.445  17.375  1.0147  0.1679 -0.3646
 8582TIP3    H247238   3.612   4.299  17.404 -1.1612 -0.4701 -1.1014
 8583TIP3   OH247239   3.973   1.396  16.525 -0.7179  0.0339  0.0585
 8583TIP3    H147240   3.987   1.307  16.558 -3.4334 -0.1285  1.0401
 8583TIP3    H247241   3.882   1.397  16.495 -0.7429  2.4439 -0.0294
 8584TIP3   OH247242   6.098   3.703  15.440 -0.0737  0.1841  0.2967
 8584TIP3    H147243   6.057   3.711  15.354 -0.2058 -1.7122  0.1370
 8584TIP3    H247244   6.190   3.686  15.421 -0.0512  0.0294  0.5447
 8585TIP3   OH247245   0.014   3.785   4.560  0.1507  0.2801 -0.0855
 8585TIP3    H147246   0.033   3.694   4.585  1.0851  0.1434 -1.1833
 8585TIP3    H247247  -0.062   3.809   4.612 -0.6977 -1.4530 -0.4602
 8586TIP3   OH247248   6.677   4.118  12.158 -0.1290 -0.3923  0.3210
 8586TIP3    H147249   6.586   4.133  12.182  0.0624  0.6172  0.4670
 8586TIP3    H247250   6.687   4.161  12.073  0.5004  0.5396  0.8508
 8587TIP3   OH247251   1.607   3.548   1.913 -0.1350  0.2992 -0.1888
 8587TIP3    H147252   1.643   3.514   1.995 -0.1848 -1.6868 -0.9525
 8587TIP3    H247253   1.623   3.643   1.918  0.4553  0.1461  1.7987
 8588TIP3   OH247254   1.638   0.870  11.728 -0.0408 -0.4046 -0.3654
 8588TIP3    H147255   1.701   0.799  11.740  0.5482  0.1629 -0.0382
 8588TIP3    H247256   1.646   0.895  11.636 -0.6703 -1.1435 -0.6307
 8589TIP3   OH247257   0.342   0.845   3.780 -0.8633 -1.3321 -0.0295
 8589TIP3    H147258   0.277   0.906   3.746  0.2925 -0.7553 -1.2689
 8589TIP3    H247259   0.417   0.855   3.722  0.6405 -1.4041  1.8284
 8590TIP3   OH247260   6.751   1.033  12.566 -0.4682  0.1399  0.3545
 8590TIP3    H147261   6.677   1.029  12.627 -0.3639 -0.9036  0.4227
 8590TIP3    H247262   6.817   0.976  12.605  0.4048  1.0973  0.3192
 8591TIP3   OH247263   1.183   4.419   4.208 -0.7534 -0.8032 -0.3397
 8591TIP3    H147264   1.164   4.332   4.244  1.1921 -1.3704 -0.5572
 8591TIP3    H247265   1.244   4.402   4.136 -1.5615  0.6319 -1.4126
 8592TIP3   OH247266   3.130   5.115  12.914 -0.6569 -0.3144  0.4304
 8592TIP3    H147267   3.197   5.049  12.930 -0.7487 -0.4389  0.2926
 8592TIP3    H247268   3.157   5.158  12.833 -0.9875 -0.6648  0.1338
 8593TIP3   OH247269   3.709   2.642   3.960  0.1219  0.6016  0.0480
 8593TIP3    H147270   3.676   2.726   3.991  0.0986  0.4092  0.5717
 8593TIP3    H247271   3.805   2.651   3.962  0.1333  0.4181  0.7051
 8594TIP3   OH247272   2.865   3.463  12.840 -0.3476  0.5700 -0.1449
 8594TIP3    H147273   2.784   3.448  12.791 -1.2858  0.0224  1.5199
 8594TIP3    H247274   2.918   3.385  12.822 -0.3140  0.7746 -0.9688
 8595TIP3   OH247275   2.087   2.690  11.842 -0.1271  0.4466 -0.1734
 8595TIP3    H147276   2.151   2.760  11.856  1.2351 -0.6559 -0.5452
 8595TIP3    H247277   2.087   2.677  11.748 -1.3894  0.8323 -0.2395
 8596TIP3   OH247278   5.295   2.094  13.213 -0.3575  0.5447  0.0783
 8596TIP3    H147279   5.338   2.082  13.298  0.8950  1.1085 -0.4436
 8596TIP3    H247280   5.322   2.181  13.185 -0.1669  0.0929 -1.2108
 8597TIP3   OH247281   6.472   1.728  14.681 -0.6159 -0.0549  0.2632
 8597TIP3    H147282   6.551   1.748  14.630  0.5281  0.6932  2.2066
 8597TIP3    H247283   6.433   1.813  14.700  0.8711  0.0829  3.3924
 8598TIP3   OH247284   3.372   6.194  10.694 -0.2043  0.2583  0.7428
 8598TIP3    H147285   3.426   6.116  10.703 -1.6626 -1.0379 -0.8001
 8598TIP3    H247286   3.393   6.228  10.607  0.4161  1.6227  1.3980
 8599TIP3   OH247287   4.358   4.629  13.095  0.0297 -0.1982 -0.3764
 8599TIP3    H147288   4.412   4.588  13.162 -1.0386 -0.5638  0.2781
 8599TIP3    H247289   4.413   4.700  13.061  1.9457 -2.0838 -1.5508
 8600TIP3   OH247290   4.392   6.016  11.215 -0.2530  0.5830 -0.1140
 8600TIP3    H147291   4.413   6.085  11.279 -0.9611  0.2201  0.5300
 8600TIP3    H247292   4.406   6.057  11.130  0.1775  1.2487  0.2664
 8601TIP3   OH247293   1.887   4.539   4.402  0.1718  0.3567 -0.2970
 8601TIP3    H147294   1.796   4.512   4.414 -0.1792  1.7975  0.5636
 8601TIP3    H247295   1.883   4.635   4.401  1.9499  0.5668  2.4008
 8602TIP3   OH247296   1.714   1.396  13.933 -0.4709  0.1497  0.0470
 8602TIP3    H147297   1.715   1.301  13.926  0.5495  0.2720 -2.3056
 8602TIP3    H247298   1.783   1.416  13.995 -1.7762 -0.6471  1.8646
 8603TIP3   OH247299   0.234   2.287   5.930 -0.2679  0.4459 -0.2615
 8603TIP3    H147300   0.191   2.208   5.897  1.3479 -0.7916  0.4076
 8603TIP3    H247301   0.296   2.254   5.996  2.3037  1.9861 -1.7526
 8604TIP3   OH247302   5.136   2.694  14.465 -0.6168 -0.3801 -0.7401
 8604TIP3    H147303   5.114   2.674  14.556  2.1338  2.7714  0.8386
 8604TIP3    H247304   5.059   2.740  14.430 -1.1638 -0.3469  0.4867
 8605TIP3   OH247305   1.316   3.249  16.955 -0.1807 -0.1162  0.1086
 8605TIP3    H147306   1.308   3.154  16.965 -0.4628  0.1306  2.9213
 8605TIP3    H247307   1.410   3.266  16.959  0.0740 -0.3843 -2.6565
 8606TIP3   OH247308   4.256   6.627  17.168  0.0720  0.2856  0.5386
 8606TIP3    H147309   4.314   6.645  17.241  2.4754  0.4851 -1.2815
 8606TIP3    H247310   4.184   6.690  17.178  0.4790  0.4944  2.5170
 8607TIP3   OH247311   2.656   3.726  16.401 -0.0463 -0.4665  0.0066
 8607TIP3    H147312   2.657   3.632  16.419 -0.0322 -0.7454 -1.3385
 8607TIP3    H247313   2.564   3.748  16.390 -0.0418 -0.3445  0.2113
 8608TIP3   OH247314   5.814   3.379   5.876  0.0401  0.5497  0.1605
 8608TIP3    H147315   5.782   3.357   5.963  1.1599 -0.8303  0.2424
 8608TIP3    H247316   5.898   3.422   5.891  0.7518 -0.6487 -0.2579
 8609TIP3   OH247317   0.499   1.368   4.055 -0.4379 -0.8031 -0.1831
 8609TIP3    H147318   0.416   1.416   4.060  0.0381  0.0769 -0.5578
 8609TIP3    H247319   0.538   1.378   4.142  0.0315  0.2022 -0.4889
 8610TIP3   OH247320   4.041   0.058   1.676  0.3064  0.5924 -0.3233
 8610TIP3    H147321   4.125   0.023   1.707 -0.3145 -0.9043 -0.2340
 8610TIP3    H247322   3.984  -0.019   1.671 -0.6531  1.3525 -1.7407
 8611TIP3   OH247323   6.526   4.838  15.244 -0.4705 -0.2030 -0.2727
 8611TIP3    H147324   6.617   4.823  15.267 -0.8088 -0.8414  0.7062
 8611TIP3    H247325   6.492   4.892  15.315 -0.7568  0.3742 -0.8396
 8612TIP3   OH247326   0.674   1.898  11.611  0.4733  0.2075 -0.0291
 8612TIP3    H147327   0.617   1.971  11.585  2.3856  1.0663 -2.1918
 8612TIP3    H247328   0.720   1.930  11.688 -1.1407 -0.0928  1.1052
 8613TIP3   OH247329   1.566   2.578  16.901  0.6028  0.1819 -0.1286
 8613TIP3    H147330   1.514   2.548  16.827  0.2180 -1.0961  0.6412
 8613TIP3    H247331   1.653   2.594  16.864  0.1175  0.7063 -1.0804
 8614TIP3   OH247332   1.205   3.518   4.063 -0.5266  0.1117  0.1630
 8614TIP3    H147333   1.214   3.571   3.984 -0.8073 -0.2152 -0.0937
 8614TIP3    H247334   1.247   3.569   4.132  1.6224 -0.5237 -0.6024
 8615TIP3   OH247335   6.157   5.316  15.949 -0.5373  0.4663 -0.5900
 8615TIP3    H147336   6.233   5.368  15.972 -1.7730  2.6441 -1.1683
 8615TIP3    H247337   6.136   5.267  16.029  1.2945 -0.0394 -0.3731
 8616TIP3   OH247338   6.668   2.962  12.869 -0.0679 -0.3136  0.4592
 8616TIP3    H147339   6.646   2.968  12.962  0.0018 -0.1024  0.4648
 8616TIP3    H247340   6.688   3.052  12.844 -1.0603 -0.2040 -0.0043
 8617TIP3   OH247341   3.467   6.151   1.092 -0.3086  0.3147 -0.1273
 8617TIP3    H147342   3.549   6.107   1.112  0.4545  2.4611  2.0142
 8617TIP3    H247343   3.467   6.229   1.148 -2.5280  1.8909 -2.0832
 8618TIP3   OH247344   2.091   3.920   2.692 -0.3356  0.4456  0.2542
 8618TIP3    H147345   2.117   3.957   2.608  0.7666  2.0374  1.2423
 8618TIP3    H247346   2.084   3.995   2.750 -0.0529 -0.7122  1.8480
 8619TIP3   OH247347   0.760   4.590   2.062  0.2132  0.5681 -0.3707
 8619TIP3    H147348   0.698   4.523   2.032 -0.2326  1.0334 -0.4940
 8619TIP3    H247349   0.715   4.673   2.046  0.2488  0.8544  0.9477
 8620TIP3   OH247350   4.780   2.457   3.907 -0.1775 -0.4175  0.5163
 8620TIP3    H147351   4.738   2.484   3.989 -0.3265  3.0440 -0.5415
 8620TIP3    H247352   4.714   2.473   3.839  1.5161  1.6392 -0.7650
 8621TIP3   OH247353   0.435   4.169   1.743  0.1587  0.5139 -0.1418
 8621TIP3    H147354   0.442   4.080   1.779  2.3864  0.0062 -1.6440
 8621TIP3    H247355   0.520   4.209   1.761  0.2312  1.3192 -2.0290
 8622TIP3   OH247356   4.895   6.014  16.839  0.0473  0.2919 -0.2584
 8622TIP3    H147357   4.935   6.013  16.752 -2.3374 -3.8157 -1.5521
 8622TIP3    H247358   4.806   6.047  16.825  0.1606  1.2446  1.0229
 8623TIP3   OH247359   4.029   0.436   2.489  0.7018 -0.3419  0.5474
 8623TIP3    H147360   4.060   0.463   2.402 -1.2058  1.0376  0.2165
 8623TIP3    H247361   4.002   0.345   2.477 -0.1809  0.0245 -0.5516
 8624TIP3   OH247362   4.717   5.708   5.028  0.2681 -0.0406 -0.8760
 8624TIP3    H147363   4.667   5.785   5.001 -0.3919 -0.0724  0.2004
 8624TIP3    H247364   4.790   5.704   4.966 -0.7933  0.2796 -2.2104
 8625TIP3   OH247365   5.046   0.125  15.360  0.5075  0.3182 -0.2726
 8625TIP3    H147366   5.070   0.143  15.269  0.2385 -0.9630 -0.6256
 8625TIP3    H247367   5.126   0.140  15.410  0.0517  3.4884 -0.3170
 8626TIP3   OH247368   5.453   3.701  13.696 -0.1396  0.0256  0.1585
 8626TIP3    H147369   5.459   3.687  13.790 -0.7230 -1.3711 -0.0006
 8626TIP3    H247370   5.441   3.796  13.687 -0.3268  0.1442  1.4917
 8627TIP3   OH247371   5.520   2.771   5.554  0.2001  0.1314 -0.1657
 8627TIP3    H147372   5.607   2.752   5.519 -0.2185 -1.9744 -0.1978
 8627TIP3    H247373   5.503   2.861   5.526  1.7484  0.0838 -1.4483
 8628TIP3   OH247374   4.271   1.593   6.184  0.0715 -0.2542  0.3462
 8628TIP3    H147375   4.245   1.678   6.219 -0.8532 -0.1789 -0.4733
 8628TIP3    H247376   4.360   1.606   6.152 -0.3635  0.6650 -0.5568
 8629TIP3   OH247377   2.500   5.040  11.598  0.2288  0.3082  0.3078
 8629TIP3    H147378   2.494   4.964  11.540  0.5389  0.5918 -0.0999
 8629TIP3    H247379   2.533   5.004  11.680 -0.7420 -0.1853  0.4974
 8630TIP3   OH247380   4.916   5.727  17.211 -0.9879  0.3238 -0.5703
 8630TIP3    H147381   4.927   5.716  17.116  2.3835 -1.6565 -0.1150
 8630TIP3    H247382   4.878   5.644  17.241 -0.9672  0.4988 -0.0509
 8631TIP3   OH247383   3.785   3.260   3.549  0.1528  0.5783 -0.1329
 8631TIP3    H147384   3.833   3.247   3.631 -1.5680 -0.1870  0.8075
 8631TIP3    H247385   3.694   3.273   3.577 -0.3563  1.0052 -1.8947
 8632TIP3   OH247386   4.772   4.937  16.936  0.3232 -0.0567 -0.6249
 8632TIP3    H147387   4.714   4.867  16.905  0.4516 -0.7295  0.6091
 8632TIP3    H247388   4.800   4.982  16.856 -1.5743  0.0428 -1.2803
 8633TIP3   OH247389   1.753   0.844   2.543  0.1603 -0.0898  0.2196
 8633TIP3    H147390   1.759   0.885   2.457 -1.7701 -1.7485 -0.8044
 8633TIP3    H247391   1.736   0.917   2.603 -0.9307  0.8814 -1.1870
 8634TIP3   OH247392   3.173   3.492  12.928  0.0134  0.4791 -0.4246
 8634TIP3    H147393   3.250   3.507  12.984 -0.2123 -0.7574  0.2603
 8634TIP3    H247394   3.108   3.554  12.961  0.1525  0.3262  0.1611
 8635TIP3   OH247395   6.560   5.453  16.466 -0.3504  0.1479 -0.0487
 8635TIP3    H147396   6.652   5.468  16.445 -0.3228 -0.1233 -0.1192
 8635TIP3    H247397   6.516   5.533  16.438  0.1787  1.2628  2.0838
 8636TIP3   OH247398   5.704   0.916   4.771  0.4141 -0.0913 -0.0096
 8636TIP3    H147399   5.789   0.873   4.782 -0.3545 -1.2633  1.7125
 8636TIP3    H247400   5.693   0.970   4.850 -0.3716  0.1879 -0.2947
 8637TIP3   OH247401   0.597   0.843   3.635 -0.1032  0.5774  0.0263
 8637TIP3    H147402   0.586   0.750   3.617 -0.5723  0.5633  0.3725
 8637TIP3    H247403   0.605   0.883   3.548 -1.0133  0.3437 -0.1847
 8638TIP3   OH247404   0.199   3.438  14.005  0.0254 -0.3909 -0.0575
 8638TIP3    H147405   0.280   3.389  13.989 -0.1171 -0.9782  0.9271
 8638TIP3    H247406   0.132   3.371  14.015 -0.1004 -0.0552  1.7249
 8639TIP3   OH247407   5.462   4.953   6.053  0.2371 -0.2129 -0.3604
 8639TIP3    H147408   5.535   4.893   6.067  0.4054 -0.2284 -1.2417
 8639TIP3    H247409   5.389   4.896   6.026  0.4971 -0.0024 -1.5532
 8640TIP3   OH247410   1.742   0.616   2.293  0.0048  0.1581  0.1201
 8640TIP3    H147411   1.703   0.702   2.273  0.3675 -0.1864 -2.4361
 8640TIP3    H247412   1.834   0.626   2.268  0.0727 -0.9443 -0.0961
 8641TIP3   OH247413   3.504   1.496   3.958  0.5735  0.0561 -0.0915
 8641TIP3    H147414   3.561   1.568   3.984  1.8994 -0.5807 -1.1621
 8641TIP3    H247415   3.559   1.418   3.961  0.2443 -0.3655 -2.6602
 8642TIP3   OH247416   0.640   2.219   4.285 -0.0238  0.0465 -0.6324
 8642TIP3    H147417   0.699   2.145   4.274 -1.4522 -1.4752  1.2345
 8642TIP3    H247418   0.653   2.247   4.375  0.0499  1.7208 -1.1255
 8643TIP3   OH247419   2.000   5.573   4.609 -0.0928 -0.2170  0.7056
 8643TIP3    H147420   1.993   5.495   4.553  2.6673 -0.8124  1.0400
 8643TIP3    H247421   1.910   5.604   4.618 -0.9322 -1.5143 -2.0345
 8644TIP3   OH247422   0.010   6.105  11.220 -0.4687 -0.5046  0.0798
 8644TIP3    H147423   0.103   6.090  11.235 -0.3012 -1.1799 -1.4977
 8644TIP3    H247424  -0.034   6.062  11.294  0.4597  0.1732  1.0535
 8645TIP3   OH247425   6.012   1.466  13.406 -0.1527 -0.3973  0.0647
 8645TIP3    H147426   5.950   1.393  13.409  0.1904 -0.6616  0.9857
 8645TIP3    H247427   5.981   1.521  13.334 -2.0235 -0.0249  1.0981
 8646TIP3   OH247428   3.864   2.969   0.363  0.5697  0.0378  0.2080
 8646TIP3    H147429   3.803   2.960   0.436  0.8060  0.7965  0.5084
 8646TIP3    H247430   3.833   3.045   0.314  2.1296  1.4014  1.2464
 8647TIP3   OH247431   1.207   1.636   1.228 -0.2542 -0.0000  0.0195
 8647TIP3    H147432   1.253   1.626   1.312 -0.4076 -1.5607 -0.0509
 8647TIP3    H247433   1.276   1.657   1.165  0.2273 -1.1979  0.1212
 8648TIP3   OH247434   6.322   3.070   0.386 -0.0343  0.6015  0.0040
 8648TIP3    H147435   6.380   3.146   0.385  0.1399  0.5333  1.6939
 8648TIP3    H247436   6.322   3.041   0.477  0.2192 -1.6799 -0.6528
 8649TIP3   OH247437   4.923   0.059  16.759  0.0373  0.6662  1.0349
 8649TIP3    H147438   4.891   0.015  16.837  1.7025 -1.8312  0.4302
 8649TIP3    H247439   5.013   0.084  16.779  0.8748 -0.9965 -0.3537
 8650TIP3   OH247440   6.560   2.573  10.936  0.0337  0.2583 -0.3959
 8650TIP3    H147441   6.620   2.499  10.944 -1.3866 -0.7965  1.1684
 8650TIP3    H247442   6.472   2.534  10.943 -0.7912  1.9635 -0.6572
 8651TIP3   OH247443   2.358   4.779  15.920  0.3757  0.2100 -0.1258
 8651TIP3    H147444   2.319   4.773  15.833 -0.6636 -0.1639  0.3434
 8651TIP3    H247445   2.330   4.699  15.964 -2.6433  2.1813  1.9244
 8652TIP3   OH247446   4.350   1.526   0.046  0.1457 -0.1364 -0.0257
 8652TIP3    H147447   4.347   1.620   0.028 -0.3337 -0.4188 -1.5452
 8652TIP3    H247448   4.277   1.490  -0.004  1.0785 -1.4711 -0.4733
 8653TIP3   OH247449   5.286   3.120  16.669 -0.2209 -0.1131  0.3955
 8653TIP3    H147450   5.302   3.092  16.579 -0.4760  0.4267  0.1800
 8653TIP3    H247451   5.207   3.173  16.664 -0.0016  0.2653  0.8723
 8654TIP3   OH247452   5.823   1.266   1.913  0.2364  0.1246 -0.3905
 8654TIP3    H147453   5.857   1.332   1.852  0.8219  0.2349  0.0382
 8654TIP3    H247454   5.897   1.207   1.928  0.2107  0.2881  0.4634
 8655TIP3   OH247455   4.873   6.467  11.385  0.3492 -0.2088  0.0598
 8655TIP3    H147456   4.902   6.469  11.294  1.0500 -1.8037  0.2137
 8655TIP3    H247457   4.953   6.448  11.435 -0.0249  0.6500  1.0177
 8656TIP3   OH247458   4.896   2.016  13.335 -0.0826  0.0835 -0.0042
 8656TIP3    H147459   4.969   1.984  13.281 -2.1761 -0.6860 -2.6142
 8656TIP3    H247460   4.847   1.938  13.358 -1.6014  0.7946 -0.7165
 8657TIP3   OH247461   1.173   6.302  14.003  0.1160  0.1133 -0.0483
 8657TIP3    H147462   1.262   6.285  14.035 -0.2340 -0.6183  0.5769
 8657TIP3    H247463   1.138   6.367  14.064  0.4053  0.7930 -0.6098
 8658TIP3   OH247464   1.198   3.763  15.110  0.2540  0.4721  0.0571
 8658TIP3    H147465   1.152   3.843  15.137  2.3960  1.1121  2.2145
 8658TIP3    H247466   1.282   3.795  15.076  0.8235 -0.8192  0.1990
 8659TIP3   OH247467   1.622   0.392  12.357 -0.6002  0.0513 -0.3962
 8659TIP3    H147468   1.653   0.456  12.293 -0.7982  1.4362  0.8350
 8659TIP3    H247469   1.587   0.445  12.429  0.1439 -1.4186  1.1224
 8660TIP3   OH247470   6.375   6.653  12.748  0.1574  0.6247  0.0323
 8660TIP3    H147471   6.460   6.696  12.743 -0.0679  1.0534 -0.2071
 8660TIP3    H247472   6.385   6.573  12.696  0.3603  0.7680 -0.1498
 8661TIP3   OH247473   1.927   6.640  16.657 -0.6017 -0.7923  1.3089
 8661TIP3    H147474   1.833   6.649  16.674 -0.7952 -2.2918  1.1070
 8661TIP3    H247475   1.961   6.729  16.666 -2.1478 -0.1015  0.7214
 8662TIP3   OH247476   0.687   0.285   2.842  0.4535  0.2885  0.0592
 8662TIP3    H147477   0.763   0.328   2.802  0.0259  1.5419  0.5663
 8662TIP3    H247478   0.710   0.277   2.934  1.1316 -1.9439 -0.2413
 8663TIP3   OH247479   4.975   5.384   5.764  0.3629 -0.1097 -0.2606
 8663TIP3    H147480   5.001   5.477   5.769  1.4008 -0.1385 -3.2941
 8663TIP3    H247481   5.056   5.336   5.781 -0.2334 -0.5336  1.6029
 8664TIP3   OH247482   1.591   3.476   5.663 -0.3450  0.6062  0.2579
 8664TIP3    H147483   1.615   3.389   5.630  1.3723  0.9892  0.4074
 8664TIP3    H247484   1.669   3.530   5.647 -0.8822  1.7773  1.4151
 8665TIP3   OH247485   2.146   3.401   4.408  0.2366 -0.4894 -0.2163
 8665TIP3    H147486   2.224   3.391   4.462  1.0224  0.3447 -1.1640
 8665TIP3    H247487   2.078   3.429   4.469  0.9061 -0.3104  0.4638
 8666TIP3   OH247488   3.235   4.207  12.254 -0.1311 -0.3561 -0.1440
 8666TIP3    H147489   3.301   4.204  12.184  0.9348  0.0221  0.7970
 8666TIP3    H247490   3.151   4.196  12.210  0.5838 -1.0749 -1.3632
 8667TIP3   OH247491   5.058   6.373   5.934  0.3085 -0.2259  0.1115
 8667TIP3    H147492   5.075   6.416   5.850  1.5240 -0.1692  0.3653
 8667TIP3    H247493   5.008   6.295   5.911 -3.5928  2.1207 -0.2016
 8668TIP3   OH247494   5.059   2.933   6.753 -0.3077 -0.0011 -0.0314
 8668TIP3    H147495   5.086   2.849   6.790  0.4447  0.0845 -0.3651
 8668TIP3    H247496   5.132   2.960   6.697 -0.8397  0.5366 -0.4903
 8669TIP3   OH247497   0.387   5.203   0.978  0.0626  0.2691  0.3577
 8669TIP3    H147498   0.472   5.161   0.990  0.3111  0.6164 -0.1463
 8669TIP3    H247499   0.365   5.188   0.886  0.1651  1.2279  0.1576
 8670TIP3   OH247500   4.538   4.351  14.834 -0.1559 -0.6707  0.4900
 8670TIP3    H147501   4.614   4.386  14.787 -0.8492 -1.0239 -0.9567
 8670TIP3    H247502   4.576   4.307  14.910  1.1084 -0.8779 -0.2165
 8671TIP3   OH247503   3.678   4.887  12.519  0.1112  0.1878  0.5109
 8671TIP3    H147504   3.622   4.812  12.540 -0.4504  0.5346  0.3084
 8671TIP3    H247505   3.712   4.868  12.431  0.9970 -0.4171  0.9760
 8672TIP3   OH247506   1.353   2.381  16.209  0.1701 -0.1517 -0.1916
 8672TIP3    H147507   1.284   2.330  16.165  0.2780 -1.0142  0.6275
 8672TIP3    H247508   1.327   2.472  16.195 -0.5666 -0.4429 -0.8052
 8673TIP3   OH247509   0.900   4.160  15.683  0.2185  0.0960  0.0003
 8673TIP3    H147510   0.885   4.086  15.624 -0.3970  1.1155 -1.1717
 8673TIP3    H247511   0.814   4.177  15.722  0.3256  0.2778  0.1596
 8674TIP3   OH247512   1.748   4.847   2.113  0.3419  0.2070 -0.2987
 8674TIP3    H147513   1.670   4.881   2.069  0.2339 -1.4329 -1.4339
 8674TIP3    H247514   1.727   4.755   2.132  1.7027 -0.0388  0.1179
 8675TIP3   OH247515   1.981   4.208  17.137  0.6149 -0.6969 -0.4533
 8675TIP3    H147516   2.038   4.266  17.187 -1.0997  0.6551  0.0648
 8675TIP3    H247517   1.908   4.190  17.197 -1.2817  0.6191 -2.2288
 8676TIP3   OH247518   6.502   6.173   2.819  0.5372  1.0294  0.0488
 8676TIP3    H147519   6.419   6.125   2.816  0.9779  0.2346  0.2301
 8676TIP3    H247520   6.549   6.136   2.894  0.0823  3.1505  1.4666
 8677TIP3   OH247521   3.453   1.834   5.033 -0.5067 -0.7820 -0.0055
 8677TIP3    H147522   3.531   1.856   5.085  0.5434  0.9635 -2.1422
 8677TIP3    H247523   3.429   1.917   4.990 -2.1450 -1.8191 -1.2080
 8678TIP3   OH247524   1.756   1.364  16.950  0.1832  0.1565  0.5984
 8678TIP3    H147525   1.851   1.360  16.943  0.1298 -0.0821 -0.0861
 8678TIP3    H247526   1.724   1.291  16.896 -0.4126  1.0513 -0.3115
 8679TIP3   OH247527   1.290   1.890   2.267  1.0954  0.2438 -0.2205
 8679TIP3    H147528   1.195   1.886   2.280  0.8426  3.3136 -0.3568
 8679TIP3    H247529   1.302   1.877   2.173  1.0934 -2.3682  0.0731
 8680TIP3   OH247530   3.535   1.669   2.533  1.1364 -0.1542 -0.5281
 8680TIP3    H147531   3.589   1.673   2.454  0.2753  0.4504 -1.1012
 8680TIP3    H247532   3.598   1.653   2.604  1.9617 -0.3541 -1.2848
 8681TIP3   OH247533   4.234   5.432   0.835  0.7701  0.5378  0.9816
 8681TIP3    H147534   4.140   5.445   0.849  0.9418  0.3254  2.5229
 8681TIP3    H247535   4.241   5.396   0.747 -0.6435  0.0473  1.0513
 8682TIP3   OH247536   4.346   4.412   0.454 -0.8598 -0.7215  0.1801
 8682TIP3    H147537   4.312   4.324   0.437 -3.5726  0.4069 -0.9403
 8682TIP3    H247538   4.303   4.467   0.389  0.8168  1.4522  0.7791
 8683TIP3   OH247539   2.602   6.471  16.494  0.2518 -0.4227  0.2264
 8683TIP3    H147540   2.570   6.559  16.516  0.1183 -0.5777  0.6650
 8683TIP3    H247541   2.625   6.433  16.578  4.1012  0.5956 -0.1633
 8684TIP3   OH247542   4.147   1.395  13.595 -0.1877  0.6853  0.6025
 8684TIP3    H147543   4.240   1.401  13.618 -0.0084  1.7584 -0.3472
 8684TIP3    H247544   4.142   1.321  13.535  0.3806  1.7330 -0.7861
 8685TIP3   OH247545   0.953   3.293   0.447 -0.4386  0.4200 -0.2049
 8685TIP3    H147546   0.951   3.378   0.403  1.6110  1.2146  1.0827
 8685TIP3    H247547   1.039   3.257   0.425 -0.9017 -0.8969  0.0515
 8686TIP3   OH247548   2.156   1.173  12.163 -0.0012 -0.5194 -0.2148
 8686TIP3    H147549   2.089   1.234  12.132  1.2833  0.5846 -0.9267
 8686TIP3    H247550   2.233   1.193  12.109  1.2488 -0.9495  1.3420
 8687TIP3   OH247551   6.064   6.637  11.968 -0.3344  0.1561  0.4868
 8687TIP3    H147552   6.051   6.550  11.931 -1.3278  0.5674 -0.1834
 8687TIP3    H247553   6.131   6.677  11.912  1.2320 -0.6651  1.6922
 8688TIP3   OH247554   2.880   1.627  15.582  0.1782 -1.1269 -0.8060
 8688TIP3    H147555   2.879   1.722  15.568 -1.5103 -0.5753  2.1837
 8688TIP3    H247556   2.971   1.607  15.605  0.5469 -0.2373 -1.4316
 8689TIP3   OH247557   5.228   1.248  11.951  0.8104 -0.0060  0.3479
 8689TIP3    H147558   5.296   1.278  11.891  1.2615 -0.6036  0.5454
 8689TIP3    H247559   5.185   1.176  11.904  0.3239  0.3554  0.2331
 8690TIP3   OH247560   1.347   3.197   3.439 -0.5256 -0.3131  0.2878
 8690TIP3    H147561   1.277   3.204   3.374 -0.7760 -0.6621  0.5136
 8690TIP3    H247562   1.420   3.156   3.392 -0.2824  0.5217 -0.0880
 8691TIP3   OH247563   1.624   0.577  14.738 -0.2672  0.1053 -0.0309
 8691TIP3    H147564   1.532   0.554  14.749 -0.2364 -0.2645 -0.4959
 8691TIP3    H247565   1.643   0.554  14.647  0.5105 -0.6390  0.3043
 8692TIP3   OH247566   3.754   6.638  16.122 -0.0974 -0.2020  0.2709
 8692TIP3    H147567   3.746   6.543  16.112  0.1269 -0.5005  2.4150
 8692TIP3    H247568   3.836   6.649  16.170  0.2167  1.1418 -0.5371
 8693TIP3   OH247569   0.231   3.850   3.926  0.3175 -0.5834  0.1037
 8693TIP3    H147570   0.300   3.881   3.867 -0.7855 -0.6286 -1.2661
 8693TIP3    H247571   0.217   3.923   3.987 -0.0594  0.4225 -1.1192
 8694TIP3   OH247572   3.180   3.710   2.902  0.2135  0.3374 -0.4512
 8694TIP3    H147573   3.256   3.672   2.857  0.4528  0.9173 -0.5479
 8694TIP3    H247574   3.134   3.635   2.938 -0.6901 -0.2840 -2.7092
 8695TIP3   OH247575   6.095   5.594   0.734  0.6452  0.4948  0.2819
 8695TIP3    H147576   6.033   5.594   0.807  0.7463  0.2084  0.3706
 8695TIP3    H247577   6.094   5.684   0.702 -2.1211 -0.0996 -1.6838
 8696TIP3   OH247578   5.612   4.136  16.000  0.2904 -0.3112  0.1569
 8696TIP3    H147579   5.671   4.062  16.011  1.5828  0.7130  0.3413
 8696TIP3    H247580   5.571   4.121  15.915  2.7011  0.1921 -1.1780
 8697TIP3   OH247581   2.744   3.264   4.782  0.0141  0.0838  0.7435
 8697TIP3    H147582   2.747   3.293   4.874  2.1699  0.3897  0.6244
 8697TIP3    H247583   2.717   3.172   4.787 -0.7790  0.3420  1.5917
 8698TIP3   OH247584   4.402   4.797  14.337 -0.2443 -0.8625 -1.0501
 8698TIP3    H147585   4.375   4.812  14.428 -0.6370 -1.7170 -1.0160
 8698TIP3    H247586   4.386   4.704  14.323 -1.4810 -0.4810 -2.4195
 8699TIP3   OH247587   5.494   1.335   6.478 -0.4420 -0.2611 -0.6217
 8699TIP3    H147588   5.548   1.363   6.405  0.0348 -0.4697 -0.3514
 8699TIP3    H247589   5.411   1.309   6.438 -0.3402  0.0461 -1.0388
 8700TIP3   OH247590   0.913   4.911  11.571  0.1178  0.2247 -0.5840
 8700TIP3    H147591   0.935   4.853  11.498 -0.8789 -0.0663 -0.6754
 8700TIP3    H247592   0.852   4.974  11.533  0.2103  0.5612 -0.1820
 8701TIP3   OH247593   1.692   4.010   1.358 -0.8563  0.5991  0.4260
 8701TIP3    H147594   1.703   3.934   1.415  1.3519  0.5484  0.0446
 8701TIP3    H247595   1.642   4.073   1.409 -0.3613 -0.0758  1.7781
 8702TIP3   OH247596   6.071   3.153   5.332  0.4233  0.1573 -0.1797
 8702TIP3    H147597   6.093   3.184   5.419  1.4056 -1.1937  0.0866
 8702TIP3    H247598   6.151   3.167   5.280  0.7242 -1.3465 -0.1808
 8703TIP3   OH247599   5.751   0.545   2.366 -0.2836 -0.3153  0.2191
 8703TIP3    H147600   5.707   0.485   2.306 -0.2641 -0.5357  0.4211
 8703TIP3    H247601   5.727   0.513   2.453 -2.2604  1.3872  0.3937
 8704TIP3   OH247602   0.604   3.587   2.842  0.3768  0.4445  0.5406
 8704TIP3    H147603   0.594   3.494   2.823  0.0185  0.5246  0.3272
 8704TIP3    H247604   0.549   3.631   2.776  0.5824  0.8068  0.6089
 8705TIP3   OH247605   4.668   3.997  14.031 -0.2882  0.1595 -0.0178
 8705TIP3    H147606   4.691   4.038  13.947 -0.0035  0.4600  0.2078
 8705TIP3    H247607   4.595   4.050  14.064  0.8115  1.1908  0.8137
 8706TIP3   OH247608   5.578   5.095   1.506  0.3394 -0.2543 -0.0409
 8706TIP3    H147609   5.485   5.081   1.524  0.4177 -0.8400 -0.0677
 8706TIP3    H247610   5.601   5.174   1.555 -0.3087  0.2312 -0.5057
 8707TIP3   OH247611   5.587   5.396   0.001  0.4657 -0.2268  0.2021
 8707TIP3    H147612   5.600   5.369   0.092  0.2672  0.0346  0.3101
 8707TIP3    H247613   5.644   5.339  -0.050  1.1321  0.1103  0.5580
 8708TIP3   OH247614   2.438   3.539   1.733 -0.1379 -0.0200  0.6869
 8708TIP3    H147615   2.498   3.607   1.763  0.6189 -0.4174  0.1068
 8708TIP3    H247616   2.357   3.586   1.711 -0.2329  0.4560  1.9768
 8709TIP3   OH247617   5.249   1.260   6.400  0.1124 -0.4928  0.1109
 8709TIP3    H147618   5.190   1.211   6.343 -0.5900  0.7531 -0.2862
 8709TIP3    H247619   5.191   1.321   6.446  1.2468  2.0748 -1.6502
 8710TIP3   OH247620   5.011   0.861   3.250  0.0373 -0.4504  0.0430
 8710TIP3    H147621   5.083   0.853   3.312  1.6694 -0.6762 -1.7716
 8710TIP3    H247622   5.044   0.820   3.170 -2.6387 -1.7903 -0.4894
 8711TIP3   OH247623   0.063   1.628  14.018 -0.6377 -0.4763  0.5401
 8711TIP3    H147624   0.120   1.642  13.942 -0.4945  1.7288  0.9929
 8711TIP3    H247625  -0.015   1.586  13.982  0.2454 -1.3324 -0.4714
 8712TIP3   OH247626   1.843   4.133  12.623  0.0522  0.0731  0.5684
 8712TIP3    H147627   1.919   4.191  12.631  1.8048 -2.1149  0.5323
 8712TIP3    H247628   1.803   4.134  12.710 -1.4494  3.1166 -0.0029
 8713TIP3   OH247629   5.535   4.637  10.564  0.2729 -0.2076 -0.1645
 8713TIP3    H147630   5.452   4.598  10.590  0.5901 -0.6890  0.1335
 8713TIP3    H247631   5.588   4.564  10.532  0.6299  0.0710 -0.2234
 8714TIP3   OH247632   6.160   2.639   1.548  0.0302 -0.1260 -0.0970
 8714TIP3    H147633   6.175   2.597   1.463 -2.7224 -0.1119 -0.7004
 8714TIP3    H247634   6.208   2.722   1.543 -0.7986  0.3059 -2.0876
 8715TIP3   OH247635   5.129   6.369   0.680 -0.2400  0.3613 -0.6436
 8715TIP3    H147636   5.188   6.443   0.671  0.4748 -0.3507 -2.4545
 8715TIP3    H247637   5.087   6.381   0.765  1.0126  1.9712 -0.2027
 8716TIP3   OH247638   3.961   3.922  17.135 -0.2262  0.0501  0.0407
 8716TIP3    H147639   3.971   3.872  17.216 -0.0000 -1.3930 -0.8427
 8716TIP3    H247640   3.966   3.856  17.065 -3.2976  0.8233 -1.0620
 8717TIP3   OH247641   3.196   4.225  13.165 -0.1079 -0.4496  0.3680
 8717TIP3    H147642   3.215   4.194  13.253 -1.2643 -0.0386  0.7778
 8717TIP3    H247643   3.123   4.171  13.135 -1.1035  0.7608  0.4854
 8718TIP3   OH247644   3.250   5.356  12.140  0.5905 -0.1395  0.0540
 8718TIP3    H147645   3.220   5.301  12.213  0.5963  0.5705  0.6127
 8718TIP3    H247646   3.274   5.439  12.182  1.7485 -0.1269 -0.6076
 8719TIP3   OH247647   3.494   4.057   1.916 -0.2547  0.2162 -0.2153
 8719TIP3    H147648   3.527   4.112   1.987  0.7924 -0.3848 -0.2246
 8719TIP3    H247649   3.506   3.968   1.946 -0.3814 -0.0385 -0.9011
 8720TIP3   OH247650   0.035   0.168   1.312  0.8530 -0.2059  0.3720
 8720TIP3    H147651   0.010   0.076   1.313 -0.3319 -0.0243 -2.4293
 8720TIP3    H247652  -0.048   0.216   1.319  1.2646  0.5811  0.0200
 8721TIP3   OH247653   6.556   3.551  14.625 -0.4200  0.2585  0.4492
 8721TIP3    H147654   6.487   3.617  14.621 -0.6888  0.1093  1.9649
 8721TIP3    H247655   6.510   3.468  14.620 -0.3884  0.1567  1.5658
 8722TIP3   OH247656   2.887   0.052   4.911 -0.0170 -0.4465 -0.2581
 8722TIP3    H147657   2.916   0.052   4.820 -0.6859  0.0022 -0.4783
 8722TIP3    H247658   2.925  -0.027   4.948 -2.6730 -2.6640 -1.8712
 8723TIP3   OH247659   4.673   1.583   0.909 -0.5882 -0.2735 -0.2465
 8723TIP3    H147660   4.631   1.620   0.831 -0.6991  2.6606  1.0611
 8723TIP3    H247661   4.761   1.621   0.909 -0.8350  0.3525  1.3814
 8724TIP3   OH247662   2.767   1.461  11.779  0.4722 -0.0421 -0.1838
 8724TIP3    H147663   2.726   1.528  11.834  0.1233  0.0116 -0.5001
 8724TIP3    H247664   2.856   1.492  11.767  0.4961  0.0384  0.2019
 8725TIP3   OH247665   4.617   1.666  12.591  0.5499 -0.5074  0.2417
 8725TIP3    H147666   4.606   1.730  12.661 -0.8828  0.2277 -0.6071
 8725TIP3    H247667   4.708   1.676  12.563  0.0747  2.0476 -0.6668
 8726TIP3   OH247668   2.269   0.304  11.895 -0.3032  0.4135 -0.1488
 8726TIP3    H147669   2.242   0.284  11.985  0.8755  0.1007  0.1521
 8726TIP3    H247670   2.360   0.332  11.903  0.2017 -0.8032 -1.3795
 8727TIP3   OH247671   5.717   4.376   4.671  0.0743 -0.0349  0.0584
 8727TIP3    H147672   5.800   4.336   4.695 -0.0058 -0.3179 -0.1201
 8727TIP3    H247673   5.656   4.348   4.739  0.1204  0.1474  0.1730
 8728TIP3   OH247674   0.787   0.359   2.366  0.1441 -0.4212 -0.1253
 8728TIP3    H147675   0.859   0.390   2.421 -0.1087  1.7411 -0.9169
 8728TIP3    H247676   0.711   0.356   2.424  0.6244 -1.7095  0.4673
 8729TIP3   OH247677   0.379   3.005   2.051  0.2498  0.4977 -0.4708
 8729TIP3    H147678   0.286   3.023   2.042  0.1781  0.8335  0.7773
 8729TIP3    H247679   0.385   2.909   2.052 -0.1775  0.4747  0.2928
 8730TIP3   OH247680   5.004   5.591   1.487  0.2455  0.2297  0.2559
 8730TIP3    H147681   5.055   5.594   1.568  0.5334  1.1962  0.0439
 8730TIP3    H247682   4.940   5.661   1.495  1.2413  1.3534 -0.9617
 8731TIP3   OH247683   0.277   5.066   4.272  0.0887 -0.0563 -0.3780
 8731TIP3    H147684   0.341   5.008   4.313 -0.2317 -0.1471 -0.0005
 8731TIP3    H247685   0.245   5.122   4.343 -0.5711 -0.3114 -0.4631
 8732TIP3   OH247686   0.162   6.074  13.569  0.3084  0.2000 -1.0728
 8732TIP3    H147687   0.133   6.139  13.505 -0.3594 -0.6874 -1.6954
 8732TIP3    H247688   0.088   6.063  13.628 -0.0009 -0.7683 -1.6134
 8733TIP3   OH247689   6.056   3.603   2.883  0.1132 -0.3554 -0.1832
 8733TIP3    H147690   6.061   3.533   2.818 -2.6979 -1.2895  0.4561
 8733TIP3    H247691   6.055   3.684   2.830 -0.0639 -0.9831 -1.1677
 8734TIP3   OH247692   3.247   0.907  14.391  0.2565 -0.4902 -0.3442
 8734TIP3    H147693   3.305   0.833  14.375  1.6134 -0.0254  1.9411
 8734TIP3    H247694   3.295   0.983  14.359  0.9799 -0.1173  1.4691
 8735TIP3   OH247695   0.535   2.094  17.339 -0.3977  0.1777 -0.3660
 8735TIP3    H147696   0.626   2.082  17.365 -0.4821 -0.1359 -0.2200
 8735TIP3    H247697   0.540   2.126  17.249 -0.1411  0.2349 -0.3327
 8736TIP3   OH247698   4.467   4.088  15.520  0.7747  0.2438 -0.0010
 8736TIP3    H147699   4.546   4.073  15.468 -0.5461  1.1384 -2.4358
 8736TIP3    H247700   4.397   4.096  15.455 -1.4751 -1.1758  2.0746
 8737TIP3   OH247701   0.960   2.158  15.841 -0.0549  0.4403  0.3970
 8737TIP3    H147702   0.939   2.071  15.805 -1.3631  0.9961 -0.2548
 8737TIP3    H247703   0.902   2.218  15.794  1.6175  1.8493  0.0202
 8738TIP3   OH247704   2.711   3.752   3.413  0.3959 -0.5928  0.2335
 8738TIP3    H147705   2.799   3.777   3.443 -0.7281  0.0163  3.4087
 8738TIP3    H247706   2.721   3.662   3.382  1.8897 -1.0769  1.9674
 8739TIP3   OH247707   3.391   5.102   5.783  0.1696  0.2531 -0.4172
 8739TIP3    H147708   3.450   5.113   5.708  0.7455  1.3484  0.1721
 8739TIP3    H247709   3.449   5.075   5.855 -0.5199 -1.8145 -0.5884
 8740TIP3   OH247710   4.218   4.229  13.802  0.0124 -0.1376 -0.1377
 8740TIP3    H147711   4.272   4.271  13.736 -0.7868 -0.6739 -1.1652
 8740TIP3    H247712   4.156   4.297  13.829  0.0277 -0.0536 -0.3088
 8741TIP3   OH247713   3.777   5.443  16.135 -0.7623  0.1950 -0.0951
 8741TIP3    H147714   3.863   5.482  16.151 -1.0840  0.8603  0.0805
 8741TIP3    H247715   3.737   5.435  16.222 -0.8655 -0.1313 -0.1700
 8742TIP3   OH247716   3.600   3.655   3.329  0.1697  0.1027 -0.0443
 8742TIP3    H147717   3.510   3.659   3.361  0.2008  2.4346 -0.0689
 8742TIP3    H247718   3.591   3.650   3.234  0.1080 -2.0032  0.0236
 8743TIP3   OH247719   5.409   6.546  15.103 -0.2307 -0.2285  0.3724
 8743TIP3    H147720   5.387   6.484  15.172 -0.7113 -1.4267 -0.8139
 8743TIP3    H247721   5.379   6.504  15.022  0.3747  1.0973 -0.5839
 8744TIP3   OH247722   3.603   6.100  12.070  0.5005  0.1802  0.2240
 8744TIP3    H147723   3.563   6.015  12.051 -1.9318  1.7953 -2.7057
 8744TIP3    H247724   3.670   6.111  12.003 -1.5596  1.9025 -1.6849
 8745TIP3   OH247725   3.679   6.381  12.066  0.1497 -0.2605 -0.3381
 8745TIP3    H147726   3.718   6.427  11.991 -0.8884  1.3586  0.0661
 8745TIP3    H247727   3.688   6.288  12.044  3.0852  0.0498 -0.7987
 8746TIP3   OH247728   0.189   3.202  11.681  0.2124 -0.0041  0.5359
 8746TIP3    H147729   0.134   3.278  11.700 -1.0766  0.0559 -2.8370
 8746TIP3    H247730   0.150   3.131  11.733 -2.4210  0.3215 -0.8118
 8747TIP3   OH247731   3.982   0.605  12.725  0.4002  0.6308 -0.2747
 8747TIP3    H147732   3.986   0.517  12.763  0.9256  0.2301 -1.2228
 8747TIP3    H247733   3.935   0.657  12.790  0.4939 -0.2390  0.5127
 8748TIP3   OH247734   2.933   6.166   4.817  0.2584  0.5831 -0.3497
 8748TIP3    H147735   2.888   6.161   4.732 -1.2515 -0.6564  0.4609
 8748TIP3    H247736   2.876   6.220   4.871  1.9597  2.6278 -0.4961
 8749TIP3   OH247737   5.411   2.853   4.536  0.1490  0.3984  0.7729
 8749TIP3    H147738   5.425   2.936   4.581  0.8162  0.0197  1.2794
 8749TIP3    H247739   5.432   2.872   4.444 -0.2156  0.9165  0.7940
 8750TIP3   OH247740   0.080   0.477   5.261 -0.1244  0.5021 -0.1256
 8750TIP3    H147741   0.026   0.538   5.211 -1.4231 -0.1280  0.4725
 8750TIP3    H247742   0.017   0.422   5.308  0.9895 -1.1634 -0.4782
 8751TIP3   OH247743   0.126   6.497  15.720  0.7444  0.6622 -0.5972
 8751TIP3    H147744   0.066   6.545  15.664 -0.8205 -0.9701 -0.4090
 8751TIP3    H247745   0.083   6.495  15.805  1.4845  0.2076 -0.2261
 8752TIP3   OH247746   6.211   4.983  12.627 -0.3717  0.2176  0.6868
 8752TIP3    H147747   6.293   5.009  12.670 -0.4326  0.2748  0.7685
 8752TIP3    H247748   6.189   4.899  12.667  0.6474 -0.7464 -0.6797
 8753TIP3   OH247749   1.154   2.186  13.467  0.0669 -1.2495  0.4766
 8753TIP3    H147750   1.168   2.238  13.388 -1.0720 -0.7655  0.5740
 8753TIP3    H247751   1.226   2.211  13.525 -0.9310  0.9518  0.8761
 8754TIP3   OH247752   0.043   3.612   2.071  0.0632 -0.6797  0.2738
 8754TIP3    H147753  -0.002   3.563   2.003  3.2562 -2.3374 -0.8423
 8754TIP3    H247754   0.109   3.663   2.025  1.7393 -1.1646  1.9899
 8755TIP3   OH247755   0.379   3.040   1.472 -0.0041 -0.2597 -0.4159
 8755TIP3    H147756   0.446   3.083   1.418 -1.1849  0.3039 -1.4749
 8755TIP3    H247757   0.394   3.074   1.560  0.9422  0.0374 -0.6767
 8756TIP3   OH247758   3.450   4.086   3.115  0.3033  0.1343 -0.0889
 8756TIP3    H147759   3.365   4.053   3.089  0.4904 -1.1477  0.8210
 8756TIP3    H247760   3.445   4.180   3.102 -1.3018  0.0933  0.0980
 8757TIP3   OH247761   6.613   1.799   2.638  0.2456 -0.1745 -0.2926
 8757TIP3    H147762   6.696   1.786   2.592  1.4210  0.9364  1.3883
 8757TIP3    H247763   6.625   1.753   2.721 -1.8100 -2.1141 -0.9676
 8758TIP3   OH247764   5.642   2.962   0.439  0.0691 -0.3856  0.4449
 8758TIP3    H147765   5.709   3.029   0.444  1.1027 -1.3190 -0.2240
 8758TIP3    H247766   5.672   2.903   0.369 -0.7798 -1.5485  1.0148
 8759TIP3   OH247767   1.246   6.457  11.740 -0.3434 -0.2036 -0.2207
 8759TIP3    H147768   1.237   6.463  11.835  1.5661 -1.5525  0.1281
 8759TIP3    H247769   1.225   6.366  11.720  3.2713 -1.1640 -0.4048
 8760TIP3   OH247770   5.656   2.278  15.960  0.7588  0.3360 -0.2983
 8760TIP3    H147771   5.721   2.226  15.913  1.8176  1.8900 -0.6476
 8760TIP3    H247772   5.656   2.363  15.916  1.1103  1.5629  1.8861
 8761TIP3   OH247773   2.703   5.091   3.189  0.1083  0.1991 -0.1018
 8761TIP3    H147774   2.637   5.134   3.136 -0.4401  0.1066  0.4994
 8761TIP3    H247775   2.699   4.999   3.163 -0.7861 -0.0101  0.7240
 8762TIP3   OH247776   2.767   4.868   0.063  0.1808  0.4526  0.1464
 8762TIP3    H147777   2.770   4.800  -0.004 -0.0477 -0.5998  1.1694
 8762TIP3    H247778   2.715   4.829   0.134  0.4963  1.4964  0.9720
 8763TIP3   OH247779   0.790   1.877  17.159 -0.1813  0.3955  0.2671
 8763TIP3    H147780   0.788   1.959  17.209  0.1564 -0.4312  1.6688
 8763TIP3    H247781   0.701   1.844  17.163 -0.0269  0.0328  0.8514
 8764TIP3   OH247782   0.375   2.798   2.909 -0.1086 -0.5546  0.6035
 8764TIP3    H147783   0.454   2.771   2.864 -1.4285  0.2669 -2.5284
 8764TIP3    H247784   0.307   2.738   2.879 -0.8656 -0.8876  2.7422
 8765TIP3   OH247785   3.706   1.240  11.005  0.0116  0.3135 -0.1625
 8765TIP3    H147786   3.722   1.147  11.021 -0.6845  0.0754 -0.7810
 8765TIP3    H247787   3.675   1.275  11.088 -2.0457 -0.5468 -0.5223
 8766TIP3   OH247788   3.087   1.790  16.136  0.5602 -0.1908  0.1866
 8766TIP3    H147789   3.031   1.816  16.062  0.7123 -1.0250 -0.2418
 8766TIP3    H247790   3.065   1.698  16.151  1.7985 -0.5306  0.0150
 8767TIP3   OH247791   4.872   6.510  15.533 -0.0737 -0.4726  0.3915
 8767TIP3    H147792   4.802   6.466  15.581  0.0943 -0.2849  0.8165
 8767TIP3    H247793   4.852   6.603  15.542 -0.4477 -0.4585 -0.5297
 8768TIP3   OH247794   5.521   1.069  11.107  0.0713 -0.6600  0.3063
 8768TIP3    H147795   5.508   1.164  11.119 -1.0371 -0.9361  1.6543
 8768TIP3    H247796   5.432   1.034  11.102  0.4788 -1.5824 -0.7763
 8769TIP3   OH247797   1.169   4.199   3.298  0.4415  0.4798  0.4429
 8769TIP3    H147798   1.202   4.198   3.208  2.1126 -1.2224  1.0082
 8769TIP3    H247799   1.127   4.284   3.307 -1.8905 -0.1312 -2.6628
 8770TIP3   OH247800   4.978   3.759   5.542 -0.2006 -0.0894 -0.3127
 8770TIP3    H147801   4.909   3.710   5.587  0.5115  0.4935  1.5314
 8770TIP3    H247802   4.979   3.844   5.586  2.6563 -0.5746  0.8219
 8771TIP3   OH247803   5.663   1.261   1.098  0.4060 -0.4408 -0.0749
 8771TIP3    H147804   5.644   1.294   1.010  0.0348  0.2648  0.2577
 8771TIP3    H247805   5.624   1.174   1.100 -2.6357  0.7867  0.4503
 8772TIP3   OH247806   1.095   6.521   0.881 -0.7265 -0.0324 -0.0065
 8772TIP3    H147807   1.081   6.462   0.807 -1.0657  0.1824 -0.1140
 8772TIP3    H247808   1.026   6.498   0.943  0.6906 -1.5546  1.1128
 8773TIP3   OH247809   5.407   4.204  16.968  0.0713 -0.0198  0.1150
 8773TIP3    H147810   5.323   4.249  16.972 -0.4624 -0.8749 -0.8343
 8773TIP3    H247811   5.445   4.216  17.054 -0.4232  1.5185  0.1469
 8774TIP3   OH247812   1.683   6.321   3.595 -0.1437 -0.8337  0.0815
 8774TIP3    H147813   1.671   6.414   3.615  2.1930 -0.0685 -1.6402
 8774TIP3    H247814   1.755   6.293   3.652  1.1890 -0.7399 -1.5022
 8775TIP3   OH247815   3.865   3.464   3.369  0.1390 -0.1121  0.1474
 8775TIP3    H147816   3.807   3.539   3.383 -0.3090 -0.0754 -1.6272
 8775TIP3    H247817   3.829   3.395   3.425 -2.0251 -0.2631 -1.2949
 8776TIP3   OH247818   0.970   6.509  17.475 -0.0485  0.1096 -0.0749
 8776TIP3    H147819   0.993   6.576  17.540  0.5935 -0.7135  0.5689
 8776TIP3    H247820   0.926   6.441  17.525  0.2390 -0.4312 -0.5426
 8777TIP3   OH247821   0.104   3.634  13.220  0.3548 -0.0489 -0.3132
 8777TIP3    H147822   0.108   3.653  13.313 -0.9404  0.2354 -0.3006
 8777TIP3    H247823   0.012   3.615  13.202  0.7810 -1.3485 -1.3022
 8778TIP3   OH247824   3.985   0.448  14.089 -0.3029 -0.6395  0.2699
 8778TIP3    H147825   3.963   0.355  14.085  0.1047 -0.7273  0.0255
 8778TIP3    H247826   4.008   0.462  14.181  0.6172 -1.0158  0.1083
 8779TIP3   OH247827   0.828   5.688  17.007 -0.0112  0.4377 -0.5571
 8779TIP3    H147828   0.855   5.777  16.984  0.3431  0.7703  0.9971
 8779TIP3    H247829   0.829   5.687  17.103  1.9629 -1.8138 -0.4995
 8780TIP3   OH247830   5.498   1.151   2.950  0.2923 -0.1744  0.2655
 8780TIP3    H147831   5.467   1.063   2.970  0.0216  0.2060  1.6180
 8780TIP3    H247832   5.457   1.172   2.866 -1.1335 -0.6663  0.7939
 8781TIP3   OH247833   2.825   1.565  16.951 -0.2177  0.5741 -0.2825
 8781TIP3    H147834   2.913   1.600  16.967 -0.0212 -0.4810  1.0599
 8781TIP3    H247835   2.780   1.577  17.034 -0.9667  0.0037 -0.6044
 8782TIP3   OH247836   6.010   2.347  15.274 -0.6001  0.8509 -0.2332
 8782TIP3    H147837   6.012   2.321  15.182  2.3986  0.3595 -0.1287
 8782TIP3    H247838   6.054   2.432  15.275 -2.2775  1.7703  0.5828
 8783TIP3   OH247839   3.359   5.329  14.499  0.1233 -0.4165  0.3928
 8783TIP3    H147840   3.327   5.370  14.579  0.1524  0.2418  0.0708
 8783TIP3    H247841   3.445   5.294  14.523  1.6490  2.6411 -0.1798
 8784TIP3   OH247842   0.809   4.638  12.372  0.5951 -0.0807 -0.0257
 8784TIP3    H147843   0.817   4.621  12.278  0.1940 -0.6872  0.0441
 8784TIP3    H247844   0.753   4.567  12.405 -1.2441  1.4451  0.2613
 8785TIP3   OH247845   6.454   4.562  13.182  0.2146  0.3257  0.3018
 8785TIP3    H147846   6.498   4.620  13.120 -1.3020  0.3633 -0.8031
 8785TIP3    H247847   6.507   4.482  13.180  0.6508  0.6156 -0.4267
 8786TIP3   OH247848   4.865   6.694  17.000  0.2993  0.2866 -0.2102
 8786TIP3    H147849   4.941   6.750  17.016  0.5538 -0.5157  1.5892
 8786TIP3    H247850   4.902   6.613  16.964  0.4422 -0.4729  1.5591
 8787TIP3   OH247851   6.002   3.982   0.056 -0.2168 -0.0208 -0.6159
 8787TIP3    H147852   5.990   3.892   0.085 -0.1038 -0.3548 -1.5583
 8787TIP3    H247853   6.097   3.996   0.058 -0.2491  0.1445 -0.2706
 8788TIP3   OH247854   3.905   2.171  16.288 -0.5405 -0.4709  0.3347
 8788TIP3    H147855   3.949   2.198  16.369  0.5350 -0.9755 -0.0590
 8788TIP3    H247856   3.819   2.214  16.291 -0.9850 -1.3776  2.3015
 8789TIP3   OH247857   5.321   2.890  11.345 -0.2340  0.0075 -0.0486
 8789TIP3    H147858   5.236   2.909  11.386 -0.2135 -1.8021  0.9333
 8789TIP3    H247859   5.378   2.960  11.375 -1.5881  1.8877 -1.5889
 8790TIP3   OH247860   2.457   3.012   2.943 -0.1115  0.6957 -0.3396
 8790TIP3    H147861   2.472   3.106   2.955  1.5617  0.5203 -0.7276
 8790TIP3    H247862   2.438   2.980   3.031 -1.1500  1.4601 -0.2719
 8791TIP3   OH247863   6.038   3.682  17.490  0.1976  0.4471 -0.1954
 8791TIP3    H147864   6.133   3.692  17.482  0.0242  1.0462 -2.1216
 8791TIP3    H247865   6.004   3.707  17.403 -1.5973 -1.3349 -0.0770
 8792TIP3   OH247866   2.903   0.028  14.457 -0.5099  0.5069  0.2893
 8792TIP3    H147867   2.898   0.008  14.363  0.9982 -0.3698  0.3639
 8792TIP3    H247868   2.996   0.040  14.474 -0.8158  1.1936  1.5838
 8793TIP3   OH247869   4.182   6.569   0.813 -0.2031  0.1940 -0.6754
 8793TIP3    H147870   4.131   6.490   0.799  1.8377 -1.3827  0.1693
 8793TIP3    H247871   4.220   6.589   0.728  0.3623 -0.5863 -0.6208
 8794TIP3   OH247872   6.378   5.183  16.195  0.3629 -0.7407 -0.1382
 8794TIP3    H147873   6.429   5.185  16.276 -0.0034  2.0260  0.1262
 8794TIP3    H247874   6.434   5.226  16.130 -0.7226  0.3954 -0.3730
 8795TIP3   OH247875   0.573   6.555   2.188  0.3205  0.3618  0.1332
 8795TIP3    H147876   0.495   6.508   2.159 -0.1058  0.8235  0.5224
 8795TIP3    H247877   0.644   6.515   2.138 -0.3394  0.8756 -1.2764
 8796TIP3   OH247878   4.564   2.448  15.326  0.1853  0.0856 -0.0373
 8796TIP3    H147879   4.589   2.475  15.414 -0.2407 -0.0537  0.1291
 8796TIP3    H247880   4.468   2.451  15.325  0.0818 -1.6654  0.0880
 8797TIP3   OH247881   3.303   4.878  16.673  0.4215 -0.4239 -0.3969
 8797TIP3    H147882   3.242   4.804  16.670  2.0852 -1.9012  0.4438
 8797TIP3    H247883   3.357   4.867  16.594  0.8369 -0.2645 -0.1387
 8798TIP3   OH247884   5.342   4.100   5.108  0.0295  0.3850  0.0028
 8798TIP3    H147885   5.313   4.087   5.018  0.4448 -0.7294  0.0180
 8798TIP3    H247886   5.295   4.033   5.159  0.1461  0.7000  0.5388
 8799TIP3   OH247887   3.735   1.106  14.460 -0.0086  0.7523  0.2646
 8799TIP3    H147888   3.776   1.132  14.543 -2.2801 -0.0401  1.7363
 8799TIP3    H247889   3.648   1.146  14.462 -0.1254  0.7039 -1.7560
 8800TIP3   OH247890   0.572   1.452  12.971  0.7180 -0.6364 -0.2088
 8800TIP3    H147891   0.517   1.487  13.041 -0.0986 -1.7463 -0.2806
 8800TIP3    H247892   0.534   1.487  12.890  1.2971  0.1494 -0.1598
 8801TIP3   OH247893   3.977   6.502  15.807  0.4813 -0.1625  0.4811
 8801TIP3    H147894   3.950   6.428  15.863  0.4861  1.0768  2.2051
 8801TIP3    H247895   4.071   6.487  15.792  0.7668  0.0953  1.8489
 8802TIP3   OH247896   3.189   3.093   2.791  0.1495  0.3856  0.3284
 8802TIP3    H147897   3.112   3.049   2.828  0.1206  0.1037 -0.0603
 8802TIP3    H247898   3.251   3.098   2.863  1.2658 -2.7814 -0.2436
 8803TIP3   OH247899   1.604   3.381  13.785 -0.4642 -0.3826 -0.1639
 8803TIP3    H147900   1.572   3.463  13.821  0.0368 -0.0570 -0.4537
 8803TIP3    H247901   1.656   3.342  13.856 -0.5567 -0.3645 -0.0863
 8804TIP3   OH247902   0.534   5.361   0.256 -0.4556  0.1724 -0.6549
 8804TIP3    H147903   0.459   5.408   0.293 -0.5859 -0.2023 -0.4388
 8804TIP3    H247904   0.591   5.345   0.331  0.1731  1.0452 -0.9223
 8805TIP3   OH247905   4.374   0.949   5.146 -0.4591  0.1166 -0.2090
 8805TIP3    H147906   4.335   1.035   5.134 -0.2932 -0.0170 -1.9383
 8805TIP3    H247907   4.468   0.963   5.139 -0.4262 -0.1830 -0.4144
 8806TIP3   OH247908   0.200   6.534   1.275  0.2326  0.0136 -0.6935
 8806TIP3    H147909   0.190   6.570   1.187  0.2895  1.3465 -0.1726
 8806TIP3    H247910   0.243   6.604   1.324 -3.6314  1.1036  1.5298
 8807TIP3   OH247911   2.407   1.155  13.326 -0.2801 -0.3435  0.7972
 8807TIP3    H147912   2.396   1.199  13.410 -1.5698 -3.2707  2.3309
 8807TIP3    H247913   2.501   1.155  13.310 -0.2118  2.5624  0.8334
 8808TIP3   OH247914   1.905   0.414   4.001 -0.5058 -0.2933  0.3717
 8808TIP3    H147915   1.990   0.371   3.985 -0.2951  0.0168  0.6489
 8808TIP3    H247916   1.843   0.365   3.947 -0.0650 -0.2210 -0.2076
 8809TIP3   OH247917   3.610   0.265  15.740  0.0498 -0.0203 -0.5184
 8809TIP3    H147918   3.556   0.286  15.664  1.1126  0.2365 -1.2238
 8809TIP3    H247919   3.548   0.234  15.806 -0.7455 -1.6182 -1.9549
 8810TIP3   OH247920   4.308   0.529   1.704 -0.6822  0.5620 -0.2799
 8810TIP3    H147921   4.346   0.589   1.640  0.8492 -0.2026 -0.1369
 8810TIP3    H247922   4.326   0.442   1.669 -1.1062  0.1630  0.4727
 8811TIP3   OH247923   4.968   4.244  12.283  0.3080 -0.1264  0.2476
 8811TIP3    H147924   5.026   4.278  12.215  1.1775 -0.8477  0.6163
 8811TIP3    H247925   4.974   4.309  12.354 -1.8918  1.5167 -0.9513
 8812TIP3   OH247926   3.594   6.337  16.418  0.0780 -0.0010  0.0463
 8812TIP3    H147927   3.603   6.243  16.436 -1.5968 -0.6472 -2.0982
 8812TIP3    H247928   3.595   6.378  16.505  0.9457 -1.9678  1.0294
 8813TIP3   OH247929   3.435   2.190   3.031  0.1227 -0.5935 -0.5776
 8813TIP3    H147930   3.458   2.199   2.938  2.3312 -0.9115 -0.1156
 8813TIP3    H247931   3.352   2.142   3.030 -1.3754  1.7701 -2.4229
 8814TIP3   OH247932   2.262   6.752   4.192  0.2244 -0.0927 -0.8693
 8814TIP3    H147933   2.212   6.672   4.180  0.3965 -0.9592  2.9383
 8814TIP3    H247934   2.196   6.821   4.201 -0.1215 -0.5070 -0.1696
 8815TIP3   OH247935   0.451   4.159  16.127 -0.1915  0.4872 -0.3574
 8815TIP3    H147936   0.397   4.127  16.199  0.1500 -0.0928 -0.3529
 8815TIP3    H247937   0.475   4.080  16.078 -0.9934  0.9240 -1.5145
 8816TIP3   OH247938   0.199   2.558   5.961  0.2198  0.4162  0.1728
 8816TIP3    H147939   0.108   2.534   5.943  0.6357 -0.8601 -0.2914
 8816TIP3    H247940   0.245   2.475   5.969  1.9461  0.9798 -2.5539
 8817TIP3   OH247941   2.271   6.093  12.680  0.3059 -0.4433 -0.9725
 8817TIP3    H147942   2.289   6.131  12.766 -1.4972 -2.7127  0.5410
 8817TIP3    H247943   2.323   6.145  12.619  1.3771  1.4921  1.4260
 8818TIP3   OH247944   0.782   6.566   0.730  0.3298  0.2496 -0.0744
 8818TIP3    H147945   0.761   6.515   0.651  0.7771 -0.7177  0.4169
 8818TIP3    H247946   0.805   6.653   0.697  0.9724 -0.2747 -1.0528
 8819TIP3   OH247947   3.207   5.212  13.461  0.3073 -0.1634 -0.0024
 8819TIP3    H147948   3.162   5.201  13.545 -0.7477  0.9438 -0.3985
 8819TIP3    H247949   3.187   5.301  13.434  1.3200 -0.2260 -1.0480
 8820TIP3   OH247950   0.872   4.166  12.453 -0.0361  0.0405  0.1665
 8820TIP3    H147951   0.925   4.245  12.441 -1.1862  0.7210 -0.7353
 8820TIP3    H247952   0.905   4.126  12.533  0.8638  1.2094  0.3992
 8821TIP3   OH247953   2.146   0.673   4.198  0.1264 -0.4948  0.1222
 8821TIP3    H147954   2.208   0.698   4.267  0.7722 -4.8295  1.3845
 8821TIP3    H247955   2.198   0.677   4.118  0.6616  0.3661  0.4898
 8822TIP3   OH247956   1.829   3.873   6.499  0.4678  0.2706  0.3980
 8822TIP3    H147957   1.776   3.951   6.511  0.2001 -0.0716  1.6183
 8822TIP3    H247958   1.817   3.823   6.580  2.3722  0.0284  0.5941
 8823TIP3   OH247959   2.937   6.120  12.494 -0.2118 -0.2768 -0.7135
 8823TIP3    H147960   2.999   6.061  12.452 -1.3942 -1.3001 -1.0728
 8823TIP3    H247961   2.922   6.083  12.581 -0.1942  0.0603 -0.5624
 8824TIP3   OH247962   5.672   5.411  16.400  0.3211 -0.0051  0.1461
 8824TIP3    H147963   5.715   5.496  16.407  0.2490  0.1136 -0.7116
 8824TIP3    H247964   5.624   5.401  16.482  2.0299 -0.1838  1.1749
 8825TIP3   OH247965   6.447   3.995   2.048 -0.1885 -0.5300  0.3988
 8825TIP3    H147966   6.415   4.074   2.093  0.4910 -0.3981  0.6667
 8825TIP3    H247967   6.434   4.014   1.955  2.4745  1.1076  0.2333
 8826TIP3   OH247968   1.217   3.751  12.675 -0.0372  0.3424  0.7170
 8826TIP3    H147969   1.230   3.780  12.585 -0.0279  0.2934  0.7031
 8826TIP3    H247970   1.258   3.820  12.728  0.6538 -0.0140  0.6578
 8827TIP3   OH247971   6.750   5.328   5.343 -0.0098 -0.2809  0.1083
 8827TIP3    H147972   6.797   5.375   5.412  1.4683 -1.2408 -0.1957
 8827TIP3    H247973   6.694   5.394   5.303  0.1271  0.6176  1.3179
 8828TIP3   OH247974   4.997   1.401  17.190  0.0488  0.0566 -0.0536
 8828TIP3    H147975   4.932   1.453  17.143  0.8277  0.9768 -0.1343
 8828TIP3    H247976   4.967   1.310  17.180 -0.4153  0.3394 -1.3530
 8829TIP3   OH247977   6.600   4.161  14.048  0.1314  0.3191 -0.4253
 8829TIP3    H147978   6.690   4.173  14.016 -0.4587  1.7496 -1.7100
 8829TIP3    H247979   6.546   4.206  13.982 -1.2941  2.3939  1.9832
 8830TIP3   OH247980   6.775   3.298   3.446  0.2895  0.5559  0.0542
 8830TIP3    H147981   6.860   3.319   3.484  0.0368  2.6040 -0.4047
 8830TIP3    H247982   6.790   3.294   3.352 -0.3751  2.5414 -0.1763
 8831TIP3   OH247983   1.752   3.931   1.102  0.0666  0.0444 -0.8560
 8831TIP3    H147984   1.694   3.963   1.033 -1.0100 -1.0820 -0.5141
 8831TIP3    H247985   1.738   3.992   1.174  1.3744  1.3677 -1.6691
 8832TIP3   OH247986   6.674   5.732   3.605 -0.2435  0.3101 -0.0521
 8832TIP3    H147987   6.641   5.644   3.586 -0.7833  0.1619  1.4378
 8832TIP3    H247988   6.601   5.790   3.584 -0.8743  0.1381  1.5014
 8833TIP3   OH247989   2.679   3.652   0.642  0.9776  0.2700 -0.3683
 8833TIP3    H147990   2.766   3.664   0.605  0.9844 -1.4860 -1.0158
 8833TIP3    H247991   2.692   3.661   0.736  2.1288 -1.1944 -0.3454
 8834TIP3   OH247992   4.967   2.151  12.725  1.1301 -0.0306 -0.5518
 8834TIP3    H147993   4.873   2.150  12.707  0.8798  2.3230  0.2281
 8834TIP3    H247994   5.008   2.123  12.643 -0.1746  1.7631 -1.8856
 8835TIP3   OH247995   4.589   0.243   4.155 -0.3430  0.2733  0.6263
 8835TIP3    H147996   4.585   0.174   4.088 -0.1255 -0.1560  1.0427
 8835TIP3    H247997   4.648   0.207   4.221 -1.2569  0.3099  1.4789
 8836TIP3   OH247998   3.849   3.061   3.012  0.1884  0.0524 -0.4121
 8836TIP3    H147999   3.876   3.118   3.084  0.0614  0.2454 -0.5192
 8836TIP3    H248000   3.754   3.056   3.019  0.0832  0.8661 -1.1691
 8837TIP3   OH248001   4.648   6.631  14.680  0.1267 -0.2429  0.0571
 8837TIP3    H148002   4.678   6.547  14.644  0.6665 -0.4545  0.9584
 8837TIP3    H248003   4.685   6.633  14.768 -1.3998  0.1114  0.7243
 8838TIP3   OH248004   4.878   4.308  13.037 -0.5139 -0.8273 -0.2423
 8838TIP3    H148005   4.803   4.251  13.054 -1.1065  0.5482  2.0881
 8838TIP3    H248006   4.849   4.364  12.965 -1.8377 -0.1623  0.7775
 8839TIP3   OH248007   4.791   4.923  15.992  0.0912  0.0635  0.7483
 8839TIP3    H148008   4.826   5.004  16.027 -0.6473  0.4485  0.6171
 8839TIP3    H248009   4.858   4.857  16.012  0.7607  0.7246  0.7259
 8840TIP3   OH248010   4.297   4.047   0.122 -0.2543 -0.2492 -0.9333
 8840TIP3    H148011   4.331   4.092   0.198 -1.6608  0.2270 -0.5577
 8840TIP3    H248012   4.265   3.963   0.156 -0.5471 -0.1873 -1.0459
 8841TIP3   OH248013   3.815   3.937   1.473  0.2323  0.1020  0.3437
 8841TIP3    H148014   3.751   3.961   1.540  1.7157 -0.2449  1.9582
 8841TIP3    H248015   3.859   4.019   1.450 -0.3028  0.2274 -0.2503
 8842TIP3   OH248016   2.807   1.996   1.014  0.6504  0.5690 -0.0911
 8842TIP3    H148017   2.772   2.000   1.103 -1.6526 -1.8598 -0.7504
 8842TIP3    H248018   2.855   1.913   1.012 -0.1247  0.1346 -1.3496
 8843TIP3   OH248019   6.749   6.205   0.708  0.0576  0.7872  0.0693
 8843TIP3    H148020   6.669   6.201   0.761 -1.1988  1.0134 -1.7203
 8843TIP3    H248021   6.763   6.299   0.693  0.2020  0.7096 -0.2876
 8844TIP3   OH248022   6.394   4.909  15.470 -0.1603  0.3094  0.4364
 8844TIP3    H148023   6.305   4.940  15.451 -0.2668 -1.2107 -1.9006
 8844TIP3    H248024   6.381   4.823  15.510  0.2542 -0.0519 -0.1985
 8845TIP3   OH248025   6.339   4.135   5.348 -0.4945  0.6399 -0.3901
 8845TIP3    H148026   6.329   4.058   5.404 -1.7929  0.1625 -1.2299
 8845TIP3    H248027   6.315   4.105   5.260 -1.3905  2.0699 -0.6813
 8846TIP3   OH248028   0.570   1.372  13.543 -0.1524  0.3273  0.2509
 8846TIP3    H148029   0.526   1.435  13.486  0.6052  0.1339 -0.5684
 8846TIP3    H248030   0.616   1.426  13.607 -0.6094  0.5634  0.3853
 8847TIP3   OH248031   3.116   0.201   2.140 -0.3324 -0.1742  0.7229
 8847TIP3    H148032   3.116   0.144   2.064  0.8803 -0.5021  0.9489
 8847TIP3    H248033   3.194   0.176   2.190 -2.5185 -1.8935  3.5565
 8848TIP3   OH248034   1.438   1.809  17.500 -0.1900  0.6144 -0.3369
 8848TIP3    H148035   1.407   1.755  17.427  0.6566  0.8877 -0.9145
 8848TIP3    H248036   1.532   1.818  17.485 -0.2027  1.6813  0.1220
 8849TIP3   OH248037   4.133   6.240  14.951  0.0176  0.4141 -0.0137
 8849TIP3    H148038   4.110   6.331  14.932  0.3759  0.1650 -1.7626
 8849TIP3    H248039   4.181   6.245  15.033  1.0485  1.9682 -0.6663
 8850TIP3   OH248040   5.187   2.757  12.796  0.6397  0.3318 -0.4220
 8850TIP3    H148041   5.212   2.823  12.861  0.9441  1.3008 -1.5024
 8850TIP3    H248042   5.261   2.697  12.794  1.1900  1.0017 -0.7627
 8851TIP3   OH248043   1.445   4.724   2.662  0.2524  0.0554 -0.5685
 8851TIP3    H148044   1.459   4.787   2.591  0.3562  0.7631  0.0635
 8851TIP3    H248045   1.415   4.778   2.736 -0.6309 -0.7702 -0.3104
 8852TIP3   OH248046   1.332   1.398   0.813 -0.5884  0.3509  0.0221
 8852TIP3    H148047   1.342   1.436   0.901 -1.9936  0.7422  0.0430
 8852TIP3    H248048   1.261   1.335   0.822  0.2288 -0.6808 -0.5314
 8853TIP3   OH248049   1.794   0.934  11.234 -0.4952  0.0113 -0.1301
 8853TIP3    H148050   1.770   0.849  11.197 -0.1608 -0.3728  0.5137
 8853TIP3    H248051   1.884   0.949  11.205  0.4353 -1.1476  1.9648
 8854TIP3   OH248052   0.488   6.710   0.339  0.6194 -0.1412  0.0979
 8854TIP3    H148053   0.432   6.766   0.285 -1.3066 -2.0289  0.0236
 8854TIP3    H248054   0.544   6.664   0.276  1.2428  0.6474  0.0596
 8855TIP3   OH248055   2.849   0.519   6.301 -0.3630  0.5383  0.3090
 8855TIP3    H148056   2.756   0.540   6.314 -0.7968  1.5990 -3.3970
 8855TIP3    H248057   2.849   0.458   6.227  1.9358  2.9083 -1.8622
 8856TIP3   OH248058   3.034   3.340  15.999 -0.0786  0.6572  0.1861
 8856TIP3    H148059   2.977   3.284  15.947  0.0603  0.2632  0.4475
 8856TIP3    H248060   2.987   3.351  16.082  0.7537 -0.6698  0.8615
 8857TIP3   OH248061   4.886   1.223  12.230  0.0074  0.0046  0.1837
 8857TIP3    H148062   4.893   1.239  12.324 -0.1533  2.5934 -0.1621
 8857TIP3    H248063   4.967   1.178  12.207  0.1053 -0.5616  1.5296
 8858TIP3   OH248064   2.743   0.548   3.441  0.6415  0.1428 -0.3311
 8858TIP3    H148065   2.751   0.531   3.347  1.9635  0.7572 -0.3498
 8858TIP3    H248066   2.714   0.639   3.446 -0.4828 -0.2139 -0.1452
 8859TIP3   OH248067   1.921   2.894   4.868 -0.0486  0.7664 -0.7189
 8859TIP3    H148068   2.014   2.899   4.889  0.1493  1.3366 -1.6848
 8859TIP3    H248069   1.915   2.822   4.805 -0.2239  0.9017 -0.8565
 8860TIP3   OH248070   4.638   0.429   3.672  0.1360 -0.1358 -0.0119
 8860TIP3    H148071   4.683   0.346   3.654 -1.1013 -1.0295  0.8182
 8860TIP3    H248072   4.547   0.412   3.648  0.0730  1.4216 -1.0478
 8861TIP3   OH248073   5.757   1.997   5.048  0.3640  0.2433 -0.0496
 8861TIP3    H148074   5.828   2.042   5.094  0.2689  2.3525 -1.7871
 8861TIP3    H248075   5.797   1.918   5.013  1.0050 -0.2150  1.6419
 8862TIP3   OH248076   4.888   5.870   5.631 -0.3092  0.2902 -0.3571
 8862TIP3    H148077   4.939   5.838   5.706 -0.4777 -0.5641 -0.5892
 8862TIP3    H248078   4.932   5.831   5.555 -0.6267  0.4875 -0.6423
 8863TIP3   OH248079   0.922   5.927  17.474  0.0510 -0.0542  0.1840
 8863TIP3    H148080   0.969   5.962  17.398  2.4321 -1.4225  0.9426
 8863TIP3    H248081   0.981   5.940  17.548 -0.8693 -1.5808  1.2575
 8864TIP3   OH248082   4.417   3.371  12.105  0.1372 -0.1449  0.2363
 8864TIP3    H148083   4.486   3.434  12.085 -1.8065  1.7743 -0.8876
 8864TIP3    H248084   4.438   3.340  12.193  2.9651 -0.4805 -0.4471
 8865TIP3   OH248085   5.039   4.159   6.024  0.6687 -0.4001 -0.0172
 8865TIP3    H148086   4.998   4.091   6.078  0.6190 -1.5068 -1.3717
 8865TIP3    H248087   5.088   4.213   6.086 -0.9423 -0.4246  1.3652
 8866TIP3   OH248088   2.514   4.163  15.552  0.0347  0.6687  0.3300
 8866TIP3    H148089   2.573   4.137  15.623  0.2137  1.9366  0.6803
 8866TIP3    H248090   2.459   4.086  15.537 -0.6258  0.6378  2.4812
 8867TIP3   OH248091   6.686   4.344  15.106 -0.3472  0.2459  0.3012
 8867TIP3    H148092   6.697   4.249  15.103 -2.3231 -0.0087 -0.1881
 8867TIP3    H248093   6.734   4.371  15.185  0.8877 -1.0231  0.0311
 8868TIP3   OH248094   2.962   0.723  14.063 -0.0188 -0.3965 -0.0447
 8868TIP3    H148095   2.984   0.776  14.139  0.4949 -1.2305  0.4017
 8868TIP3    H248096   2.895   0.662  14.094  0.9789 -1.4813  0.0691
 8869TIP3   OH248097   5.687   1.986  12.482 -0.4775 -0.3420 -0.4142
 8869TIP3    H148098   5.652   1.900  12.503 -0.8210 -0.1075 -0.0109
 8869TIP3    H248099   5.663   2.041  12.557  1.0799 -0.2596  0.0552
 8870TIP3   OH248100   2.298   6.209   3.084  0.8364 -0.7770 -0.0636
 8870TIP3    H148101   2.216   6.163   3.104  0.5694  0.1344  1.0287
 8870TIP3    H248102   2.364   6.140   3.085  0.4135 -1.2078  1.3703
 8871TIP3   OH248103   4.938   5.255  12.877  0.2149 -0.3010 -0.8744
 8871TIP3    H148104   4.859   5.278  12.928 -0.2550  0.3375 -1.8535
 8871TIP3    H248105   4.999   5.327  12.894 -0.1934  0.2656 -1.7008
 8872TIP3   OH248106   4.650   3.866   0.175 -0.0066 -0.0218  0.1090
 8872TIP3    H148107   4.713   3.830   0.238 -1.6339  0.4939  2.1368
 8872TIP3    H248108   4.645   3.959   0.198 -0.9624  0.0894 -0.5165
 8873TIP3   OH248109   3.647   0.083  13.964  0.3088 -0.1569  0.0400
 8873TIP3    H148110   3.677   0.081  13.873 -1.2486  0.3036 -0.5248
 8873TIP3    H248111   3.607   0.170  13.974 -1.4258 -0.9561  0.4919
 8874TIP3   OH248112   3.702   6.554   5.638 -0.4839  0.6710  0.2167
 8874TIP3    H148113   3.618   6.578   5.676 -0.4439  1.6308 -0.2879
 8874TIP3    H248114   3.743   6.637   5.614  0.6328  0.2173  0.5020
 8875TIP3   OH248115   5.137   2.815  13.615 -0.3964  0.0923  0.2036
 8875TIP3    H148116   5.148   2.760  13.693  0.0924  0.2532  0.2492
 8875TIP3    H248117   5.095   2.757  13.551  0.0496 -0.3234  0.2752
 8876TIP3   OH248118   3.904   0.450  15.621 -0.0964 -0.1008  0.8381
 8876TIP3    H148119   3.867   0.446  15.532  0.9474  0.2791  0.3710
 8876TIP3    H248120   3.889   0.362  15.657  1.2401 -0.9055 -0.4618
 8877TIP3   OH248121   4.566   0.484   2.352  0.0965 -0.1994  0.1049
 8877TIP3    H148122   4.499   0.439   2.301 -0.8922  1.4101 -0.0802
 8877TIP3    H248123   4.626   0.520   2.287 -0.5062  0.8455  0.1114
 8878TIP3   OH248124   2.222   4.504  13.970  0.3117 -0.2391 -0.3629
 8878TIP3    H148125   2.301   4.491  13.916  1.0979 -0.8529  0.8983
 8878TIP3    H248126   2.164   4.433  13.944  1.0910 -1.1429  0.2700
 8879TIP3   OH248127   2.667   0.520   5.039 -0.4058 -0.1371  0.1198
 8879TIP3    H148128   2.751   0.500   4.997  0.1553  0.9057  0.6810
 8879TIP3    H248129   2.601   0.501   4.973 -0.0029 -3.7202  0.5641
 8880TIP3   OH248130   5.689   0.844  17.445 -0.3640 -0.6836  0.1074
 8880TIP3    H148131   5.725   0.802  17.367 -1.2761 -1.5330  0.1262
 8880TIP3    H248132   5.747   0.817  17.516  0.8519  0.6158 -0.3530
 8881TIP3   OH248133   2.565   1.372   1.290  0.3444 -0.0024 -0.1135
 8881TIP3    H148134   2.529   1.452   1.329  0.6436 -0.7753  1.8691
 8881TIP3    H248135   2.494   1.337   1.236  0.4060  1.8577 -1.4857
 8882TIP3   OH248136   2.825   1.773  14.307 -0.2268 -0.1745  0.2198
 8882TIP3    H148137   2.842   1.737  14.220 -2.3269 -1.4492  0.2692
 8882TIP3    H248138   2.819   1.868  14.293  1.6819 -0.1272 -0.5805
 8883TIP3   OH248139   2.300   3.734   1.879  0.1944 -0.1598  0.2299
 8883TIP3    H148140   2.270   3.803   1.939 -0.9327  0.2827 -0.7926
 8883TIP3    H248141   2.321   3.780   1.799  3.0183 -0.5691  0.6483
 8884TIP3   OH248142   0.581   5.785   5.573  0.1374 -0.6680  0.6403
 8884TIP3    H148143   0.503   5.741   5.606 -0.8549  0.0247 -0.7096
 8884TIP3    H248144   0.571   5.876   5.602 -1.8603  0.5169 -3.1291
 8885TIP3   OH248145   2.965   2.115   1.241  0.0021  0.2540 -0.0935
 8885TIP3    H148146   3.013   2.197   1.227  1.1126 -0.1729  1.0717
 8885TIP3    H248147   3.033   2.047   1.238 -0.5688 -0.3948  1.2437
 8886TIP3   OH248148   3.290   1.440   6.715 -1.1316 -0.6142 -0.1005
 8886TIP3    H148149   3.261   1.353   6.742 -0.8374 -0.7559 -0.2300
 8886TIP3    H248150   3.223   1.500   6.748  0.6736 -0.4148  3.7041
 8887TIP3   OH248151   4.786   5.009   2.983 -0.2890 -0.4901  0.1369
 8887TIP3    H148152   4.824   4.936   2.933 -0.6034 -0.7664  0.3015
 8887TIP3    H248153   4.794   4.983   3.074  0.6611  0.1987  0.2639
 8888TIP3   OH248154   5.400   0.792   6.365  0.2774 -0.0976 -0.5528
 8888TIP3    H148155   5.464   0.782   6.294  0.5785  2.3242 -0.7204
 8888TIP3    H248156   5.439   0.858   6.423 -0.5231 -1.1395  1.2282
 8889TIP3   OH248157   0.294   6.569  16.411 -0.3285  0.4072  0.1455
 8889TIP3    H148158   0.305   6.656  16.450 -1.6003  0.3125  0.7971
 8889TIP3    H248159   0.203   6.568  16.380 -0.2958 -0.6434  0.0346
 8890TIP3   OH248160   0.025   5.277  14.804 -0.4390 -0.6420 -0.3701
 8890TIP3    H148161  -0.050   5.331  14.830 -0.6049  0.9045 -3.6071
 8890TIP3    H248162   0.098   5.312  14.854 -1.4799 -1.0404  1.5440
 8891TIP3   OH248163   3.580   6.035   4.160  0.1293 -0.2351 -0.1088
 8891TIP3    H148164   3.508   6.045   4.097  1.7121  2.3349 -1.6791
 8891TIP3    H248165   3.583   6.118   4.206  2.8529  0.2476 -0.9868
 8892TIP3   OH248166   4.351   2.975  10.576  0.1756 -0.3704  0.3290
 8892TIP3    H148167   4.369   2.899  10.631  0.0995 -0.4392  0.2600
 8892TIP3    H248168   4.430   2.988  10.525  0.2573 -0.2883  0.4764
 8893TIP3   OH248169   2.689   2.764   0.614  0.0008  0.0623  0.4249
 8893TIP3    H148170   2.612   2.779   0.560  0.3134  0.5020  0.0901
 8893TIP3    H248171   2.719   2.852   0.639 -1.3665 -0.1264  3.1285
 8894TIP3   OH248172   5.499   3.434  17.154  0.0097 -0.2417 -0.5655
 8894TIP3    H148173   5.571   3.488  17.124 -1.0109  0.9702 -0.9374
 8894TIP3    H248174   5.533   3.345  17.152  1.8915  0.3927  0.4831
 8895TIP3   OH248175   3.610   6.612   6.078 -0.0167 -0.4583 -0.2157
 8895TIP3    H148176   3.591   6.594   6.170  2.3525  1.8481  0.8848
 8895TIP3    H248177   3.591   6.706   6.068  1.1959 -0.3215 -1.6186
 8896TIP3   OH248178   0.555   4.598  14.205 -0.9305  0.4508 -0.1795
 8896TIP3    H148179   0.527   4.674  14.153  0.7979  1.2020 -0.1009
 8896TIP3    H248180   0.604   4.544  14.143  0.2424  0.8323  0.3753
 8897TIP3   OH248181   3.054   5.227  14.890  0.1908 -0.4599 -0.7610
 8897TIP3    H148182   3.032   5.155  14.831 -1.3928 -0.7899  0.1674
 8897TIP3    H248183   3.007   5.303  14.854  1.9001  0.1727 -1.7717
 8898TIP3   OH248184   0.707   0.205  15.646  0.2342  0.0195  0.1952
 8898TIP3    H148185   0.787   0.153  15.643  0.9214  1.0855 -1.2193
 8898TIP3    H248186   0.736   0.292  15.674 -0.8600 -0.2352  2.2907
 8899TIP3   OH248187   3.828   5.142  14.483  0.2488  0.1357  0.1884
 8899TIP3    H148188   3.865   5.071  14.535  0.8204 -0.0980 -0.5163
 8899TIP3    H248189   3.897   5.163  14.420 -0.7939 -0.2349 -1.1017
 8900TIP3   OH248190   0.288   1.559  13.839  0.6660  0.2430  0.3143
 8900TIP3    H148191   0.237   1.568  13.759  0.1557  1.0636  0.7135
 8900TIP3    H248192   0.289   1.464  13.856 -0.8449  0.2054  0.3570
 8901TIP3   OH248193   2.664   0.342  13.631  0.2124 -0.0809  0.0593
 8901TIP3    H148194   2.569   0.351  13.621  0.3318  0.1980 -0.9862
 8901TIP3    H248195   2.700   0.424  13.597  0.7925  0.2663  1.4476
 8902TIP3   OH248196   1.752   5.566   2.042 -0.1292 -0.4509 -0.1455
 8902TIP3    H148197   1.669   5.593   2.002 -1.0109 -1.9385  0.6002
 8902TIP3    H248198   1.793   5.509   1.978 -0.5818 -1.2151  0.2388
 8903TIP3   OH248199   6.469   3.958   0.320 -0.0878  0.5160  0.5403
 8903TIP3    H148200   6.548   3.997   0.282 -0.2474  0.6910  0.3862
 8903TIP3    H248201   6.412   4.032   0.338 -0.6376  0.3079 -0.3084
 8904TIP3   OH248202   2.508   6.670   1.832  0.0486 -0.3486 -0.0964
 8904TIP3    H148203   2.585   6.642   1.783  0.9164  0.5040  0.7500
 8904TIP3    H248204   2.542   6.705   1.914 -1.0759  1.8729 -0.4965
 8905TIP3   OH248205   1.391   3.225   5.538  0.1396 -0.4847  0.5747
 8905TIP3    H148206   1.336   3.219   5.460 -0.6520 -2.6977  1.2310
 8905TIP3    H248207   1.368   3.309   5.577 -0.0605  0.2796 -1.1057
 8906TIP3   OH248208   1.558   6.649  11.722 -0.4767  0.3549  0.0846
 8906TIP3    H148209   1.606   6.725  11.755 -1.2749  0.8703  0.0991
 8906TIP3    H248210   1.521   6.608  11.800 -0.2289  0.0839  0.0573
 8907TIP3   OH248211   5.932   4.221   3.245  0.2049  0.2761  0.1940
 8907TIP3    H148212   5.889   4.204   3.330 -0.6371 -0.1084 -0.2974
 8907TIP3    H248213   6.004   4.280   3.267 -0.1766  0.4183  1.1430
 8908TIP3   OH248214   3.403   6.204   1.946  0.3521 -0.0102  0.3400
 8908TIP3    H148215   3.442   6.243   1.868 -0.4449  1.7500  0.7612
 8908TIP3    H248216   3.320   6.251   1.958 -0.6969 -1.9009  0.8935
 8909TIP3   OH248217   0.595   3.187  11.112 -0.1549 -0.0368  0.0100
 8909TIP3    H148218   0.568   3.232  11.192  0.0537 -0.5018  0.3469
 8909TIP3    H248219   0.673   3.138  11.137 -0.0984 -0.2029 -0.4732
 8910TIP3   OH248220   0.797   5.804  16.161 -0.2988  0.6068  0.5341
 8910TIP3    H148221   0.826   5.886  16.200 -1.5357  0.4011  1.9844
 8910TIP3    H248222   0.726   5.774  16.218  1.4128 -2.5130  1.2995
 8911TIP3   OH248223   3.607   5.650   3.617  0.4135 -0.7124 -0.4112
 8911TIP3    H148224   3.679   5.603   3.575  1.5167  0.3653  0.2329
 8911TIP3    H248225   3.649   5.713   3.676 -1.0673 -0.9399  0.9684
 8912TIP3   OH248226   4.423   3.694  14.946 -0.3371 -0.3395  0.1639
 8912TIP3    H148227   4.446   3.634  14.875  2.6708 -0.1413  0.8310
 8912TIP3    H248228   4.385   3.637  15.013 -2.0087 -0.7084 -1.0258
 8913TIP3   OH248229   3.628   5.500  12.058 -0.3603  0.1113 -0.3360
 8913TIP3    H148230   3.694   5.452  12.107  1.1313  0.5786 -1.7877
 8913TIP3    H248231   3.607   5.443  11.983 -0.3327  0.6870 -0.7912
 8914TIP3   OH248232   2.320   3.447  14.034 -0.1683 -0.2073  0.0364
 8914TIP3    H148233   2.326   3.436  14.129 -0.9541  2.2907  0.4250
 8914TIP3    H248234   2.271   3.528  14.022 -1.4403 -1.2553 -2.5428
 8915TIP3   OH248235   2.699   2.475   1.352  0.0753 -0.0444 -0.1321
 8915TIP3    H148236   2.650   2.554   1.333  2.3928  1.2084 -1.3879
 8915TIP3    H248237   2.781   2.506   1.391 -0.4542 -2.0790  3.0047
 8916TIP3   OH248238   3.538   1.300  14.133 -0.5781 -0.0780 -0.5518
 8916TIP3    H148239   3.553   1.212  14.168 -0.6677 -0.2241 -0.8776
 8916TIP3    H248240   3.517   1.353  14.210  1.6495  0.1652 -0.0366
 8917TIP3   OH248241   5.324   1.253   5.447  0.0519 -0.2036 -0.3455
 8917TIP3    H148242   5.353   1.343   5.432  0.9013 -0.2892  0.7006
 8917TIP3    H248243   5.347   1.235   5.538 -0.3729 -1.3900 -0.4582
 8918TIP3   OH248244   0.764   5.107   3.056 -0.2024  0.0346  0.3798
 8918TIP3    H148245   0.825   5.181   3.060 -1.0744  0.8018  0.1344
 8918TIP3    H248246   0.802   5.040   3.112  0.3209  0.9021  1.0878
 8919TIP3   OH248247   2.369   3.700  11.689  0.2137  0.2096  0.2242
 8919TIP3    H148248   2.339   3.648  11.764 -0.6137 -0.1934 -0.3590
 8919TIP3    H248249   2.395   3.784  11.726 -3.5047  1.3625  0.6712
 8920TIP3   OH248250   2.386   2.350  11.123  1.0220 -0.1557  0.0853
 8920TIP3    H148251   2.427   2.268  11.095  1.1173  0.1600 -0.7256
 8920TIP3    H248252   2.364   2.395  11.042 -1.2430 -0.4619  0.4528
 8921TIP3   OH248253   3.715   1.305   3.884 -0.4403 -0.1702 -0.3245
 8921TIP3    H148254   3.694   1.217   3.853  1.2338 -1.1850  1.2102
 8921TIP3    H248255   3.806   1.299   3.913 -0.4620  1.9305  0.3580
 8922TIP3   OH248256   4.188   0.061  15.055  0.0471 -0.3523 -0.2468
 8922TIP3    H148257   4.283   0.056  15.042 -0.0716 -0.8399 -1.0037
 8922TIP3    H248258   4.165  -0.020  15.099  0.1771  0.4554  1.3836
 8923TIP3   OH248259   5.360   0.777  17.349  0.0075 -0.0710  0.3070
 8923TIP3    H148260   5.381   0.700  17.401  0.6004  0.8041  1.3929
 8923TIP3    H248261   5.429   0.840  17.369 -0.1570  0.5572 -0.9790
 8924TIP3   OH248262   1.092   0.461   4.562 -0.0281 -0.7069 -0.1102
 8924TIP3    H148263   1.184   0.488   4.562  0.1796 -1.3901 -0.0078
 8924TIP3    H248264   1.070   0.455   4.655 -0.7200  1.2033 -0.1118
 8925TIP3   OH248265   5.150   5.645   4.368 -0.2208  0.2687 -0.3758
 8925TIP3    H148266   5.142   5.565   4.317  1.1696  0.3429 -0.7406
 8925TIP3    H248267   5.107   5.712   4.315 -0.4092 -0.0145 -0.5830
 8926TIP3   OH248268   3.968   4.972  16.837  0.6816 -0.2240  0.1364
 8926TIP3    H148269   3.884   5.014  16.856  0.7480  0.3223 -0.7532
 8926TIP3    H248270   4.012   5.031  16.776  1.1777 -1.1147 -0.3908
 8927TIP3   OH248271   2.969   6.631   5.285 -0.8813 -0.5134  0.2588
 8927TIP3    H148272   2.988   6.615   5.377 -1.2341  0.6459  0.5576
 8927TIP3    H248273   2.896   6.572   5.265 -2.8066  1.2360  1.5846
 8928TIP3   OH248274   0.129   1.145  17.438  0.3710  0.2894 -0.5037
 8928TIP3    H148275   0.112   1.107  17.352 -2.6003 -0.8963  0.4787
 8928TIP3    H248276   0.170   1.075  17.488  1.0055  0.5991 -0.5713
 8929TIP3   OH248277   6.149   2.651  11.300  0.3884 -0.0258  0.0445
 8929TIP3    H148278   6.093   2.662  11.376 -0.5339  2.7951 -0.9399
 8929TIP3    H248279   6.089   2.633  11.228  1.0740 -0.5415 -0.4156
 8930TIP3   OH248280   5.163   4.213   6.753  0.3189 -0.1219 -0.0139
 8930TIP3    H148281   5.083   4.223   6.805 -0.4275  0.9266 -1.2934
 8930TIP3    H248282   5.132   4.198   6.664  1.5619  0.0466 -0.4947
 8931TIP3   OH248283   0.926   2.297  16.209 -0.1026  0.2524 -0.0102
 8931TIP3    H148284   0.965   2.226  16.261 -1.2426 -0.4760 -0.1276
 8931TIP3    H248285   0.919   2.370  16.271  2.7993  0.9649 -0.3459
 8932TIP3   OH248286   0.182   5.236  15.287 -0.0664  0.6481  0.5364
 8932TIP3    H148287   0.220   5.323  15.277  0.2079  0.5188  0.4265
 8932TIP3    H248288   0.178   5.202  15.197 -1.8519  1.2375  0.3506
 8933TIP3   OH248289   4.020   5.881  15.423  0.2933  0.5686  0.5056
 8933TIP3    H148290   4.002   5.802  15.372  1.4700  1.5753 -1.6229
 8933TIP3    H248291   3.934   5.915  15.447 -0.3150  0.0087 -0.7929
 8934TIP3   OH248292   3.869   6.176   1.394  0.6552 -0.6211  0.3111
 8934TIP3    H148293   3.786   6.130   1.404  0.8481 -0.7854  1.1631
 8934TIP3    H248294   3.922   6.148   1.468  0.9980  0.4811  0.5118
 8935TIP3   OH248295   0.765   1.663   4.521  0.1074  0.1281 -0.4537
 8935TIP3    H148296   0.758   1.744   4.571 -2.0926  1.0956 -2.1407
 8935TIP3    H248297   0.691   1.610   4.551  0.4336 -0.4632 -0.6746
 8936TIP3   OH248298   3.869   3.813  16.721  0.2141 -0.5213  0.0414
 8936TIP3    H148299   3.940   3.862  16.680 -1.3874  1.5733 -0.3623
 8936TIP3    H248300   3.819   3.777  16.647 -0.0143 -0.7011  0.2828
 8937TIP3   OH248301   5.702   6.240   0.866  0.3108 -0.7207  0.3615
 8937TIP3    H148302   5.681   6.177   0.796  1.3100 -0.3265 -0.2995
 8937TIP3    H248303   5.689   6.326   0.826 -0.3146 -0.4888  1.0407
 8938TIP3   OH248304   1.643   4.423   4.468  0.9343 -0.6319  0.2960
 8938TIP3    H148305   1.601   4.430   4.554 -1.1296 -0.9079 -0.6110
 8938TIP3    H248306   1.632   4.331   4.443 -0.5499 -0.1113 -1.1764
 8939TIP3   OH248307   0.857   3.929  15.507  0.1261  0.2102  0.0485
 8939TIP3    H148308   0.940   3.886  15.488 -0.5619 -0.6180 -1.2539
 8939TIP3    H248309   0.808   3.864  15.558  0.1527  0.5724  0.5408
 8940TIP3   OH248310   4.662   4.070  11.473 -0.0597 -0.4400 -0.2649
 8940TIP3    H148311   4.600   4.107  11.410 -0.0368  2.9340  1.4869
 8940TIP3    H248312   4.664   3.976  11.452 -3.8999 -0.3434 -1.9229
 8941TIP3   OH248313   1.394   4.444   3.142 -0.4677 -0.2660  0.4854
 8941TIP3    H148314   1.311   4.414   3.106 -1.4775  2.2458  0.5076
 8941TIP3    H248315   1.456   4.433   3.070 -1.5150  0.6806 -0.6041
 8942TIP3   OH248316   2.848   3.321  12.583  0.0575 -0.4051 -0.2364
 8942TIP3    H148317   2.878   3.361  12.501 -3.0295  1.4257 -0.6219
 8942TIP3    H248318   2.824   3.232  12.559 -0.9214  0.1495 -1.4041
 8943TIP3   OH248319   2.345   0.120  13.361  0.0330 -0.1812  0.1549
 8943TIP3    H148320   2.262   0.102  13.317  0.8163 -0.5419 -1.2445
 8943TIP3    H248321   2.322   0.132  13.453 -1.8512  1.7466 -0.4895
 8944TIP3   OH248322   2.697   6.560   0.266  0.1834 -0.4690 -0.0615
 8944TIP3    H148323   2.708   6.489   0.203  0.1284 -0.9433  0.4619
 8944TIP3    H248324   2.603   6.562   0.284  0.2303 -0.4793  0.1822
 8945TIP3   OH248325   2.435   3.726  12.810 -0.0108  0.6068  0.4831
 8945TIP3    H148326   2.491   3.674  12.868 -0.3673 -1.0999 -0.6451
 8945TIP3    H248327   2.351   3.681  12.810 -0.6791  1.7928  0.2694
 8946TIP3   OH248328   1.017   1.111  12.237 -0.1498 -0.0614  0.2220
 8946TIP3    H148329   1.000   1.119  12.143  0.1289 -1.3610  0.0362
 8946TIP3    H248330   1.098   1.060  12.242 -0.1741 -0.0247  1.1715
 8947TIP3   OH248331   6.286   5.811   2.099 -0.0724  0.0622  0.2411
 8947TIP3    H148332   6.256   5.811   2.190 -1.9298  0.6201 -0.3335
 8947TIP3    H248333   6.363   5.867   2.100  0.3280 -0.4708  1.5755
 8948TIP3   OH248334   6.444   5.569   1.020  0.4960  0.1097 -0.3725
 8948TIP3    H148335   6.408   5.597   1.104 -2.3194  0.0651 -1.4678
 8948TIP3    H248336   6.467   5.650   0.975  0.9206  0.1778 -0.0446
 8949TIP3   OH248337   3.643   5.145   0.823  0.7078  0.0204  0.3789
 8949TIP3    H148338   3.638   5.223   0.878  1.1935 -0.0380  0.5134
 8949TIP3    H248339   3.581   5.084   0.863  0.3657  0.3228  0.3022
 8950TIP3   OH248340   5.824   2.869   1.896  0.1577  0.5887  0.0554
 8950TIP3    H148341   5.744   2.885   1.846  1.2347  2.4592 -1.1773
 8950TIP3    H248342   5.794   2.855   1.985 -1.7049 -1.1905 -0.7807
 8951TIP3   OH248343   4.871   3.180   0.975  0.0444  0.1840  0.2475
 8951TIP3    H148344   4.810   3.221   0.914 -0.5372 -0.3701  0.4414
 8951TIP3    H248345   4.956   3.216   0.952 -0.4816  1.7787  0.6521
 8952TIP3   OH248346   6.358   3.716  15.902 -0.6141  0.2278 -0.0927
 8952TIP3    H148347   6.358   3.778  15.975 -1.7300  0.1574 -0.0226
 8952TIP3    H248348   6.340   3.769  15.825  0.0271  0.2166 -0.2614
 8953TIP3   OH248349   0.803   3.254   2.841  0.1487 -0.4959 -0.6309
 8953TIP3    H148350   0.750   3.185   2.880  3.0408 -2.2591  0.5367
 8953TIP3    H248351   0.800   3.326   2.903  0.7554 -1.3830  0.4530
 8954TIP3   OH248352   1.474   6.592   3.176  0.2237  0.3158  0.0861
 8954TIP3    H148353   1.478   6.653   3.249  0.0478  1.9188 -1.1941
 8954TIP3    H248354   1.563   6.589   3.142  0.5359 -1.2043  0.9208
 8955TIP3   OH248355   0.938   0.979  12.733  0.2033 -0.1903 -0.1159
 8955TIP3    H148356   0.873   0.914  12.707  1.4816 -1.3894 -0.4032
 8955TIP3    H248357   0.960   0.956  12.824  0.4239  0.0468 -0.1099
 8956TIP3   OH248358   2.789   2.939  14.891  0.2535 -0.5817  0.0422
 8956TIP3    H148359   2.702   2.976  14.878  0.5973  0.2717  0.0477
 8956TIP3    H248360   2.821   2.981  14.971  1.1467  0.0791 -0.6343
 8957TIP3   OH248361   4.289   5.495  13.345 -0.2566  0.3921 -0.9779
 8957TIP3    H148362   4.255   5.582  13.366 -1.0926  0.2694 -1.7602
 8957TIP3    H248363   4.265   5.441  13.420  1.8296  1.1871  0.3558
 8958TIP3   OH248364   3.162   3.539   4.600  0.0526  0.0385 -0.2597
 8958TIP3    H148365   3.250   3.528   4.637 -0.0577 -0.3610 -0.1150
 8958TIP3    H248366   3.160   3.630   4.570  0.8010 -0.1708 -0.9859
 8959TIP3   OH248367   0.127   5.095   3.759  0.2043 -0.7285  0.4969
 8959TIP3    H148368   0.104   5.130   3.845 -0.9559  0.7071 -0.3383
 8959TIP3    H248369   0.114   5.001   3.766 -4.0051 -0.2997  0.7816
 8960TIP3   OH248370   1.284   4.299  16.754  0.4013 -0.2343  0.5474
 8960TIP3    H148371   1.351   4.258  16.808 -0.0505 -0.2143  1.1268
 8960TIP3    H248372   1.255   4.375  16.804 -1.7412 -1.5556  1.4442
 8961TIP3   OH248373   5.008   0.061   4.391 -0.6527 -0.0535 -0.2110
 8961TIP3    H148374   4.980   0.113   4.316 -1.9815  0.5529  0.6657
 8961TIP3    H248375   5.087   0.105   4.423 -0.6373  0.2518 -0.6683
 8962TIP3   OH248376   4.587   4.687  17.311  0.3676 -0.3887  0.0756
 8962TIP3    H148377   4.663   4.729  17.270 -1.0227  1.0624 -1.1133
 8962TIP3    H248378   4.513   4.741  17.286 -1.1500 -2.0075  0.8694
 8963TIP3   OH248379   4.791   6.453  12.730  0.2958  0.1810  0.1451
 8963TIP3    H148380   4.720   6.428  12.670 -0.7457 -0.3053  1.5137
 8963TIP3    H248381   4.848   6.376  12.733  2.0843  1.2671 -2.5046
 8964TIP3   OH248382   1.723   4.827   6.326  0.8151  0.1220 -0.2303
 8964TIP3    H148383   1.689   4.815   6.415  0.1990  0.9948 -0.3298
 8964TIP3    H248384   1.815   4.850   6.339  0.7554  0.1443  0.1817
 8965TIP3   OH248385   3.432   0.287  13.457  0.9195  0.6736 -0.6226
 8965TIP3    H148386   3.441   0.346  13.532 -1.1369  2.0012 -1.3184
 8965TIP3    H248387   3.511   0.303  13.405  2.3105 -0.1549  1.0987
 8966TIP3   OH248388   6.103   5.755  14.556  0.9411 -0.0873 -0.2591
 8966TIP3    H148389   6.153   5.815  14.500  0.9095  1.2397  1.0641
 8966TIP3    H248390   6.144   5.764  14.642 -0.8568  0.1764  0.6022
 8967TIP3   OH248391   4.613   0.062   5.177 -0.3532 -0.3648  0.3909
 8967TIP3    H148392   4.519   0.076   5.187 -0.0620  0.9428  1.6703
 8967TIP3    H248393   4.642   0.134   5.121  0.0213 -0.1845  0.8081
 8968TIP3   OH248394   0.359   4.704   2.821 -0.0929 -0.5085 -0.5701
 8968TIP3    H148395   0.385   4.731   2.909 -1.5336  0.4427 -0.3994
 8968TIP3    H248396   0.329   4.614   2.831 -0.3801 -0.3611 -0.0480
 8969TIP3   OH248397   4.863   6.343  15.864 -0.3163 -0.9388 -0.1392
 8969TIP3    H148398   4.807   6.420  15.872 -1.0157 -1.3550 -0.8712
 8969TIP3    H248399   4.906   6.335  15.949  1.0012  1.1879 -0.5077
 8970TIP3   OH248400   2.940   3.401   5.485  0.3860  0.1155  0.0536
 8970TIP3    H148401   3.018   3.361   5.524  0.1554  1.0800  1.5873
 8970TIP3    H248402   2.879   3.329   5.474  0.4897 -0.2204  1.4719
 8971TIP3   OH248403   1.373   4.487   1.725 -0.0447 -0.5786  0.6670
 8971TIP3    H148404   1.464   4.491   1.754  0.0303  1.1015  0.3064
 8971TIP3    H248405   1.378   4.483   1.630 -0.2766  2.1144  0.4421
 8972TIP3   OH248406   0.045   6.166  15.919 -0.6060 -0.1839  0.5134
 8972TIP3    H148407   0.092   6.249  15.922 -1.2589  0.3148 -1.6122
 8972TIP3    H248408   0.114   6.100  15.927  0.0606  0.5364  0.9162
 8973TIP3   OH248409   1.640   0.176  12.207  0.4115 -0.3185  0.1111
 8973TIP3    H148410   1.548   0.152  12.217  0.4444 -0.2303  0.6228
 8973TIP3    H248411   1.668   0.203  12.294  0.7198  0.3759 -0.1897
 8974TIP3   OH248412   5.795   5.516   3.772 -0.0178  0.5280 -0.0894
 8974TIP3    H148413   5.795   5.561   3.856 -1.3472 -0.5423  0.5167
 8974TIP3    H248414   5.831   5.580   3.710 -1.4793  2.2727  0.7852
 8975TIP3   OH248415   0.014   3.055  14.516 -0.6238  0.1810 -0.1203
 8975TIP3    H148416   0.105   3.074  14.494 -1.2124  2.0834 -1.1303
 8975TIP3    H248417  -0.013   2.989  14.451 -0.3712  0.7092 -0.7722
 8976TIP3   OH248418   4.601   0.118  14.714  0.2396 -0.8554  0.2647
 8976TIP3    H148419   4.530   0.170  14.676 -0.8713 -1.4821  1.3887
 8976TIP3    H248420   4.591   0.031  14.675  0.5143 -0.8910  0.2732
 8977TIP3   OH248421   4.419   5.201   0.521 -0.6906  0.0272  0.7321
 8977TIP3    H148422   4.337   5.228   0.480 -0.9594 -1.1314  0.4466
 8977TIP3    H248423   4.479   5.189   0.447 -0.9326 -1.2706  0.7250
 8978TIP3   OH248424   3.364   5.615   3.077 -0.3789 -0.0670 -0.1920
 8978TIP3    H148425   3.333   5.635   2.989 -1.2780 -0.3706  0.0523
 8978TIP3    H248426   3.315   5.537   3.103  1.4135 -1.2792 -0.2461
 8979TIP3   OH248427   3.779   6.298   3.969  0.3376 -0.3410  0.1678
 8979TIP3    H148428   3.696   6.342   3.986 -1.0067 -2.0913 -1.4886
 8979TIP3    H248429   3.840   6.369   3.947 -1.8024  0.8038 -2.7062
 8980TIP3   OH248430   6.295   5.411   5.292 -0.3078 -0.3010  0.4611
 8980TIP3    H148431   6.282   5.502   5.320  0.9832  0.5875 -1.6031
 8980TIP3    H248432   6.359   5.375   5.353  1.3936  1.1417 -0.3924
 8981TIP3   OH248433   3.352   4.218   5.837  0.3080 -0.0364  0.0276
 8981TIP3    H148434   3.438   4.255   5.814  0.6996 -1.6152 -1.2176
 8981TIP3    H248435   3.315   4.280   5.900  1.0162  2.3303 -1.7670
 8982TIP3   OH248436   0.086   3.340   5.977 -0.1504  0.0814  0.1506
 8982TIP3    H148437  -0.005   3.338   6.007  0.0946 -0.7617  0.8643
 8982TIP3    H248438   0.138   3.332   6.056  0.5675  0.9731 -0.2143
 8983TIP3   OH248439   5.052   0.945   5.045  0.9256  0.1501 -0.6075
 8983TIP3    H148440   5.135   0.989   5.027  1.8870 -1.4602 -0.2923
 8983TIP3    H248441   5.077   0.864   5.089 -0.8310 -0.3232 -0.4121
 8984TIP3   OH248442   5.181   0.872   5.428 -0.2819  0.4804 -0.0530
 8984TIP3    H148443   5.224   0.859   5.512 -0.9205 -0.5344  0.1238
 8984TIP3    H248444   5.216   0.802   5.372 -0.2748  0.8163 -0.4774
 8985TIP3   OH248445   1.313   2.623  15.557 -0.2086 -0.5387  0.1442
 8985TIP3    H148446   1.386   2.603  15.616  0.7890 -3.1590 -1.7932
 8985TIP3    H248447   1.246   2.661  15.613  1.7649 -0.2008  2.4125
 8986TIP3   OH248448   1.093   5.477   2.234 -0.0445 -0.7671 -0.0431
 8986TIP3    H148449   1.135   5.415   2.175  1.2230 -0.0120  0.0253
 8986TIP3    H248450   1.051   5.541   2.176  1.4640  0.1539 -0.2016
 8987TIP3   OH248451   4.020   0.038  14.635 -0.7868  0.0298 -0.0217
 8987TIP3    H148452   4.081  -0.022  14.679  0.3674  1.5707  0.5851
 8987TIP3    H248453   3.934  -0.003  14.647 -0.1165 -1.2040  0.8753
 8988TIP3   OH248454   3.974   3.499  13.191  0.5192  0.2058  0.7335
 8988TIP3    H148455   3.984   3.593  13.176  0.8447 -0.0779 -1.0346
 8988TIP3    H248456   3.892   3.477  13.147  0.0171 -0.2240  1.8427
 8989TIP3   OH248457   3.188   6.700  13.410  0.0382  0.5288 -0.2239
 8989TIP3    H148458   3.179   6.795  13.402  0.1861  0.5708  0.1069
 8989TIP3    H248459   3.098   6.667  13.413 -0.0828  0.4650 -2.4721
 8990TIP3   OH248460   1.931   0.396  16.959 -0.4682  0.1988  0.1094
 8990TIP3    H148461   1.885   0.414  16.877  1.7545  0.8183 -1.0942
 8990TIP3    H248462   1.931   0.480  17.005 -0.1940  0.3041 -0.0811
 8991TIP3   OH248463   5.785   5.741   1.969 -0.5347 -0.2045  0.7280
 8991TIP3    H148464   5.827   5.784   2.044 -0.5702 -0.8224  1.1032
 8991TIP3    H248465   5.856   5.694   1.925 -0.9633 -2.0853  1.9366
 8992TIP3   OH248466   2.059   4.073  14.871 -0.4446  0.6781  0.2140
 8992TIP3    H148467   2.103   4.068  14.956 -1.7992 -0.7837  0.8817
 8992TIP3    H248468   2.004   4.151  14.878  1.3274  2.0462 -0.3251
 8993TIP3   OH248469   2.234   3.672  13.004 -0.1287 -0.2805 -0.3226
 8993TIP3    H148470   2.172   3.645  12.936 -0.8899  0.1920  0.1672
 8993TIP3    H248471   2.228   3.604  13.071 -0.3367 -0.0877 -0.1429
 8994TIP3   OH248472   0.406   1.139   4.129 -0.9085 -0.4734 -0.0189
 8994TIP3    H148473   0.435   1.220   4.086 -2.0764  1.0401  1.8788
 8994TIP3    H248474   0.313   1.132   4.107 -1.3681 -0.0169  1.6677
 8995TIP3   OH248475   6.269   5.925   0.931 -0.3968 -0.1684  0.6491
 8995TIP3    H148476   6.230   5.979   0.862 -0.1540  2.3410  2.3572
 8995TIP3    H248477   6.212   5.938   1.007 -0.4672 -2.5929  1.0854
 8996TIP3   OH248478   4.113   2.360   5.850 -0.0382  0.1289 -0.4640
 8996TIP3    H148479   4.136   2.452   5.861  0.3515 -0.1100  1.0049
 8996TIP3    H248480   4.168   2.314   5.914  0.0797 -1.1730 -1.4589
 8997TIP3   OH248481   3.179   3.121  12.063  0.1070  0.0457  0.0794
 8997TIP3    H148482   3.235   3.164  11.998 -0.4126 -0.0599 -0.4504
 8997TIP3    H248483   3.220   3.035  12.077 -0.3340 -0.3348 -0.8830
 8998TIP3   OH248484   0.219   3.630   5.955  0.0487  0.2212  0.3258
 8998TIP3    H148485   0.215   3.573   5.878 -0.0366  1.9790 -1.0478
 8998TIP3    H248486   0.133   3.622   5.996  0.6528 -2.0453  1.2995
 8999TIP3   OH248487   4.845   3.315   6.045  0.4199 -0.6880  0.1199
 8999TIP3    H148488   4.787   3.305   5.969  0.6577  1.0813 -0.3389
 8999TIP3    H248489   4.818   3.398   6.085  1.1147 -0.9921  1.2620
 9000TIP3   OH248490   5.913   6.212  14.415 -0.0110 -0.3941  0.3455
 9000TIP3    H148491   5.860   6.215  14.335 -0.1551 -0.7927  0.4194
 9000TIP3    H248492   5.860   6.258  14.481  0.9646  1.6966 -0.2473
 9001TIP3   OH248493   6.485   3.288   5.821 -0.0947  0.4123  0.1696
 9001TIP3    H148494   6.545   3.347   5.775  0.2006 -0.7471 -0.9725
 9001TIP3    H248495   6.401   3.335   5.822 -0.6890 -0.2811 -3.4226
 9002TIP3   OH248496   4.637   1.436   3.222  0.0951  0.0714 -0.6669
 9002TIP3    H148497   4.565   1.420   3.161 -1.1124  0.1693  0.7081
 9002TIP3    H248498   4.642   1.357   3.276 -1.1396  1.3321  1.3728
 9003TIP3   OH248499   4.214   2.870   6.900  0.0370  0.0585 -0.0614
 9003TIP3    H148500   4.272   2.930   6.854 -1.2961  0.2915 -1.5295
 9003TIP3    H248501   4.273   2.812   6.949  1.4973  0.2368 -1.5342
 9004TIP3   OH248502   4.399   0.624   3.814  0.8719  0.0745 -0.1424
 9004TIP3    H148503   4.468   0.644   3.877  0.8189 -0.1479 -0.0126
 9004TIP3    H248504   4.434   0.549   3.765  1.6568  1.3080 -1.5326
 9005TIP3   OH248505   3.616   6.071   5.219 -0.3601  0.7631  0.1225
 9005TIP3    H148506   3.585   5.980   5.218  1.1407  0.2341 -0.6010
 9005TIP3    H248507   3.592   6.102   5.306  1.7582 -1.3337  1.6036
 9006TIP3   OH248508   4.850   4.555   5.400  0.2992  0.4124  0.1350
 9006TIP3    H148509   4.813   4.640   5.377  0.9811  0.5255 -0.5983
 9006TIP3    H248510   4.856   4.556   5.495 -1.5849  0.3664  0.2804
 9007TIP3   OH248511   2.428   0.103   2.470  0.4383  0.0530  0.2893
 9007TIP3    H148512   2.512   0.141   2.444 -0.0847  0.5271 -0.7738
 9007TIP3    H248513   2.427   0.016   2.431  0.5521 -0.0612  0.5403
 9008TIP3   OH248514   4.976   3.107   1.600 -0.0888  0.5471  0.4842
 9008TIP3    H148515   5.000   3.037   1.539  0.9377 -0.5189  2.0348
 9008TIP3    H248516   4.889   3.083   1.631  0.0036  0.2698  0.5383
 9009TIP3   OH248517   0.114   3.156  15.029 -0.6239  0.9759 -0.0470
 9009TIP3    H148518   0.027   3.121  15.048 -0.9871  1.9899  0.2023
 9009TIP3    H248519   0.166   3.079  15.004 -1.7937  0.4489 -0.9790
 9010TIP3   OH248520   0.094   6.484  12.094 -0.5848  0.2328 -0.0332
 9010TIP3    H148521   0.142   6.493  12.012 -1.9861 -1.2442 -1.0667
 9010TIP3    H248522   0.120   6.398  12.128  0.5901  1.1377  1.5457
 9011TIP3   OH248523   5.513   4.266  11.999  0.0903 -0.3994  0.2365
 9011TIP3    H148524   5.459   4.318  11.940 -0.6598 -0.7445  0.6058
 9011TIP3    H248525   5.594   4.250  11.950  0.2774  0.9717  0.0603
 9012TIP3   OH248526   2.295   5.349   2.016  0.1122 -0.2409 -0.0100
 9012TIP3    H148527   2.344   5.402   1.953  0.4845  0.6328  0.9950
 9012TIP3    H248528   2.211   5.394   2.027 -0.8254 -1.5291 -1.4368
 9013TIP3   OH248529   4.338   1.093  13.545  0.0574  0.0145  0.0342
 9013TIP3    H148530   4.282   1.034  13.493 -0.7721  0.3006  0.5785
 9013TIP3    H248531   4.304   1.086  13.634  1.5647 -0.5910  0.5951
 9014TIP3   OH248532   3.668   3.439   5.507  0.4370  0.2350 -0.2503
 9014TIP3    H148533   3.650   3.367   5.446  1.1553  0.4620 -0.7355
 9014TIP3    H248534   3.613   3.511   5.476  1.1462  0.4989 -0.9211
 9015TIP3   OH248535   3.455   4.690   1.635 -0.0631  0.0766  0.2219
 9015TIP3    H148536   3.515   4.698   1.560  0.5268  4.0478  0.8685
 9015TIP3    H248537   3.373   4.659   1.596  0.7478  0.2475 -1.7642
 9016TIP3   OH248538   5.973   3.302  14.916  0.5153 -0.1883 -0.1265
 9016TIP3    H148539   5.934   3.216  14.902 -1.3355  0.1818  2.2166
 9016TIP3    H248540   5.950   3.325  15.005  0.9400  2.7633 -0.6786
 9017TIP3   OH248541   2.415   4.570  16.174  0.6894 -1.0434  0.3523
 9017TIP3    H148542   2.463   4.640  16.220  0.8953  1.7130 -3.4990
 9017TIP3    H248543   2.483   4.522  16.127  0.1444  0.3077 -1.9536
 9018TIP3   OH248544   1.607   4.214   4.713  0.2252 -0.0571 -0.0313
 9018TIP3    H148545   1.696   4.200   4.744  1.5860  3.0985 -1.9614
 9018TIP3    H248546   1.610   4.191   4.620 -1.0959 -0.2206 -0.0543
 9019TIP3   OH248547   3.844   0.925  13.974  0.7410  0.4179 -0.1113
 9019TIP3    H148548   3.873   0.890  13.890  1.9483  0.4307  0.2819
 9019TIP3    H248549   3.850   0.851  14.035  0.2596  0.5073  0.0495
 9020TIP3   OH248550   0.242   2.665   3.567 -0.5713 -0.1763 -0.8297
 9020TIP3    H148551   0.221   2.757   3.581  1.6509  0.4460 -1.1274
 9020TIP3    H248552   0.169   2.617   3.606 -1.0267  1.6782  0.7326
 9021TIP3   OH248553   2.936   1.476  11.039  0.4647 -0.4444 -0.3702
 9021TIP3    H148554   2.896   1.506  11.120 -0.0335 -3.7503  0.7544
 9021TIP3    H248555   2.871   1.494  10.972  1.4061  3.5740 -0.4634
 9022TIP3   OH248556   0.663   5.836   3.976 -0.2949 -0.3447  0.5196
 9022TIP3    H148557   0.601   5.881   3.918  0.9778  0.7665 -0.0442
 9022TIP3    H248558   0.679   5.752   3.933  1.3366  0.8234 -1.3312
 9023TIP3   OH248559   5.591   5.540  12.583  0.4354  0.1525  0.5498
 9023TIP3    H148560   5.548   5.455  12.599  2.0199 -0.5719  1.1504
 9023TIP3    H248561   5.674   5.518  12.541  0.2317  1.5274 -0.6322
 9024TIP3   OH248562   1.351   0.750  13.818  0.2192  0.5949 -0.0723
 9024TIP3    H148563   1.329   0.673  13.767 -0.9719  0.7884  0.1156
 9024TIP3    H248564   1.376   0.816  13.753  1.0072  0.1473 -0.2450
 9025TIP3   OH248565   1.251   4.803  13.921 -0.3237  0.2088 -0.8466
 9025TIP3    H148566   1.175   4.748  13.938  0.8048 -1.6789 -1.6101
 9025TIP3    H248567   1.306   4.793  13.999 -1.2378  2.3709  0.1576
 9026TIP3   OH248568   6.630   3.355   6.090 -0.3438  0.5901 -1.0789
 9026TIP3    H148569   6.559   3.329   6.148 -0.0962  0.1591 -0.9657
 9026TIP3    H248570   6.613   3.448   6.072  1.1623  1.5956  2.0037
 9027TIP3   OH248571   0.047   5.696   5.951  0.2775 -0.2378  0.0031
 9027TIP3    H148572   0.019   5.788   5.955  0.6065 -0.1223 -0.3133
 9027TIP3    H248573  -0.001   5.659   5.877  1.0163 -0.0164 -0.5979
 9028TIP3   OH248574   5.244   0.141   2.521  0.7950  0.4979 -0.8099
 9028TIP3    H148575   5.320   0.128   2.579  0.7640  0.8526 -0.6909
 9028TIP3    H248576   5.180   0.077   2.552  1.1869 -0.0736 -1.1589
 9029TIP3   OH248577   2.084   0.697   2.577  0.6093 -0.2969 -0.0987
 9029TIP3    H148578   2.042   0.611   2.572 -0.4624  0.0910  1.4754
 9029TIP3    H248579   2.057   0.732   2.662 -0.3589  2.2893 -1.3557
 9030TIP3   OH248580   2.458   5.015   4.792  0.0620 -0.1073  0.2322
 9030TIP3    H148581   2.482   5.102   4.761  0.2135 -0.6708 -1.3366
 9030TIP3    H248582   2.386   4.989   4.734 -0.7300 -0.5870  1.4024
 9031TIP3   OH248583   0.771   0.122  12.687 -0.4372 -0.0921  0.4416
 9031TIP3    H148584   0.748   0.194  12.630 -0.9436 -1.5082 -1.2270
 9031TIP3    H248585   0.687   0.087  12.717 -0.1956  0.0391  1.3130
 9032TIP3   OH248586   6.017   4.706   2.384 -0.0913  0.2741  0.2393
 9032TIP3    H148587   6.051   4.731   2.470  0.1545  1.6405 -0.2306
 9032TIP3    H248588   5.934   4.753   2.376  0.0288  0.3965 -0.3749
 9033TIP3   OH248589   0.074   2.741  10.888 -0.2323 -0.3111  0.2083
 9033TIP3    H148590  -0.013   2.775  10.909 -0.2266  0.3068 -0.7152
 9033TIP3    H248591   0.129   2.818  10.883 -0.0820 -0.4943 -1.2883
 9034TIP3   OH248592   2.280   2.266  15.045  0.1346 -0.2219 -0.0543
 9034TIP3    H148593   2.188   2.287  15.057  0.6591  1.7129  1.0483
 9034TIP3    H248594   2.285   2.225  14.959 -1.6188  0.4996 -0.5302
 9035TIP3   OH248595   1.859   3.388  17.351 -0.4401  0.0932  0.1256
 9035TIP3    H148596   1.802   3.312  17.364  0.0243 -0.5185 -1.2585
 9035TIP3    H248597   1.841   3.444  17.426 -2.5243 -0.3003 -0.0153
 9036TIP3   OH248598   4.161   5.650   4.730 -0.2462  0.7756  0.1435
 9036TIP3    H148599   4.103   5.579   4.701 -0.9643  2.0989 -1.9000
 9036TIP3    H248600   4.234   5.649   4.667 -0.2116  1.7562  0.1496
 9037TIP3   OH248601   3.688   1.930   5.146  0.1165 -0.1189 -0.4834
 9037TIP3    H148602   3.755   1.863   5.162 -1.0464 -0.7298  2.4722
 9037TIP3    H248603   3.728   2.012   5.176 -0.3581 -0.4832  1.2803
 9038TIP3   OH248604   3.694   1.698  14.844  0.7409  0.1173 -0.4101
 9038TIP3    H148605   3.782   1.733  14.849 -0.4923  3.5545 -0.2789
 9038TIP3    H248606   3.651   1.748  14.775 -1.8733  0.6412  1.4200
 9039TIP3   OH248607   5.060   4.691  11.530  0.2221  0.0533  0.2185
 9039TIP3    H148608   5.138   4.689  11.475 -0.5795  0.7490 -1.0082
 9039TIP3    H248609   5.052   4.603  11.565  0.2870 -0.6690 -1.5089
 9040TIP3   OH248610   4.810   2.309  15.244  1.1917  0.6180  0.1359
 9040TIP3    H148611   4.726   2.351  15.262 -0.3665 -0.8468 -2.8029
 9040TIP3    H248612   4.834   2.266  15.326 -0.8477  1.2513  1.1318
 9041TIP3   OH248613   3.537   0.602   6.162  0.1381 -0.0773 -0.0777
 9041TIP3    H148614   3.588   0.561   6.232  0.5405  0.7620  0.1451
 9041TIP3    H248615   3.562   0.695   6.167 -0.8779  0.2262 -0.4294
 9042TIP3   OH248616   3.067   6.469   1.448  0.6464 -0.1579  0.3982
 9042TIP3    H148617   3.092   6.412   1.376  0.3412 -0.2494  0.3617
 9042TIP3    H248618   3.120   6.548   1.437  0.5811 -0.1625  0.0614
 9043TIP3   OH248619   2.586   0.421   3.019 -0.1079 -0.6822 -0.3388
 9043TIP3    H148620   2.496   0.447   3.034  0.0722 -0.5001  0.4747
 9043TIP3    H248621   2.623   0.490   2.963 -0.8639 -1.5034 -1.9315
 9044TIP3   OH248622   2.696   4.794   3.441 -0.0597  0.3184 -0.4868
 9044TIP3    H148623   2.769   4.836   3.487 -0.3253 -1.0510  1.2889
 9044TIP3    H248624   2.626   4.859   3.442  0.3768  0.7901 -0.1325
 9045TIP3   OH248625   1.052   6.538  14.144 -0.3777 -0.1931  0.3272
 9045TIP3    H148626   1.039   6.622  14.188  1.0095  0.0202  0.3727
 9045TIP3    H248627   0.976   6.530  14.087 -0.9949  0.6582  0.9883
 9046TIP3   OH248628   4.838   1.914  12.197 -0.1988  0.0628  0.3515
 9046TIP3    H148629   4.829   1.822  12.221  1.7755 -0.0093  0.9472
 9046TIP3    H248630   4.837   1.914  12.101 -1.6901 -0.3760  0.3461
 9047TIP3   OH248631   5.384   5.509   6.013 -0.1153  0.2414  0.1777
 9047TIP3    H148632   5.436   5.457   5.952 -0.0718  0.3737  0.1007
 9047TIP3    H248633   5.400   5.599   5.986 -0.8761  0.2601 -0.2471
 9048TIP3   OH248634   6.497   2.653  12.513  0.0186  0.4272 -0.1352
 9048TIP3    H148635   6.484   2.673  12.605  2.0151  0.9244  0.0969
 9048TIP3    H248636   6.547   2.727  12.478 -1.1683  0.5194 -1.7756
 9049TIP3   OH248637   2.118   6.578  11.681  0.0213 -0.2409  0.8674
 9049TIP3    H148638   2.100   6.667  11.710  1.2183  0.1545  0.4307
 9049TIP3    H248639   2.121   6.583  11.586 -1.1191 -0.9959  0.7707
 9050TIP3   OH248640   2.753   1.080   0.704 -0.1937 -0.7897 -0.1266
 9050TIP3    H148641   2.719   1.057   0.618  2.3524  1.9417 -2.0992
 9050TIP3    H248642   2.848   1.073   0.694  0.1719 -1.1188  2.7609
 9051TIP3   OH248643   3.649   3.127  12.391  0.4367  0.0173  0.3748
 9051TIP3    H148644   3.709   3.143  12.464  0.8319  1.3327 -0.2071
 9051TIP3    H248645   3.672   3.194  12.326  0.2601 -1.2675 -1.0649
 9052TIP3   OH248646   3.612   4.600   2.724 -0.1732  0.6837  0.3290
 9052TIP3    H148647   3.655   4.649   2.654 -1.9449  0.0958 -1.2536
 9052TIP3    H248648   3.614   4.660   2.799 -0.1713  2.2499 -0.8582
 9053TIP3   OH248649   3.014   6.084   2.895  0.0502 -0.2797 -0.1742
 9053TIP3    H148650   2.966   6.157   2.856  1.1916  0.6296  0.0577
 9053TIP3    H248651   2.979   6.076   2.984  2.0449  2.1457  0.9567
 9054TIP3   OH248652   3.985   3.403   6.208 -0.0561 -0.5308  0.0531
 9054TIP3    H148653   4.064   3.449   6.180 -0.4279  0.4736  0.6299
 9054TIP3    H248654   3.974   3.333   6.142  1.2064 -0.5918 -0.1237
 9055TIP3   OH248655   2.296   4.003   5.079  0.5969  0.7745 -0.0104
 9055TIP3    H148656   2.348   3.991   5.000  1.8063  0.3543  0.8252
 9055TIP3    H248657   2.343   4.070   5.129 -0.5615  1.5940  0.0288
 9056TIP3   OH248658   4.140   0.097   6.007 -0.4668 -0.0279  0.2297
 9056TIP3    H148659   4.049   0.124   6.013 -2.4033 -4.8477 -2.0903
 9056TIP3    H248660   4.165   0.115   5.916 -0.3778 -1.7105 -0.1259
 9057TIP3   OH248661   2.066   3.027  11.152  0.3992  0.4142  0.3434
 9057TIP3    H148662   2.095   2.949  11.199  0.9297 -0.4337 -1.3404
 9057TIP3    H248663   1.993   3.061  11.205  0.6864 -0.7399  1.5273
 9058TIP3   OH248664   6.191   2.696   4.080  0.4020 -0.2178  0.1802
 9058TIP3    H148665   6.267   2.719   4.134 -0.5329  1.5374  0.8381
 9058TIP3    H248666   6.129   2.656   4.141  0.4852 -0.9750 -0.2137
 9059TIP3   OH248667   5.807   6.694  13.816 -0.0503 -0.0621  0.1587
 9059TIP3    H148668   5.758   6.745  13.881  0.4799  2.3501 -1.2396
 9059TIP3    H248669   5.803   6.604  13.849 -2.2685  0.6079  1.9919
 9060TIP3   OH248670   1.424   4.879   0.224 -0.9514  0.1340  0.0248
 9060TIP3    H148671   1.497   4.892   0.284  0.0801 -1.9783 -0.6957
 9060TIP3    H248672   1.456   4.914   0.140 -1.2453  0.2890 -0.0273
 9061TIP3   OH248673   6.711   1.984   5.241 -0.6580 -0.1050  0.2567
 9061TIP3    H148674   6.688   1.934   5.319 -2.0689 -1.5513 -1.0203
 9061TIP3    H248675   6.629   2.024   5.213 -0.5844 -1.0348 -1.4380
 9062TIP3   OH248676   4.949   5.789  14.162 -0.6851  0.1693  0.1490
 9062TIP3    H148677   5.010   5.717  14.148  1.2584  1.6256  0.7105
 9062TIP3    H248678   4.881   5.752  14.218 -0.1959 -1.4382 -0.2591
 9063TIP3   OH248679   2.227   5.384   6.617  0.2228 -0.1491  0.6522
 9063TIP3    H148680   2.136   5.362   6.637 -0.6724  2.3311 -0.2840
 9063TIP3    H248681   2.231   5.385   6.522  0.9379  0.7682  0.6776
 9064TIP3   OH248682   5.937   5.078  17.166  0.1997  0.1783  0.0905
 9064TIP3    H148683   5.891   5.097  17.085 -0.0797  0.4368  0.3054
 9064TIP3    H248684   5.872   5.036  17.222  0.5253 -0.4501  0.0066
 9065TIP3   OH248685   4.576   4.257   2.331 -0.1425  0.3052  0.0693
 9065TIP3    H148686   4.622   4.340   2.316  1.3278 -0.4069  0.4168
 9065TIP3    H248687   4.497   4.281   2.380  0.7896  1.4131  1.0974
 9066TIP3   OH248688   2.401   1.170  11.602  0.0929 -0.0011  0.2575
 9066TIP3    H148689   2.446   1.244  11.642 -0.6732  0.2316  0.6904
 9066TIP3    H248690   2.448   1.156  11.519  1.7046 -0.5120  1.2227
 9067TIP3   OH248691   5.848   1.063   1.471  0.0385  0.6270  0.1093
 9067TIP3    H148692   5.894   1.048   1.388 -1.1812  0.6390 -0.5879
 9067TIP3    H248693   5.893   1.138   1.509 -0.7495  2.0451 -1.6012
 9068TIP3   OH248694   4.987   2.263   5.845 -0.0981  0.5465  0.2541
 9068TIP3    H148695   4.891   2.264   5.846 -0.1296 -0.7146  0.6129
 9068TIP3    H248696   5.011   2.224   5.929  0.6445 -1.3364 -0.7666
 9069TIP3   OH248697   5.334   4.376  14.835  0.2053  0.6983 -0.9050
 9069TIP3    H148698   5.425   4.405  14.836  0.4998 -0.1185 -1.9074
 9069TIP3    H248699   5.311   4.365  14.928  1.8381 -1.1712 -0.6540
 9070TIP3   OH248700   3.795   4.422   1.268  0.0381  0.2526 -0.1209
 9070TIP3    H148701   3.783   4.480   1.192 -1.6296  0.2401  0.1058
 9070TIP3    H248702   3.871   4.460   1.314 -0.0407  1.3261 -0.8203
 9071TIP3   OH248703   4.695   1.770  16.372 -0.0284  0.3562 -0.1575
 9071TIP3    H148704   4.661   1.856  16.349  1.8819  1.9305  2.3852
 9071TIP3    H248705   4.659   1.753  16.459 -1.0315 -1.8775 -0.9271
 9072TIP3   OH248706   2.952   1.383  16.376 -0.1720 -0.0643  0.7332
 9072TIP3    H148707   2.925   1.313  16.317  1.8620  0.4120 -0.9072
 9072TIP3    H248708   2.889   1.453  16.361  2.1576  1.4913 -3.8591
 9073TIP3   OH248709   0.572   5.397   2.199  0.1956 -0.4593 -0.5772
 9073TIP3    H148710   0.485   5.414   2.237 -0.5377 -1.2019 -1.8828
 9073TIP3    H248711   0.632   5.410   2.273 -0.9802  0.3473  0.2901
 9074TIP3   OH248712   3.466   0.990   0.108  0.3821 -0.1087 -0.2095
 9074TIP3    H148713   3.379   1.027   0.095 -0.2829 -2.2438 -2.9773
 9074TIP3    H248714   3.523   1.044   0.053  0.7431  0.8794  1.0861
 9075TIP3   OH248715   1.718   3.906   4.577  0.1590  0.0946  0.2135
 9075TIP3    H148716   1.659   3.958   4.523  0.5280  0.3121  0.0137
 9075TIP3    H248717   1.753   3.969   4.641  0.0325 -0.0722  0.4469
 9076TIP3   OH248718   1.843   4.906  15.418  0.4076  0.7111 -0.3416
 9076TIP3    H148719   1.779   4.842  15.387  2.7165 -2.0563  0.0977
 9076TIP3    H248720   1.816   4.989  15.379 -3.1936 -0.3117 -0.3799
 9077TIP3   OH248721   1.443   1.950  14.211  0.5991  0.3613  0.2226
 9077TIP3    H148722   1.528   1.908  14.194  0.5816  0.6153 -0.5449
 9077TIP3    H248723   1.378   1.883  14.191  0.5919  0.5145 -0.2791
 9078TIP3   OH248724   0.302   4.400  15.646 -0.0274  0.1336 -0.4732
 9078TIP3    H148725   0.222   4.451  15.640 -0.3714 -0.4300 -0.7694
 9078TIP3    H248726   0.338   4.401  15.557  0.5715  0.8189 -0.2310
 9079TIP3   OH248727   3.695   0.811   5.209  0.2640  0.0463  0.1827
 9079TIP3    H148728   3.693   0.719   5.181  0.8315  0.3753 -0.9887
 9079TIP3    H248729   3.687   0.861   5.128 -0.5800  1.0502  0.8546
 9080TIP3   OH248730   1.766   0.475  11.395  0.1723 -0.1342  0.0713
 9080TIP3    H148731   1.729   0.561  11.414  0.1775 -0.3346  1.0202
 9080TIP3    H248732   1.696   0.429  11.347 -0.1991  0.0557  0.4269
 9081TIP3   OH248733   1.960   6.425  12.668 -0.0488 -0.0621 -0.3180
 9081TIP3    H148734   1.909   6.499  12.703  0.2019 -0.7342  1.5728
 9081TIP3    H248735   2.024   6.406  12.736  2.9489  0.8452 -2.6325
 9082TIP3   OH248736   3.261   0.745   4.047 -0.0980  0.2998  0.5884
 9082TIP3    H148737   3.260   0.821   4.105  0.2232 -0.2603  1.3496
 9082TIP3    H248738   3.242   0.671   4.104 -2.4797 -0.0017 -0.4707
 9083TIP3   OH248739   0.183   0.765  13.937  0.2091 -0.1584 -0.2896
 9083TIP3    H148740   0.144   0.852  13.929  0.8551  0.2599  0.8428
 9083TIP3    H248741   0.108   0.707  13.951 -0.2803  0.1016 -1.7301
 9084TIP3   OH248742   2.504   6.503   6.575  0.7546  0.7092 -0.2881
 9084TIP3    H148743   2.474   6.593   6.564  1.7240  1.0205 -0.4721
 9084TIP3    H248744   2.428   6.449   6.552  0.0641  1.4763  0.1378
 9085TIP3   OH248745   2.532   5.663   1.212 -0.4968  0.2056 -0.0080
 9085TIP3    H148746   2.544   5.641   1.119 -0.4654  0.5726 -0.0907
 9085TIP3    H248747   2.443   5.697   1.217 -0.8484 -0.7103  0.2701
 9086TIP3   OH248748   0.243   1.012   3.426  0.4134 -0.2790 -0.5512
 9086TIP3    H148749   0.269   0.928   3.387  0.6020 -0.7222  0.4736
 9086TIP3    H248750   0.148   1.004   3.438  0.4442 -0.3843 -0.3735
 9087TIP3   OH248751   4.067   5.242  15.452 -0.1911 -0.1457 -0.1932
 9087TIP3    H148752   3.975   5.265  15.463 -0.1302  0.0052  0.0072
 9087TIP3    H248753   4.066   5.153  15.418 -0.4276  0.0521 -0.7209
 9088TIP3   OH248754   0.776   4.058   1.880  0.3279  0.2188 -0.0115
 9088TIP3    H148755   0.734   4.143   1.869 -1.6245 -0.8138 -1.3602
 9088TIP3    H248756   0.787   4.025   1.790  0.4321 -1.1893  0.4882
 9089TIP3   OH248757   0.105   3.708   3.214  0.4295 -0.0453  0.4649
 9089TIP3    H148758   0.109   3.632   3.273 -2.0698 -0.7059 -0.1248
 9089TIP3    H248759   0.160   3.684   3.139  0.2176 -0.9708  0.6044
 9090TIP3   OH248760   5.194   0.077  12.574  0.3714 -0.0927 -0.3670
 9090TIP3    H148761   5.165  -0.007  12.610  1.1705 -0.5487 -0.7478
 9090TIP3    H248762   5.180   0.069  12.480 -1.5427  1.0247 -0.2326
 9091TIP3   OH248763   2.164   1.654  12.810 -0.6294  0.1252 -0.4072
 9091TIP3    H148764   2.092   1.687  12.863 -0.0964 -1.3666  1.3696
 9091TIP3    H248765   2.169   1.561  12.833  1.6300  0.1131 -0.7376
 9092TIP3   OH248766   5.609   3.507   0.346  0.0737  0.5237 -0.1872
 9092TIP3    H148767   5.607   3.428   0.400 -1.8594 -1.8140 -3.3278
 9092TIP3    H248768   5.702   3.529   0.340  0.9264 -2.7031 -0.6402
 9093TIP3   OH248769   3.773   4.780   6.055 -0.3143  0.0222 -0.0415
 9093TIP3    H148770   3.775   4.699   6.106  0.3680  0.4601  0.6447
 9093TIP3    H248771   3.713   4.837   6.103 -2.7172 -0.8576 -1.7922
 9094TIP3   OH248772   4.454   6.631  15.276 -0.7272  0.3799 -0.2326
 9094TIP3    H148773   4.479   6.557  15.331 -0.4940  1.6395  1.4274
 9094TIP3    H248774   4.367   6.656  15.307 -0.9098  0.6598 -0.9456
 9095TIP3   OH248775   4.097   0.212   5.173  0.4953 -0.2999  0.1057
 9095TIP3    H148776   4.105   0.307   5.161  0.5088 -0.3147 -0.0077
 9095TIP3    H248777   4.185   0.182   5.194  0.3760 -0.2022  0.7682
 9096TIP3   OH248778   3.556   1.018  17.057 -0.4952 -0.3512  0.1994
 9096TIP3    H148779   3.588   0.946  17.111  0.1976 -0.5834 -0.4987
 9096TIP3    H248780   3.462   1.003  17.050 -0.5095 -0.6207  0.8850
 9097TIP3   OH248781   4.572   6.426   1.041 -0.8409  0.1740 -0.2739
 9097TIP3    H148782   4.504   6.367   1.073  0.6006 -0.7500  1.2412
 9097TIP3    H248783   4.617   6.376   0.973 -0.8893  0.2864 -0.3872
 9098TIP3   OH248784   0.644   1.462   3.497 -0.5176  0.0637  0.1875
 9098TIP3    H148785   0.727   1.478   3.544 -0.7135 -0.5360  0.7636
 9098TIP3    H248786   0.667   1.471   3.405  0.0299  0.6184  0.3662
 9099TIP3   OH248787   2.680   1.944  14.827  0.3214 -0.1972  0.0161
 9099TIP3    H148788   2.695   2.027  14.874  0.7296 -0.8653  1.1056
 9099TIP3    H248789   2.607   1.963  14.769  1.6898  1.5133 -1.2573
 9100TIP3   OH248790   0.801   0.776  16.079 -0.0461 -0.2983 -0.2965
 9100TIP3    H148791   0.884   0.729  16.070 -0.4715 -0.9609 -0.9256
 9100TIP3    H248792   0.783   0.809  15.991 -1.3356 -1.7279 -0.6088
 9101TIP3   OH248793   2.723   2.944   3.946 -0.5426 -0.3336 -0.6801
 9101TIP3    H148794   2.769   3.026   3.929 -1.5695 -0.0960 -2.5630
 9101TIP3    H248795   2.709   2.944   4.041 -1.1418  2.0338 -0.7006
 9102TIP3   OH248796   4.404   5.498  16.733  0.4867 -1.0433  0.4115
 9102TIP3    H148797   4.435   5.589  16.740 -0.4336 -0.8247  2.0833
 9102TIP3    H248798   4.483   5.448  16.713  1.0251  0.1119 -0.4439
 9103TIP3   OH248799   0.530   0.184  12.919 -0.2793 -0.3965  0.0259
 9103TIP3    H148800   0.621   0.207  12.936 -0.8287  2.9737 -0.7817
 9103TIP3    H248801   0.533   0.120  12.848  1.4602 -2.5314  1.8897
 9104TIP3   OH248802   2.017   3.554  13.314  0.1342  0.2757  0.0124
 9104TIP3    H148803   1.934   3.548  13.361 -0.0703 -0.2249 -0.4030
 9104TIP3    H248804   2.083   3.523  13.377 -0.3250 -1.9358 -0.5088
 9105TIP3   OH248805   0.458   4.193  17.476  1.1498  0.0341  0.2306
 9105TIP3    H148806   0.381   4.145  17.507  1.2054  0.1971  0.6390
 9105TIP3    H248807   0.433   4.285  17.482  1.2577  0.0760  0.0451
 9106TIP3   OH248808   0.830   6.433  17.262 -0.9458  0.4553  0.5668
 9106TIP3    H148809   0.882   6.457  17.339 -0.3791 -1.1736  0.7310
 9106TIP3    H248810   0.893   6.434  17.189 -0.7594 -1.0251  0.6801
 9107TIP3   OH248811   3.825   4.042   2.887  0.1884  0.9568  0.2583
 9107TIP3    H148812   3.851   4.127   2.922  0.7716  0.7052  0.4556
 9107TIP3    H248813   3.874   3.979   2.939  0.3526  0.5356 -0.3919
 9108TIP3   OH248814   6.238   0.660  15.179 -0.1680 -0.4029  0.0094
 9108TIP3    H148815   6.166   0.696  15.128 -0.3675 -2.2336 -1.0921
 9108TIP3    H248816   6.313   0.661  15.120  0.2533 -0.2316  0.5321
 9109TIP3   OH248817   1.052   5.609   5.377  0.2708  0.0670 -0.7904
 9109TIP3    H148818   0.959   5.614   5.397  0.8273  3.0636  1.8585
 9109TIP3    H248819   1.091   5.565   5.452  1.2587  1.3667 -0.5008
 9110TIP3   OH248820   5.606   5.196   3.076  0.0607 -0.1939  0.1506
 9110TIP3    H148821   5.640   5.226   2.992 -0.2889 -0.3594 -0.0511
 9110TIP3    H248822   5.640   5.259   3.140 -0.8747  0.8025 -0.3031
 9111TIP3   OH248823   3.630   0.398   5.373 -0.1134 -0.7371 -0.3518
 9111TIP3    H148824   3.642   0.303   5.371  0.2091 -0.9035  3.1073
 9111TIP3    H248825   3.551   0.411   5.425  0.4428  0.8902  0.1389
 9112TIP3   OH248826   0.606   5.786  14.901  0.5486 -0.6910 -0.0101
 9112TIP3    H148827   0.608   5.789  14.806 -0.4659 -0.2229 -0.0164
 9112TIP3    H248828   0.518   5.812  14.925  1.4020  1.3681  1.1435
 9113TIP3   OH248829   2.960   3.463   4.268  0.1632 -0.6458 -0.3420
 9113TIP3    H148830   2.894   3.454   4.336  1.0453  1.8536  0.9525
 9113TIP3    H248831   3.014   3.384   4.276 -0.0252 -0.6161  1.5666
 9114TIP3   OH248832   0.521   0.308   5.845  0.0406 -0.3464 -0.4153
 9114TIP3    H148833   0.534   0.289   5.938  1.3587 -0.9931 -0.7123
 9114TIP3    H248834   0.487   0.226   5.808 -3.1118  0.6472 -0.0845
 9115TIP3   OH248835   6.280   4.854  11.030 -0.0285 -0.0160  0.0410
 9115TIP3    H148836   6.361   4.889  11.068  0.9672 -2.5720  0.4568
 9115TIP3    H248837   6.223   4.839  11.106 -0.0746 -0.2014 -0.0308
 9116TIP3   OH248838   0.884   5.635  14.661  0.1175 -0.1155  0.1906
 9116TIP3    H148839   0.816   5.702  14.655  1.0943  0.7859 -3.4824
 9116TIP3    H248840   0.838   5.552  14.649 -0.4159  0.4985 -2.4939
 9117TIP3   OH248841   0.753   1.646   4.930 -1.3759 -0.0528 -0.2817
 9117TIP3    H148842   0.823   1.583   4.912  0.3441  1.4275  0.8793
 9117TIP3    H248843   0.713   1.662   4.845  1.4016  0.9310 -1.5204
 9118TIP3   OH248844   4.608   4.618   4.624  0.3064 -0.5525  0.2906
 9118TIP3    H148845   4.692   4.655   4.651 -0.2170 -1.2474  3.1152
 9118TIP3    H248846   4.568   4.586   4.705 -1.3954 -2.9055 -1.3352
 9119TIP3   OH248847   3.724   5.158  10.762 -0.1345  0.5805 -0.2814
 9119TIP3    H148848   3.692   5.123  10.845 -0.4291 -0.4185 -0.7906
 9119TIP3    H248849   3.769   5.084  10.721  1.0752  1.4059 -0.4810
 9120TIP3   OH248850   5.192   4.133  16.078 -0.1947 -0.8771  0.1167
 9120TIP3    H148851   5.123   4.081  16.039 -0.7966 -0.1582  0.1975
 9120TIP3    H248852   5.219   4.084  16.155 -2.7213  0.2122  1.8345
 9121TIP3   OH248853   3.847   2.319  14.701 -0.0828 -0.0844 -0.0672
 9121TIP3    H148854   3.903   2.274  14.764  0.5814 -2.4457 -2.1202
 9121TIP3    H248855   3.863   2.412  14.715  3.0673 -0.6162  0.6124
 9122TIP3   OH248856   1.311   2.607   4.894 -0.4159  0.2062 -0.0169
 9122TIP3    H148857   1.373   2.670   4.858  0.3092 -0.0316  0.8002
 9122TIP3    H248858   1.239   2.605   4.830 -0.2028  1.4569 -0.3129
 9123TIP3   OH248859   0.137   0.018  12.404 -0.2403  0.2333 -0.2106
 9123TIP3    H148860   0.163   0.015  12.496 -0.6175 -2.7460 -0.0775
 9123TIP3    H248861   0.205   0.069  12.361  2.0850 -1.4569  1.2085
 9124TIP3   OH248862   4.011   0.430  16.460  0.4856 -0.5341 -0.0368
 9124TIP3    H148863   4.083   0.391  16.508  0.3266 -0.0798  0.5789
 9124TIP3    H248864   3.985   0.363  16.396 -0.9625 -2.1986  2.1584
 9125TIP3   OH248865   3.416   5.940  16.340  0.2814  0.0647 -0.1229
 9125TIP3    H148866   3.403   5.994  16.418  0.2776  0.5587 -0.4591
 9125TIP3    H248867   3.509   5.951  16.318 -0.0762  1.2360 -1.1296
 9126TIP3   OH248868   0.160   2.992  10.840 -0.5792 -0.0621 -0.2101
 9126TIP3    H148869   0.240   3.004  10.891 -0.6268 -0.8578  0.0704
 9126TIP3    H248870   0.155   3.070  10.785 -0.2524  0.5703  0.6305
 9127TIP3   OH248871   4.033   5.286   4.938 -0.0897 -0.2187 -0.4407
 9127TIP3    H148872   4.017   5.247   4.852 -2.2536  0.0910 -0.2293
 9127TIP3    H248873   3.946   5.306   4.972  0.7223 -0.1048  1.7331
 9128TIP3   OH248874   1.105   4.916   2.398 -0.1518 -0.1805  0.3050
 9128TIP3    H148875   1.145   4.944   2.480  0.9864 -0.6535 -0.0829
 9128TIP3    H248876   1.012   4.939   2.408  0.2252  1.0791  1.1429
 9129TIP3   OH248877   6.313   2.845   1.214 -0.2054  0.0758  0.2770
 9129TIP3    H148878   6.368   2.769   1.235  1.2967  0.9130 -0.4312
 9129TIP3    H248879   6.337   2.910   1.279  0.8517  0.9837 -0.9625
 9130TIP3   OH248880   5.315   4.999   5.609  0.1106 -0.1053  0.1833
 9130TIP3    H148881   5.222   5.021   5.610  0.0804 -0.2365  0.9850
 9130TIP3    H248882   5.359   5.082   5.589 -0.2118 -0.2206 -1.0648
 9131TIP3   OH248883   5.909   1.423  11.977  0.3018 -0.1872  0.4778
 9131TIP3    H148884   5.934   1.411  11.885  2.0979 -0.0284  0.9037
 9131TIP3    H248885   5.879   1.337  12.006 -0.4165 -0.2047 -0.2852
 9132TIP3   OH248886   3.657   1.367  15.757 -0.0965  0.7297 -0.7612
 9132TIP3    H148887   3.706   1.404  15.684  2.1820  0.1039  0.3591
 9132TIP3    H248888   3.677   1.273  15.754 -0.6225  0.5774  0.1945
 9133TIP3   OH248889   0.350   4.505   0.799 -0.3535  0.2371  0.6913
 9133TIP3    H148890   0.319   4.574   0.740  1.2466  0.4422  0.0400
 9133TIP3    H248891   0.273   4.481   0.850 -1.4916  0.8957 -0.6537
 9134TIP3   OH248892   3.421   6.060   2.221 -0.2313 -0.0306  0.0564
 9134TIP3    H148893   3.499   6.116   2.212  0.1378 -0.6628 -0.7998
 9134TIP3    H248894   3.362   6.092   2.152 -0.0893 -0.5677 -0.3205
 9135TIP3   OH248895   1.367   2.131  16.366  0.0186  0.2728 -0.2734
 9135TIP3    H148896   1.368   2.227  16.370 -1.3780  0.3073 -0.0996
 9135TIP3    H248897   1.412   2.103  16.446 -0.0047  0.7957 -0.0717
 9136TIP3   OH248898   0.094   4.082  16.132  0.2460 -0.3082  0.0099
 9136TIP3    H148899   0.103   3.992  16.101  0.4933  0.2917 -1.7519
 9136TIP3    H248900   0.109   4.136  16.055 -2.3332  1.2129  0.4647
 9137TIP3   OH248901   3.247   3.282   3.059 -0.2689  0.0511 -0.7076
 9137TIP3    H148902   3.302   3.292   2.981  0.2564 -1.4273 -0.5650
 9137TIP3    H248903   3.243   3.187   3.073 -1.2916  0.2356  0.4086
 9138TIP3   OH248904   2.308   5.478   0.243  0.1638  0.0991  0.0641
 9138TIP3    H148905   2.221   5.479   0.282 -0.5695 -0.1668 -1.4622
 9138TIP3    H248906   2.366   5.450   0.313 -1.0460 -0.1472  0.9994
 9139TIP3   OH248907   1.042   0.966   1.775 -0.1956  0.0001  0.1728
 9139TIP3    H148908   0.978   1.032   1.748  0.8869  0.7001 -0.7933
 9139TIP3    H248909   0.992   0.904   1.827 -1.7509  0.3069 -0.8758
 9140TIP3   OH248910   0.509   0.763  15.801 -0.1002  0.1500 -0.0211
 9140TIP3    H148911   0.486   0.674  15.825  0.9493 -0.1309  0.0146
 9140TIP3    H248912   0.444   0.789  15.737 -1.2987 -0.0948  1.0537
 9141TIP3   OH248913   0.079   0.830   2.506 -0.1896  0.4036  0.3058
 9141TIP3    H148914   0.009   0.884   2.469  0.4357  0.3859 -0.9543
 9141TIP3    H248915   0.136   0.891   2.552 -1.5433  0.2989  2.2635
 9142TIP3   OH248916   3.309   4.649  11.835  0.3143  0.0467  0.6714
 9142TIP3    H148917   3.379   4.612  11.888  1.2836 -1.0550 -1.2580
 9142TIP3    H248918   3.347   4.658  11.748 -2.1203 -1.3290 -0.6617
 9143TIP3   OH248919   1.452   1.804   2.033  0.1648 -0.0867  0.1505
 9143TIP3    H148920   1.405   1.873   1.987 -1.2588 -0.3833  1.1106
 9143TIP3    H248921   1.409   1.723   2.006  0.3164 -0.3986  0.8202
 9144TIP3   OH248922   4.224   1.050  12.276 -0.0323  1.1442 -0.6917
 9144TIP3    H148923   4.156   1.066  12.211 -0.1604  0.9086 -0.6149
 9144TIP3    H248924   4.213   0.959  12.302  1.0559  0.7538 -1.5346
 9145TIP3   OH248925   5.755   1.699   4.085 -0.1294  0.0984 -0.7093
 9145TIP3    H148926   5.816   1.746   4.143 -0.4496  1.9080 -1.7756
 9145TIP3    H248927   5.793   1.611   4.079  1.6500  0.7734 -0.2711
 9146TIP3   OH248928   2.782   0.350  12.948  0.2701 -0.0041  0.0884
 9146TIP3    H148929   2.712   0.333  12.885 -0.6250 -0.3338  1.1341
 9146TIP3    H248930   2.833   0.421  12.909 -0.3162 -0.1332 -0.9489
 9147TIP3   OH248931   2.046   4.968  14.643 -0.5183  0.2446  0.2557
 9147TIP3    H148932   1.983   4.912  14.688  0.0583 -0.6669 -0.0350
 9147TIP3    H248933   2.014   4.971  14.553  0.0879 -0.6219 -0.0080
 9148TIP3   OH248934   2.140   3.361  16.514 -0.0163  0.2029  0.0964
 9148TIP3    H148935   2.226   3.393  16.486 -0.5651  0.8632 -0.8871
 9148TIP3    H248936   2.079   3.429  16.488 -0.9579 -0.6766 -0.0785
 9149TIP3   OH248937   3.649   6.647   5.174 -0.5796 -0.2565 -0.4048
 9149TIP3    H148938   3.605   6.729   5.149 -0.0864 -0.0459 -0.5979
 9149TIP3    H248939   3.735   6.675   5.206 -0.2701 -0.7266 -0.8164
 9150TIP3   OH248940   4.840   6.771   2.293  0.6562  0.5946 -0.1847
 9150TIP3    H148941   4.901   6.700   2.271 -1.6313 -0.7556 -3.0037
 9150TIP3    H248942   4.893   6.851   2.288  2.5718 -0.6317 -0.5747
 9151TIP3   OH248943   1.252   3.493   5.993  0.0521  0.0713 -0.5163
 9151TIP3    H148944   1.304   3.550   6.049  1.3955  0.1577 -1.7793
 9151TIP3    H248945   1.162   3.516   6.012  0.5109  1.0527  0.5873
 9152TIP3   OH248946   2.929   1.658   2.599 -0.1428  0.3685  0.6030
 9152TIP3    H148947   2.895   1.739   2.562 -0.8279 -0.5721 -0.9115
 9152TIP3    H248948   2.937   1.599   2.525  0.9022 -0.7827  1.5800
 9153TIP3   OH248949   2.924   4.364  13.506 -0.1549 -0.0546 -0.0665
 9153TIP3    H148950   2.911   4.401  13.593 -0.6841 -0.1877 -0.0862
 9153TIP3    H248951   2.957   4.275  13.522  1.1788  0.4253 -0.0211
 9154TIP3   OH248952   1.682   0.678  13.153 -0.1213  0.5938 -0.3765
 9154TIP3    H148953   1.694   0.728  13.072  0.7291  0.9085 -0.0661
 9154TIP3    H248954   1.720   0.733  13.221  0.1006 -0.1192  0.0885
 9155TIP3   OH248955   6.468   2.856  11.317 -0.2751 -0.4626 -0.3633
 9155TIP3    H148956   6.519   2.797  11.261 -1.0246  0.5685 -2.2434
 9155TIP3    H248957   6.468   2.814  11.403  0.5382 -2.3795 -1.2406
 9156TIP3   OH248958   1.171   6.178  15.068 -0.7822  0.2937  0.4740
 9156TIP3    H148959   1.219   6.134  15.138  0.7855  2.7758  1.1037
 9156TIP3    H248960   1.227   6.169  14.991 -1.4680 -0.5571  0.0537
 9157TIP3   OH248961   1.948   1.916   4.321 -0.1298 -0.1127  0.1363
 9157TIP3    H148962   1.929   1.912   4.227  2.3145  1.1830 -0.4912
 9157TIP3    H248963   1.955   2.010   4.340 -1.6434 -0.3048  1.8978
 9158TIP3   OH248964   0.475   5.292  12.374 -0.3714  0.5780 -0.2773
 9158TIP3    H148965   0.381   5.305  12.380 -0.7614 -1.5906 -0.7829
 9158TIP3    H248966   0.500   5.251  12.457 -0.0943  0.0386 -0.6203
 9159TIP3   OH248967   4.222   0.017  13.523  0.5903  0.0155  0.0628
 9159TIP3    H148968   4.291   0.052  13.580  0.5657 -1.9475  1.3957
 9159TIP3    H248969   4.180  -0.051  13.575 -2.2741  1.0108 -0.7928
 9160TIP3   OH248970   4.943   1.288   1.806  0.5266 -0.6878  0.5119
 9160TIP3    H148971   4.928   1.241   1.724  3.3778 -0.0236 -0.5206
 9160TIP3    H248972   4.907   1.375   1.791 -0.0279 -0.9300  0.4231
 9161TIP3   OH248973   4.081   6.727   4.758  0.4905 -0.2754 -1.2079
 9161TIP3    H148974   4.103   6.779   4.681 -0.1579  0.9211 -0.6124
 9161TIP3    H248975   4.038   6.649   4.723  0.4798  0.1075 -2.0737
 9162TIP3   OH248976   0.398   4.139  11.519  0.0608  0.1965  0.3170
 9162TIP3    H148977   0.493   4.149  11.511 -0.0214  0.2520 -0.5914
 9162TIP3    H248978   0.375   4.195  11.594  0.9675 -1.1593  1.6679
 9163TIP3   OH248979   5.771   3.825   2.791 -0.0192 -0.5796  0.1482
 9163TIP3    H148980   5.792   3.776   2.711 -1.4310 -0.2415 -0.4695
 9163TIP3    H248981   5.694   3.876   2.768  0.3546  0.5797  1.3322
 9164TIP3   OH248982   6.419   0.781   1.458  0.2494  0.4288  0.2248
 9164TIP3    H148983   6.506   0.817   1.439  1.0040 -1.1826  0.4867
 9164TIP3    H248984   6.432   0.723   1.532 -1.1955  0.6467  0.6872
 9165TIP3   OH248985   1.739   2.447   5.127  0.0019  0.2678  0.1660
 9165TIP3    H148986   1.751   2.488   5.213  1.2922  0.7789 -0.2378
 9165TIP3    H248987   1.678   2.506   5.082  0.0674  0.5124  0.3914
 9166TIP3   OH248988   2.370   6.375  16.099 -0.4090 -0.1926 -0.4972
 9166TIP3    H148989   2.387   6.302  16.040  0.4398 -0.8323  0.5034
 9166TIP3    H248990   2.321   6.337  16.172 -1.0018  0.4833 -0.5340
 9167TIP3   OH248991   2.649   1.061   1.343  0.4014  0.0138  0.2826
 9167TIP3    H148992   2.661   1.151   1.314  0.1666  0.5077  1.6600
 9167TIP3    H248993   2.616   1.068   1.433 -0.7049 -1.4304  0.0319
 9168TIP3   OH248994   5.298   5.681   0.511  0.3574  0.0971  0.2980
 9168TIP3    H148995   5.227   5.673   0.575 -1.5491  0.0573 -1.6679
 9168TIP3    H248996   5.318   5.775   0.509  0.7354  0.0433  1.2349
 9169TIP3   OH248997   5.996   5.637  13.797  0.3896 -1.0431 -0.3294
 9169TIP3    H148998   5.960   5.550  13.814 -1.0976 -0.7359 -1.6162
 9169TIP3    H248999   6.037   5.629  13.711 -0.3190 -0.3491 -0.7499
 9170TIP3   OH249000   0.125   0.180  17.294  0.3124 -0.3986 -0.3795
 9170TIP3    H149001   0.178   0.145  17.223  1.3572  0.4898 -0.0622
 9170TIP3    H249002   0.148   0.273  17.298 -0.4654 -0.2214  0.4809
 9171TIP3   OH249003   4.998   2.010  15.080  0.3431 -0.2885 -0.1052
 9171TIP3    H149004   5.048   1.942  15.035 -1.2471 -1.7460  0.2094
 9171TIP3    H249005   5.061   2.049  15.141  1.6499 -0.5415 -1.2371
 9172TIP3   OH249006   5.261   1.783   6.261 -0.1175  0.8807 -0.0592
 9172TIP3    H149007   5.258   1.727   6.339  1.1252  0.0247 -0.5840
 9172TIP3    H249008   5.170   1.793   6.235 -0.6064  1.5295  1.7260
 9173TIP3   OH249009   3.052   4.068   0.172 -0.6259  0.3156  0.1823
 9173TIP3    H149010   2.995   4.144   0.167 -1.8343 -0.5141  0.6682
 9173TIP3    H249011   3.085   4.068   0.261  0.1251  0.7802 -0.0911
 9174TIP3   OH249012   2.311   6.644  16.077 -0.9672 -0.5784  0.1588
 9174TIP3    H149013   2.339   6.553  16.078  0.4006 -0.1860 -0.0434
 9174TIP3    H249014   2.315   6.670  15.985  2.5075  0.7359  0.5153
 9175TIP3   OH249015   2.726   4.745   2.327 -0.3950  0.4840 -0.6934
 9175TIP3    H149016   2.636   4.752   2.359 -0.9152 -0.2652 -1.8830
 9175TIP3    H249017   2.760   4.834   2.329 -1.2658  0.8199 -0.4780
 9176TIP3   OH249018   0.619   5.188   0.589  0.3483  0.1559  0.2548
 9176TIP3    H149019   0.704   5.227   0.606  0.5057  0.7355 -1.6500
 9176TIP3    H249020   0.629   5.146   0.504 -0.7380 -1.4211  0.8467
 9177TIP3   OH249021   3.534   2.701  16.455  0.0207  0.1132  0.2707
 9177TIP3    H149022   3.536   2.760  16.531 -1.7075  0.8111 -0.1833
 9177TIP3    H249023   3.613   2.723  16.406  0.2004  0.9588  0.9126
 9178TIP3   OH249024   5.051   2.766   2.954 -0.5211 -0.1000  0.1551
 9178TIP3    H149025   5.105   2.730   3.024  0.7553  1.8745  0.2602
 9178TIP3    H249026   5.095   2.847   2.929 -1.6819 -0.0749 -2.0313
 9179TIP3   OH249027   4.592   1.159   0.105  0.5311  0.1715  0.3213
 9179TIP3    H149028   4.681   1.125   0.118  0.0709 -0.3973  2.3750
 9179TIP3    H249029   4.562   1.118   0.024  0.7930 -2.7257  1.5709
 9180TIP3   OH249030   0.929   2.483   2.535  0.0041 -0.2851  0.5163
 9180TIP3    H149031   0.874   2.547   2.491  1.8371  0.5122 -0.7552
 9180TIP3    H249032   0.961   2.426   2.465  0.2763 -1.1214  1.3030
 9181TIP3   OH249033   2.698   3.242  13.790  0.3221 -0.3372 -0.3338
 9181TIP3    H149034   2.753   3.201  13.856 -2.2831 -2.7376  0.5407
 9181TIP3    H249035   2.652   3.312  13.836 -0.1360 -0.8079 -0.0736
 9182TIP3   OH249036   2.866   1.780   4.777 -0.4227  0.0635  0.0248
 9182TIP3    H149037   2.875   1.766   4.682 -2.0848  1.6932 -0.4376
 9182TIP3    H249038   2.914   1.860   4.794 -0.6786  0.1299  0.4414
 9183TIP3   OH249039   0.407   0.133   0.736  0.4505 -0.1592  0.7212
 9183TIP3    H149040   0.415   0.157   0.644 -0.8644 -1.0490  0.3554
 9183TIP3    H249041   0.334   0.072   0.739 -1.2257  1.7903  2.7350
 9184TIP3   OH249042   4.523   3.788  12.073 -0.2305 -0.1845 -0.3179
 9184TIP3    H149043   4.450   3.842  12.104  0.4060  0.0231  0.9090
 9184TIP3    H249044   4.524   3.712  12.132 -0.4880 -1.0463 -1.3857
 9185TIP3   OH249045   6.778   5.395  13.787  1.1444 -0.2642  0.3302
 9185TIP3    H149046   6.856   5.446  13.812 -0.1845  1.7931  0.5015
 9185TIP3    H249047   6.792   5.376  13.694  1.5003  0.8262  0.1383
 9186TIP3   OH249048   6.744   2.793   5.254 -0.1763 -0.3005  0.1927
 9186TIP3    H149049   6.735   2.782   5.159 -0.5046  0.3788  0.1381
 9186TIP3    H249050   6.728   2.706   5.290  1.6276 -0.9761 -0.4711
 9187TIP3   OH249051   5.781   0.207  11.621  0.3942 -0.0326 -0.0777
 9187TIP3    H149052   5.732   0.178  11.544 -1.2470  1.6309  0.2426
 9187TIP3    H249053   5.729   0.176  11.696  0.2532  1.0352  0.2882
 9188TIP3   OH249054   2.394   5.883   6.104 -0.0677  0.3156 -0.1340
 9188TIP3    H149055   2.415   5.850   6.191  2.5488  1.3286 -0.3078
 9188TIP3    H249056   2.298   5.889   6.104 -0.2481 -1.2443  2.0655
 9189TIP3   OH249057   4.740   0.023   1.274 -0.2067 -0.1207  0.2360
 9189TIP3    H149058   4.798   0.003   1.347  0.6475  2.4894  0.3674
 9189TIP3    H249059   4.671  -0.044   1.279  0.6634 -0.9424  2.4592
 9190TIP3   OH249060   5.882   3.827   3.026  0.3542  0.3682 -0.5258
 9190TIP3    H149061   5.976   3.827   3.011  0.3015  1.9321 -0.9703
 9190TIP3    H249062   5.844   3.833   2.938 -0.1646  0.0009 -0.3328
 9191TIP3   OH249063   6.275   0.138  16.327 -0.4481 -0.3127  0.5003
 9191TIP3    H149064   6.240   0.055  16.296  0.1790  0.2242 -1.9158
 9191TIP3    H249065   6.364   0.141  16.291 -0.0221  0.8691  1.5772
 9192TIP3   OH249066   6.584   4.541   2.602  0.0384 -0.4281 -0.5680
 9192TIP3    H149067   6.498   4.578   2.583  0.3969  1.7076  1.5009
 9192TIP3    H249068   6.641   4.577   2.535  0.2958  2.7221  1.1578
 9193TIP3   OH249069   5.628   4.464   4.331  0.7920 -0.0667  0.2686
 9193TIP3    H149070   5.533   4.460   4.345  0.7689 -0.0737  0.1089
 9193TIP3    H249071   5.660   4.523   4.399  0.8108 -0.9318  1.0230
 9194TIP3   OH249072   5.692   5.209  17.320  0.4318 -0.0281  0.0275
 9194TIP3    H149073   5.620   5.149  17.337 -0.1625  0.6347 -0.1206
 9194TIP3    H249074   5.685   5.230  17.227  0.7474  0.1162  0.0335
 9195TIP3   OH249075   5.348   0.095  10.596 -0.4140 -0.3415 -0.1796
 9195TIP3    H149076   5.269   0.047  10.618 -0.3896 -0.0763  0.5143
 9195TIP3    H249077   5.414   0.027  10.581 -1.1772 -0.6337 -2.5047
 9196TIP3   OH249078   2.711   6.639   4.216  0.3072 -0.4449  0.2290
 9196TIP3    H149079   2.784   6.688   4.252  0.3727  0.4355 -1.0563
 9196TIP3    H249080   2.746   6.551   4.200  1.1914  0.0473 -0.6549
 9197TIP3   OH249081   5.549   6.313  13.307  0.6672  0.2131 -0.2852
 9197TIP3    H149082   5.486   6.354  13.366  0.5314  0.9956 -0.9540
 9197TIP3    H249083   5.625   6.371  13.310  0.4350  0.5905 -1.3265
 9198TIP3   OH249084   6.520   4.791  14.461  0.4432  0.4105  1.0956
 9198TIP3    H149085   6.576   4.860  14.425 -0.1804 -0.3904 -1.5738
 9198TIP3    H249086   6.462   4.767  14.389 -2.0325 -0.1787  3.1577
 9199TIP3   OH249087   5.753   4.390   1.133 -0.2343 -0.1986  0.6147
 9199TIP3    H149088   5.661   4.414   1.142  0.2304  2.3467 -0.6991
 9199TIP3    H249089   5.799   4.443   1.198  0.6481  1.3360 -1.1818
 9200TIP3   OH249090   0.215   0.747  12.059 -0.0461  0.0523 -1.0351
 9200TIP3    H149091   0.228   0.821  12.119  0.6886  0.7044 -1.9600
 9200TIP3    H249092   0.280   0.682  12.087 -1.0899 -0.5088  0.1523
 9201TIP3   OH249093   0.265   5.304  14.135 -0.1005 -0.2518 -0.3056
 9201TIP3    H149094   0.324   5.359  14.083  0.6044  0.4071  1.1543
 9201TIP3    H249095   0.267   5.219  14.091  1.3017 -0.0122 -0.7603
 9202TIP3   OH249096   0.834   2.405   3.171  0.3144  0.4447 -0.2810
 9202TIP3    H149097   0.923   2.435   3.154  0.3343 -0.2647 -1.5022
 9202TIP3    H249098   0.830   2.395   3.266  0.8568  2.5747  0.0224
 9203TIP3   OH249099   3.900   0.849   4.445  0.2456  0.4802 -0.0292
 9203TIP3    H149100   3.928   0.939   4.430 -1.0021  0.6795 -1.2934
 9203TIP3    H249101   3.981   0.803   4.471  1.0925  1.7285 -0.3780
 9204TIP3   OH249102   2.757   4.155  15.195 -0.1917  0.3322 -0.3395
 9204TIP3    H149103   2.823   4.086  15.206 -0.0562  0.3200 -1.2128
 9204TIP3    H249104   2.682   4.123  15.245  0.4138  0.2905  0.5689
 9205TIP3   OH249105   0.499   1.462  12.189  0.7556  0.1185 -0.2902
 9205TIP3    H149106   0.507   1.412  12.270 -0.7517 -0.0802 -0.2387
 9205TIP3    H249107   0.530   1.402  12.121 -0.5828 -0.7552 -0.1687
 9206TIP3   OH249108   4.477   4.292  12.951  0.1689 -0.5574  0.3504
 9206TIP3    H149109   4.435   4.221  12.903 -0.3037  0.6216 -1.0854
 9206TIP3    H249110   4.406   4.354  12.969  0.9119  0.5956 -0.4802
 9207TIP3   OH249111   3.647   2.144  13.776 -0.1693 -0.0017  0.4195
 9207TIP3    H149112   3.654   2.138  13.871  0.5504 -0.9545  0.3213
 9207TIP3    H249113   3.718   2.089  13.743 -1.6910 -1.3825 -0.6805
 9208TIP3   OH249114   1.212   1.667   1.972 -0.0776  0.1088  0.1500
 9208TIP3    H149115   1.216   1.653   1.877  0.5337  0.8589  0.0561
 9208TIP3    H249116   1.127   1.632   1.997  0.3709 -1.5020 -0.4221
 9209TIP3   OH249117   1.606   2.543  14.219 -0.1003 -0.1069 -0.0461
 9209TIP3    H149118   1.526   2.491  14.228  0.0501 -0.3062  0.1697
 9209TIP3    H249119   1.618   2.583  14.305 -1.2392  1.8012 -0.7252
 9210TIP3   OH249120   1.053   1.856   5.642  0.0474  0.2651 -0.0371
 9210TIP3    H149121   1.066   1.856   5.737  1.0037 -1.2509 -0.1386
 9210TIP3    H249122   1.133   1.895   5.607  0.5608 -0.9846 -0.2895
 9211TIP3   OH249123   1.048   4.569  12.232 -0.4484  0.1007 -0.3005
 9211TIP3    H149124   1.077   4.658  12.212 -0.9492 -0.2622 -3.0131
 9211TIP3    H249125   0.966   4.558  12.183 -0.3383 -1.8949 -0.1464
 9212TIP3   OH249126   3.710   3.517  12.386 -0.1046 -0.3164  0.2932
 9212TIP3    H149127   3.660   3.462  12.326 -0.0354 -2.0601  1.7633
 9212TIP3    H249128   3.667   3.603  12.381 -0.7722 -0.7123 -1.3813
 9213TIP3   OH249129   3.977   3.736   1.597 -0.1743 -0.4746 -0.2025
 9213TIP3    H149130   3.882   3.734   1.582  0.0990  0.1214 -2.4032
 9213TIP3    H249131   4.002   3.827   1.581  0.9514 -0.9220 -1.1148
 9214TIP3   OH249132   4.485   4.590   5.503  0.2304  0.0845 -0.3898
 9214TIP3    H149133   4.481   4.607   5.409  1.9784  0.6117 -0.4047
 9214TIP3    H249134   4.466   4.497   5.511 -1.5636  0.3446 -1.0757
 9215TIP3   OH249135   1.553   6.253  17.186 -0.4108  0.0965 -0.2662
 9215TIP3    H149136   1.602   6.174  17.210 -0.1412  0.2453 -0.3279
 9215TIP3    H249137   1.565   6.312  17.261  0.2859  0.4957 -0.6849
 9216TIP3   OH249138   3.526   5.333   1.011  0.7805  0.4137 -0.2180
 9216TIP3    H149139   3.433   5.335   1.035  0.4346 -1.4737 -1.1822
 9216TIP3    H249140   3.568   5.280   1.078  1.2688  1.5823  0.4311
 9217TIP3   OH249141   6.455   4.037  14.248 -0.0954 -0.9137 -0.2966
 9217TIP3    H149142   6.525   4.081  14.200 -0.3797  0.7561  0.7197
 9217TIP3    H249143   6.434   4.097  14.320 -1.6067 -2.0153  0.2386
 9218TIP3   OH249144   6.478   2.803  12.748 -0.0947 -0.0829 -0.2922
 9218TIP3    H149145   6.554   2.862  12.756 -0.2327 -0.0205  0.6242
 9218TIP3    H249146   6.408   2.848  12.794 -1.2586  0.7398 -2.6681
 9219TIP3   OH249147   3.549   2.695   2.725  0.8225  0.3958  0.2851
 9219TIP3    H149148   3.566   2.788   2.742  3.2391  0.0452  0.1968
 9219TIP3    H249149   3.570   2.651   2.807  0.5026 -0.1471  0.0776
 9220TIP3   OH249150   3.636   3.779   1.317 -0.7056 -0.3221 -0.2942
 9220TIP3    H149151   3.593   3.858   1.350  0.7780 -0.1869  1.4502
 9220TIP3    H249152   3.719   3.775   1.364 -0.3080 -2.4214 -1.0551
 9221TIP3   OH249153   3.575   2.121  16.596  0.1349 -0.2585 -0.8611
 9221TIP3    H149154   3.564   2.039  16.644 -0.1504  0.7201  0.8545
 9221TIP3    H249155   3.506   2.178  16.632  2.1637  1.6742  0.2209
 9222TIP3   OH249156   4.577   5.440   4.656  0.1892 -0.0863  0.1132
 9222TIP3    H149157   4.550   5.349   4.670  0.1483  0.1328  1.5570
 9222TIP3    H249158   4.559   5.484   4.739  0.6272  1.1445 -0.4214
 9223TIP3   OH249159   2.312   0.444  12.657 -0.4415  0.1685  0.1345
 9223TIP3    H149160   2.233   0.432  12.605 -1.2441  2.3642  0.7437
 9223TIP3    H249161   2.375   0.383  12.619 -2.6311 -2.3383  0.1798
 9224TIP3   OH249162   6.387   0.895   5.090  0.1800  0.6950  0.2047
 9224TIP3    H149163   6.355   0.814   5.049  0.3382  0.7036  0.0626
 9224TIP3    H249164   6.395   0.957   5.018  1.0827  0.5163  0.1357
 9225TIP3   OH249165   4.926   4.511   5.664  0.8411  0.0654  0.4116
 9225TIP3    H149166   4.962   4.442   5.607  0.1801 -0.0434  0.1125
 9225TIP3    H249167   4.887   4.463   5.737  1.0391  0.1669  0.5848
 9226TIP3   OH249168   2.488   1.765  15.591  0.3851 -0.2883  0.5714
 9226TIP3    H149169   2.446   1.792  15.673 -1.4362  2.4736 -1.0713
 9226TIP3    H249170   2.517   1.847  15.551  0.6487 -1.4517 -1.8105
 9227TIP3   OH249171   0.967   1.575   3.284 -0.0930  0.2265  0.6319
 9227TIP3    H149172   0.955   1.514   3.211  1.4717  0.1862  0.3566
 9227TIP3    H249173   1.001   1.520   3.355 -1.1199  0.3549  1.2402
 9228TIP3   OH249174   2.915   3.972  15.593  0.5407  0.3622  0.2860
 9228TIP3    H149175   2.874   3.887  15.609  0.2828  0.6828  1.3842
 9228TIP3    H249176   2.879   4.029  15.661 -0.9605  1.9372 -1.6991
 9229TIP3   OH249177   4.775   5.202   5.805  0.0806 -0.5235  0.2455
 9229TIP3    H149178   4.828   5.281   5.805  0.4984 -0.7971 -0.0283
 9229TIP3    H249179   4.835   5.133   5.774 -0.1244 -1.0447  0.9760
 9230TIP3   OH249180   5.243   6.730  11.637 -0.4060 -0.2142  0.1174
 9230TIP3    H149181   5.305   6.672  11.593 -0.2378 -0.6772  0.9324
 9230TIP3    H249182   5.217   6.793  11.570 -0.7362 -1.3420 -0.8594
 9231TIP3   OH249183   6.756   0.409  11.437  0.2535  0.8565 -0.7694
 9231TIP3    H149184   6.812   0.478  11.401  0.4366  1.4729  0.6140
 9231TIP3    H249185   6.732   0.442  11.524 -2.2373  0.6014 -1.2912
 9232TIP3   OH249186   0.902   2.006   3.651  0.0079  0.4044  0.4337
 9232TIP3    H149187   0.871   1.986   3.563 -1.0129  2.0232  0.3771
 9232TIP3    H249188   0.826   1.990   3.707  0.2124  0.7996  0.8284
 9233TIP3   OH249189   2.939   4.693  14.423 -0.7011  0.3537 -0.3205
 9233TIP3    H149190   2.849   4.724  14.432 -0.9020 -0.3618  0.2028
 9233TIP3    H249191   2.976   4.699  14.511 -0.7392 -0.8567 -0.2052
 9234TIP3   OH249192   4.287   3.508   0.078 -0.2581  0.2041 -0.1639
 9234TIP3    H149193   4.287   3.413   0.074  2.2732  0.0517  1.2453
 9234TIP3    H249194   4.256   3.529   0.166 -1.3359  0.7458 -0.6509
 9235TIP3   OH249195   1.521   3.943  10.730 -0.6623 -0.3219 -0.6248
 9235TIP3    H149196   1.580   3.902  10.793 -1.3291 -0.6163 -0.1780
 9235TIP3    H249197   1.578   3.977  10.662  0.1684  0.8984  0.6261
 9236TIP3   OH249198   6.277   3.157  12.743 -0.2944 -0.5990 -0.2208
 9236TIP3    H149199   6.317   3.228  12.793  0.5193 -0.6902 -0.7325
 9236TIP3    H249200   6.309   3.077  12.785 -0.3563 -0.6725 -0.3118
 9237TIP3   OH249201   5.152   1.241  16.757 -0.1788 -0.2455 -0.1543
 9237TIP3    H149202   5.076   1.198  16.796 -0.9519  0.7761 -0.4656
 9237TIP3    H249203   5.204   1.271  16.831  0.0193 -1.0981  0.0607
 9238TIP3   OH249204   2.481   5.681  11.955 -0.2976  0.3486 -0.0872
 9238TIP3    H149205   2.501   5.742  12.026  2.3584 -0.0327 -0.4199
 9238TIP3    H249206   2.438   5.736  11.888  0.2489  1.4384  0.4310
 9239TIP3   OH249207   2.654   4.769  16.200 -0.1520  0.0759  0.4513
 9239TIP3    H149208   2.737   4.805  16.169  0.0495 -0.5066  0.3023
 9239TIP3    H249209   2.680   4.704  16.266 -0.5890  1.7998  2.4407
 9240TIP3   OH249210   3.293   1.727  14.268  0.7112  0.2825  0.4914
 9240TIP3    H149211   3.276   1.819  14.248 -1.8266 -0.3604 -0.8270
 9240TIP3    H249212   3.315   1.688  14.183  1.5246 -0.3699  0.9902
 9241TIP3   OH249213   1.907   2.498  16.137 -0.2087 -0.1065 -0.1484
 9241TIP3    H149214   1.829   2.544  16.105 -1.1013 -1.9299 -0.7403
 9241TIP3    H249215   1.930   2.543  16.218 -1.8931  0.4743  0.0459
 9242TIP3   OH249216   2.685   0.267   4.863  0.2331 -0.0171 -0.1037
 9242TIP3    H149217   2.700   0.189   4.916  0.6114  0.1322  0.0161
 9242TIP3    H249218   2.743   0.257   4.788 -0.6990 -0.4913 -0.7890
 9243TIP3   OH249219   2.169   4.765   5.870 -0.3437 -0.0520 -0.3017
 9243TIP3    H149220   2.132   4.780   5.956 -0.6038  0.2207 -0.4583
 9243TIP3    H249221   2.094   4.742   5.815 -0.0166 -1.5438 -0.1624
 9244TIP3   OH249222   2.015   6.234   5.183  0.6254 -0.0841 -0.1364
 9244TIP3    H149223   2.006   6.322   5.219  2.1897 -0.2862  0.8374
 9244TIP3    H249224   1.925   6.201   5.179 -0.4068  2.5842 -3.4095
 9245TIP3   OH249225   3.273   5.732  11.270  0.3325 -0.1892 -0.5554
 9245TIP3    H149226   3.269   5.661  11.207  0.6652 -0.5790 -0.1430
 9245TIP3    H249227   3.325   5.697  11.343 -2.5480 -0.8828  1.3463
 9246TIP3   OH249228   3.488   4.270   0.693  0.3087  0.0653  0.4932
 9246TIP3    H149229   3.443   4.205   0.639  1.1007 -0.2565  0.2086
 9246TIP3    H249230   3.434   4.349   0.686  0.1162 -0.1330 -0.3218
 9247TIP3   OH249231   1.127   1.138   2.970 -0.1160  0.2914 -0.3903
 9247TIP3    H149232   1.115   1.044   2.957  0.2387  0.0537  0.9074
 9247TIP3    H249233   1.092   1.155   3.057  2.6873  0.7760  0.7462
 9248TIP3   OH249234   3.788   5.658   2.925 -0.0564  0.3537 -0.2800
 9248TIP3    H149235   3.725   5.664   2.997  0.4853 -0.8757  0.3264
 9248TIP3    H249236   3.735   5.641   2.848 -0.5725  0.7073 -0.0087
 9249TIP3   OH249237   1.415   6.643   0.197  0.1995  0.2841 -0.3775
 9249TIP3    H149238   1.325   6.621   0.220  0.2037  0.5434 -0.1033
 9249TIP3    H249239   1.459   6.558   0.189  0.1877  0.1868  0.5477
 9250TIP3   OH249240   6.082   0.358   4.656  0.1955  0.1824  0.1214
 9250TIP3    H149241   6.070   0.384   4.564  1.1335  0.7966  0.1581
 9250TIP3    H249242   6.067   0.263   4.656  0.1750  0.1748 -0.6620
 9251TIP3   OH249243   4.344   3.521  11.320  0.0143  0.0100  0.0572
 9251TIP3    H149244   4.418   3.506  11.378 -0.3888  1.3486  0.9623
 9251TIP3    H249245   4.289   3.583  11.367 -0.7575  0.4757 -1.3978
 9252TIP3   OH249246   2.178   4.475   4.683  0.4661 -0.1925 -0.0204
 9252TIP3    H149247   2.154   4.464   4.775 -0.0271  1.5252  0.0812
 9252TIP3    H249248   2.116   4.419   4.636 -1.3169  1.2346  0.5145
 9253TIP3   OH249249   0.780   0.685  13.728  0.2675 -0.1435  0.2059
 9253TIP3    H149250   0.864   0.673  13.683  0.0922  0.5672 -0.3390
 9253TIP3    H249251   0.717   0.640  13.672  0.3650 -1.2708  0.9706
 9254TIP3   OH249252   2.220   4.653  14.644 -0.5656 -0.2568  0.1781
 9254TIP3    H149253   2.191   4.701  14.721  0.8359  0.9906 -0.0466
 9254TIP3    H249254   2.229   4.562  14.675 -1.8514 -0.1425  0.9634
 9255TIP3   OH249255   2.755   2.698   4.495  0.2158 -0.0346  0.2610
 9255TIP3    H149256   2.680   2.755   4.479  0.6526  0.1002 -1.6030
 9255TIP3    H249257   2.718   2.612   4.511 -0.4194  0.5629  2.2251
 9256TIP3   OH249258   4.652   6.356  15.682 -0.0701  0.0100 -0.2042
 9256TIP3    H149259   4.704   6.306  15.745  1.3537  2.1717  0.4640
 9256TIP3    H249260   4.562   6.344  15.711  0.3767 -0.8189  0.9317
 9257TIP3   OH249261   5.990   2.913  11.265 -0.0750 -0.4782 -0.3805
 9257TIP3    H149262   6.066   2.855  11.261  2.1497  2.1738  0.3269
 9257TIP3    H249263   5.999   2.969  11.188 -1.3817 -0.1630 -0.3280
 9258TIP3   OH249264   3.999   6.267   2.760  0.5298  0.3368 -0.1495
 9258TIP3    H149265   3.965   6.226   2.680  0.6638 -0.7195  0.3149
 9258TIP3    H249266   4.093   6.274   2.744  0.2128  2.9892 -1.3146
 9259TIP3   OH249267   4.574   3.110   4.696 -0.4044  0.0652  0.5041
 9259TIP3    H149268   4.578   3.172   4.768 -0.8277  0.5686  0.1049
 9259TIP3    H249269   4.568   3.165   4.617  0.2914 -0.4655  0.0665
 9260TIP3   OH249270   1.031   4.013  15.092 -0.5253  0.0038  0.0640
 9260TIP3    H149271   0.953   4.068  15.105 -0.2172  0.5603 -0.3813
 9260TIP3    H249272   1.085   4.064  15.031 -0.5028 -1.0745 -0.8482
 9261TIP3   OH249273   5.818   0.493  10.495 -0.4898 -0.4209  0.5167
 9261TIP3    H149274   5.773   0.541  10.564 -1.3489 -0.7547  0.2052
 9261TIP3    H249275   5.882   0.555  10.460 -1.5455  0.4960  0.1473
 9262TIP3   OH249276   5.212   0.938  12.989  0.2869 -0.0820 -0.0883
 9262TIP3    H149277   5.204   0.863  12.930  0.5880  0.4436 -0.8116
 9262TIP3    H249278   5.305   0.961  12.987  0.6552 -1.1298  1.9674
 9263TIP3   OH249279   4.001   1.156  10.814 -0.4644 -0.7457 -0.2717
 9263TIP3    H149280   4.086   1.190  10.788 -0.3631 -0.3167  0.5884
 9263TIP3    H249281   4.016   1.063  10.829 -0.3854 -0.8768 -1.1052
 9264TIP3   OH249282   3.757   2.301   3.613 -0.4933  0.1975 -0.0335
 9264TIP3    H149283   3.709   2.250   3.548  0.6426 -0.6445 -0.2520
 9264TIP3    H249284   3.847   2.303   3.581  0.2812 -0.9438  1.8661
 9265TIP3   OH249285   0.477   4.733  15.715  0.2659 -0.2038  0.3180
 9265TIP3    H149286   0.433   4.683  15.785 -1.6324 -0.0753 -0.7108
 9265TIP3    H249287   0.517   4.807  15.760  0.2872 -0.8826  1.4514
 9266TIP3   OH249288   4.149   1.486  14.619  0.3622 -0.1624 -0.0239
 9266TIP3    H149289   4.107   1.449  14.696  1.2014  0.2256  0.6412
 9266TIP3    H249290   4.142   1.417  14.552  0.7444 -1.0173  0.7915
 9267TIP3   OH249291   0.108   3.294  13.701  0.0368 -0.4865  0.1354
 9267TIP3    H149292   0.182   3.240  13.675  1.0997  0.4558  1.1030
 9267TIP3    H249293   0.103   3.284  13.796 -1.7947 -1.4015 -0.0108
 9268TIP3   OH249294   2.768   2.178   3.615 -0.5293 -0.2767 -0.1988
 9268TIP3    H149295   2.700   2.168   3.548 -0.8782 -2.2394  0.3754
 9268TIP3    H249296   2.785   2.089   3.645 -1.0820  0.5561  3.0269
 9269TIP3   OH249297   2.416   3.991   1.389 -0.0394  0.4929 -0.1847
 9269TIP3    H149298   2.372   4.067   1.427  0.6501  1.1282 -0.6437
 9269TIP3    H249299   2.345   3.943   1.345 -0.2351  1.7640 -1.3365
 9270TIP3   OH249300   2.178   2.830   6.199  0.0491  0.0024 -0.0224
 9270TIP3    H149301   2.261   2.868   6.230  0.5397 -1.0643 -0.0010
 9270TIP3    H249302   2.116   2.849   6.269  0.6104 -0.3891  0.5936
 9271TIP3   OH249303   0.411   4.117   0.284  0.4662  0.3792 -0.1448
 9271TIP3    H149304   0.374   4.205   0.273  0.5924  0.3288 -0.9847
 9271TIP3    H249305   0.368   4.064   0.218 -0.1819 -0.3902  0.8656
 9272TIP3   OH249306   1.856   1.473   0.411  0.2041 -0.1986 -0.1779
 9272TIP3    H149307   1.781   1.428   0.372  0.2939  1.5338 -2.5879
 9272TIP3    H249308   1.891   1.527   0.340  1.4921  1.8838  1.8956
 9273TIP3   OH249309   5.773   2.428  17.294  0.2053  0.0211 -0.1002
 9273TIP3    H149310   5.832   2.352  17.298 -1.9653 -1.7276  1.0330
 9273TIP3    H249311   5.736   2.424  17.205 -0.5587 -0.8275  0.2391
 9274TIP3   OH249312   2.116   5.477   5.164  0.1047 -0.5818  0.3271
 9274TIP3    H149313   2.046   5.414   5.144  0.7065 -1.0902 -0.2393
 9274TIP3    H249314   2.176   5.470   5.089  0.7431 -0.1262  0.7867
 9275TIP3   OH249315   0.381   0.658   3.973 -0.0030  0.2659 -0.3958
 9275TIP3    H149316   0.355   0.727   3.912  2.5402  1.3709 -0.3374
 9275TIP3    H249317   0.386   0.702   4.058 -0.9655 -0.6616  0.1702
 9276TIP3   OH249318   0.388   5.849  12.842 -0.5245 -0.0310 -0.1327
 9276TIP3    H149319   0.338   5.807  12.771  0.1100  0.7979 -1.0972
 9276TIP3    H249320   0.470   5.875  12.801  0.5344 -0.9758  1.3297
 9277TIP3   OH249321   6.481   1.178  13.180 -0.1016 -0.4995  0.7452
 9277TIP3    H149322   6.463   1.085  13.162 -1.9311 -0.0689  0.0605
 9277TIP3    H249323   6.430   1.196  13.259 -0.2345  0.0636  0.5303
 9278TIP3   OH249324   2.701   3.299   0.038  0.1576 -0.2725 -0.1178
 9278TIP3    H149325   2.700   3.380  -0.012  0.0360 -0.6354 -0.7068
 9278TIP3    H249326   2.609   3.273   0.044 -0.0524  0.6677  1.7993
 9279TIP3   OH249327   2.719   0.266   3.942 -0.6395  0.5949  0.3071
 9279TIP3    H149328   2.694   0.184   3.900 -0.5239  0.5678  0.2907
 9279TIP3    H249329   2.786   0.303   3.884  0.0926  0.1768  0.8734
 9280TIP3   OH249330   5.736   3.966  10.470  0.5691  0.3851  0.4719
 9280TIP3    H149331   5.694   3.887  10.503 -0.3589  0.5580 -0.2652
 9280TIP3    H249332   5.826   3.960  10.502  0.1038 -0.1763  1.7680
 9281TIP3   OH249333   5.837   3.082   6.148 -0.5410  0.1302  0.4028
 9281TIP3    H149334   5.846   3.130   6.230 -0.7481 -0.9411  1.0650
 9281TIP3    H249335   5.927   3.058   6.125 -0.5128  0.1754  0.4652
 9282TIP3   OH249336   4.978   0.765  16.755  0.6208 -0.4274 -0.4337
 9282TIP3    H149337   4.951   0.676  16.778  1.5126 -0.8731 -1.0547
 9282TIP3    H249338   4.969   0.769  16.660 -1.3331  0.8219 -0.2548
 9283TIP3   OH249339   3.122   5.415   2.849  0.0335  0.1436  0.1259
 9283TIP3    H149340   3.213   5.389   2.833  0.3801  1.4700 -0.1968
 9283TIP3    H249341   3.079   5.335   2.881  1.7753 -0.0531  2.2008
 9284TIP3   OH249342   4.590   5.240   3.853 -0.0635  0.1997 -0.3878
 9284TIP3    H149343   4.669   5.293   3.865  0.3375 -0.8397  2.3182
 9284TIP3    H249344   4.529   5.273   3.919 -0.5191 -1.3495  0.0111
 9285TIP3   OH249345   6.165   4.164   3.995  0.2242  0.4783 -0.0974
 9285TIP3    H149346   6.075   4.182   4.022  0.1730 -0.2242  0.1989
 9285TIP3    H249347   6.174   4.069   4.002  0.3167  0.2943 -2.2257
 9286TIP3   OH249348   6.124   0.795  12.424 -0.2015 -0.5640  0.8637
 9286TIP3    H149349   6.090   0.832  12.506 -0.4240  0.2944  0.3961
 9286TIP3    H249350   6.178   0.865  12.386 -0.6931 -0.6755 -0.0741
 9287TIP3   OH249351   2.896   5.703  16.015 -0.7781  0.3388 -0.6880
 9287TIP3    H149352   2.955   5.634  15.984 -0.3176  0.6173 -0.4381
 9287TIP3    H249353   2.941   5.784  15.996 -0.4902  0.5191  0.6651
 9288TIP3   OH249354   2.663   2.420  13.050  0.2543  0.3112  0.1383
 9288TIP3    H149355   2.738   2.472  13.078 -0.1871  0.4969  1.0140
 9288TIP3    H249356   2.587   2.467  13.083 -0.1786 -0.6280  0.5344
 9289TIP3   OH249357   2.355   6.558   1.199  0.5311  0.3759  0.4833
 9289TIP3    H149358   2.415   6.512   1.258  1.6926  0.6858 -0.4167
 9289TIP3    H249359   2.311   6.488   1.150 -0.9400  0.0796  2.1121
 9290TIP3   OH249360   5.492   2.191   1.160  0.0372 -0.6079 -0.0345
 9290TIP3    H149361   5.432   2.175   1.087 -1.8673 -0.3487  1.3632
 9290TIP3    H249362   5.434   2.214   1.233  1.7862 -1.5345  1.7535
 9291TIP3   OH249363   2.561   6.097  14.055  0.0876 -0.1289  0.0231
 9291TIP3    H149364   2.637   6.042  14.037  0.1508  0.3522 -1.2845
 9291TIP3    H249365   2.580   6.180  14.012  0.2913  1.2049  2.5168
 9292TIP3   OH249366   5.013   4.963  12.570  0.5853 -0.4841 -0.0843
 9292TIP3    H149367   5.054   4.883  12.539 -1.6007 -2.0368  0.7394
 9292TIP3    H249368   5.055   4.980  12.655  1.4356 -0.4169 -0.5086
 9293TIP3   OH249369   4.933   6.598   4.462  0.4846  0.2392 -0.4616
 9293TIP3    H149370   4.987   6.665   4.420 -0.9461  1.0949 -1.0017
 9293TIP3    H249371   4.877   6.646   4.522  0.0062 -0.5782 -0.2331
 9294TIP3   OH249372   2.363   6.490   3.125  0.7762 -0.0539 -0.6172
 9294TIP3    H149373   2.356   6.506   3.219  0.2358 -0.2242 -0.6218
 9294TIP3    H249374   2.346   6.396   3.115  1.2263 -0.1138 -0.8461
 9295TIP3   OH249375   4.827   4.956   0.914  0.4304 -0.1584 -0.3467
 9295TIP3    H149376   4.854   4.868   0.943 -1.1366  0.7927  5.0516
 9295TIP3    H249377   4.907   5.009   0.922  0.5542 -0.3933  0.0077
 9296TIP3   OH249378   5.939   5.767  15.438  0.4127  0.0189  0.0606
 9296TIP3    H149379   5.903   5.678  15.443 -1.6616  0.8344  0.7187
 9296TIP3    H249380   6.002   5.772  15.510  0.3725 -0.8420  0.1676
 9297TIP3   OH249381   5.365   3.128   3.651 -0.1509  0.6303  0.4606
 9297TIP3    H149382   5.392   3.047   3.694 -0.5876 -1.1285 -2.3028
 9297TIP3    H249383   5.289   3.159   3.702 -1.2104 -1.8132  0.4932
 9298TIP3   OH249384   6.137   4.991   0.618  0.2628 -0.1568  0.1104
 9298TIP3    H149385   6.176   5.032   0.696  0.1417  0.5507 -0.1936
 9298TIP3    H249386   6.212   4.954   0.571  0.2720 -1.1779  0.8859
 9299TIP3   OH249387   5.094   1.363  15.420 -0.2912  0.5289 -0.0663
 9299TIP3    H149388   5.020   1.423  15.408 -1.0493 -0.1975  0.8488
 9299TIP3    H249389   5.066   1.304  15.489  0.3655 -1.0142 -1.0724
 9300TIP3   OH249390   4.451   5.212  10.912  0.2597 -0.2415  0.1027
 9300TIP3    H149391   4.441   5.119  10.889 -0.6752 -0.1076 -0.0739
 9300TIP3    H249392   4.414   5.219  11.000  1.3668 -0.2385  0.5848
 9301TIP3   OH249393   4.292   3.518  14.429 -0.9959  0.4305 -0.4502
 9301TIP3    H149394   4.370   3.574  14.427 -1.5299  1.3288  1.4048
 9301TIP3    H249395   4.309   3.456  14.499 -1.1385 -0.6602 -1.3570
 9302TIP3   OH249396   4.314   5.372  13.101  0.0933  0.3018  0.0576
 9302TIP3    H149397   4.273   5.454  13.073 -0.6672  0.1367  0.6697
 9302TIP3    H249398   4.333   5.386  13.194  0.3236 -0.0750  0.0677
 9303TIP3   OH249399   3.003   6.189   5.173  0.4604  0.4666  0.0077
 9303TIP3    H149400   2.933   6.126   5.155 -0.3631  1.3215  0.1654
 9303TIP3    H249401   3.080   6.134   5.190  0.2079 -0.4800 -1.6431
 9304TIP3   OH249402   6.652   2.563   5.349 -0.0493  0.3022  0.5112
 9304TIP3    H149403   6.687   2.571   5.438  0.5915 -3.2953  0.7347
 9304TIP3    H249404   6.558   2.551   5.361 -0.2426  1.7387  0.5285
 9305TIP3   OH249405   0.640   3.583   4.879  0.0726 -0.3596  0.3220
 9305TIP3    H149406   0.730   3.564   4.853 -0.5574 -1.7734 -0.9530
 9305TIP3    H249407   0.649   3.631   4.961  1.9742 -0.8257  0.4375
 9306TIP3   OH249408   5.948   3.541   3.119  0.3290  0.1109 -0.3481
 9306TIP3    H149409   5.989   3.573   3.199 -0.5357  2.5302 -0.8032
 9306TIP3    H249410   6.012   3.560   3.050  0.2782 -0.2239 -0.4903
 9307TIP3   OH249411   1.511   1.283   2.433  0.6092 -0.2660 -0.1870
 9307TIP3    H149412   1.512   1.188   2.446  1.8982 -0.1793  0.5326
 9307TIP3    H249413   1.519   1.319   2.521 -0.9655  0.5491 -0.3474
 9308TIP3   OH249414   2.393   3.053   3.530  0.7358  0.1111  0.3579
 9308TIP3    H149415   2.333   2.999   3.581  1.2081  0.8909  1.7905
 9308TIP3    H249416   2.462   2.993   3.502 -0.3931 -0.6840 -0.8767
 9309TIP3   OH249417   6.412   3.053   1.381 -0.2157 -0.6068  0.4410
 9309TIP3    H149418   6.357   3.131   1.393 -0.3179 -0.8161  1.5129
 9309TIP3    H249419   6.494   3.076   1.425  0.1919 -0.6693 -0.2809
 9310TIP3   OH249420   4.833   1.436   4.582 -0.2162  0.9558 -0.7343
 9310TIP3    H149421   4.740   1.426   4.602 -0.6079  0.6731 -2.5265
 9310TIP3    H249422   4.853   1.526   4.605 -1.4418  1.6118 -2.0706
 9311TIP3   OH249423   4.130   3.202   0.713 -0.2559  0.0541 -0.2886
 9311TIP3    H149424   4.142   3.199   0.808  2.9100  1.1678 -0.5319
 9311TIP3    H249425   4.209   3.245   0.680 -2.1742  1.6604 -3.2781
 9312TIP3   OH249426   3.636   1.767  17.448  0.0927 -0.0726 -0.1720
 9312TIP3    H149427   3.629   1.721  17.532  0.1397 -0.5001 -0.4006
 9312TIP3    H249428   3.621   1.859  17.470 -0.6509 -0.2676  0.1963
 9313TIP3   OH249429   5.526   4.639   1.888 -0.2306  0.5809  0.5469
 9313TIP3    H149430   5.487   4.579   1.952  0.4955  0.7313  1.1473
 9313TIP3    H249431   5.593   4.587   1.845 -2.1172 -0.1915 -1.6585
 9314TIP3   OH249432   2.170   5.627  13.570 -0.0959  0.4478  0.5475
 9314TIP3    H149433   2.191   5.716  13.600  2.0388 -0.1665  1.0358
 9314TIP3    H249434   2.135   5.640  13.481  0.6650  1.7397  0.4091
 9315TIP3   OH249435   0.006   4.002   3.789  0.3023 -0.1613  0.3514
 9315TIP3    H149436   0.068   4.028   3.721  0.5272 -0.2077  0.5378
 9315TIP3    H249437  -0.020   3.913   3.765 -0.0263  0.0159  0.0327
 9316TIP3   OH249438   0.054   5.103  17.081 -0.0788  0.0978  0.2024
 9316TIP3    H149439  -0.033   5.068  17.096 -0.0750 -0.4714 -0.9859
 9316TIP3    H249440   0.051   5.192  17.115 -0.7570 -0.3053  1.2427
 9317TIP3   OH249441   6.021   3.906  11.886 -0.1020  0.0572  0.0901
 9317TIP3    H149442   6.087   3.870  11.945 -0.3801  0.4599  0.6653
 9317TIP3    H249443   6.067   3.918  11.803  0.2211 -0.7770  0.1436
 9318TIP3   OH249444   3.103   5.784  17.254 -0.3686  0.0130 -0.3774
 9318TIP3    H149445   3.058   5.846  17.311 -1.8786 -1.9119  0.6612
 9318TIP3    H249446   3.190   5.822  17.240 -0.6276  1.4882  1.6269
 9319TIP3   OH249447   0.410   3.697  12.329  0.0283 -0.3269 -0.1055
 9319TIP3    H149448   0.504   3.694  12.311  0.2226  2.0039  0.2757
 9319TIP3    H249449   0.372   3.637  12.265  1.5849  0.3347 -1.7403
 9320TIP3   OH249450   0.686   4.468  10.860 -0.1308  0.0980 -0.1638
 9320TIP3    H149451   0.744   4.392  10.864  0.3112  0.3822 -1.0573
 9320TIP3    H249452   0.737   4.535  10.814 -0.4179  1.0319  0.8351
 9321TIP3   OH249453   5.263   5.109  16.278  0.4032  0.4175 -0.4059
 9321TIP3    H149454   5.290   5.041  16.217  0.3023  0.6126 -0.6677
 9321TIP3    H249455   5.171   5.124  16.257  0.4330  0.6520 -0.3627
 9322TIP3   OH249456   4.309   3.187   3.839  0.5436  0.1320 -0.1860
 9322TIP3    H149457   4.291   3.251   3.771 -2.3124  1.0432  1.2564
 9322TIP3    H249458   4.283   3.103   3.800 -3.9342  0.9621  0.4866
 9323TIP3   OH249459   0.606   1.281   5.632  0.7580  0.6382  0.8475
 9323TIP3    H149460   0.636   1.360   5.677 -0.2474  1.8697 -0.5235
 9323TIP3    H249461   0.658   1.210   5.669  2.5175  2.1034  1.3170
 9324TIP3   OH249462   6.520   2.922  14.196 -0.0141 -0.2503  0.5864
 9324TIP3    H149463   6.611   2.920  14.225  0.0214  1.1403  0.6347
 9324TIP3    H249464   6.526   2.939  14.102 -0.1932 -2.2565  0.1712
 9325TIP3   OH249465   0.851   4.576  12.027 -0.1445 -0.3295 -0.2265
 9325TIP3    H149466   0.759   4.549  12.028 -0.0280 -0.7383 -0.2433
 9325TIP3    H249467   0.874   4.580  11.935 -0.1321 -0.2741 -0.2204
 9326TIP3   OH249468   5.439   4.647  11.132  0.5811  0.8128 -0.1499
 9326TIP3    H149469   5.503   4.710  11.165  1.5637  0.0770 -0.6126
 9326TIP3    H249470   5.491   4.581  11.087 -0.5134  0.2163 -0.5766
 9327TIP3   OH249471   5.764   1.622   5.261 -0.0841 -0.5651 -0.0621
 9327TIP3    H149472   5.840   1.623   5.204 -0.5800 -1.5983 -0.7551
 9327TIP3    H249473   5.748   1.530   5.280 -2.7275 -0.6590 -2.1116
 9328TIP3   OH249474   3.026   2.150  13.874 -0.4189  0.1200 -0.1846
 9328TIP3    H149475   2.951   2.210  13.872 -0.9774 -0.5789 -1.7532
 9328TIP3    H249476   3.076   2.171  13.796 -0.2271 -0.9613 -0.3640
 9329TIP3   OH249477   0.589   2.598  14.399 -0.1300  1.0821  0.0236
 9329TIP3    H149478   0.678   2.595  14.363 -0.2345  2.1194 -0.3566
 9329TIP3    H249479   0.593   2.541  14.475  0.6042  0.3387 -0.5414
 9330TIP3   OH249480   2.151   6.402  12.854  0.3484 -0.0659  0.2031
 9330TIP3    H149481   2.209   6.326  12.862  1.9058  0.9283 -0.8493
 9330TIP3    H249482   2.103   6.405  12.936  0.9861 -1.5998  0.6694
 9331TIP3   OH249483   3.436   5.930  13.150  0.2347 -0.0871 -0.4386
 9331TIP3    H149484   3.486   6.012  13.149  1.3820 -0.7714 -1.4796
 9331TIP3    H249485   3.369   5.943  13.082  1.2564 -0.4743 -1.5679
 9332TIP3   OH249486   3.106   1.444   0.013  0.0214  0.2221 -0.9360
 9332TIP3    H149487   3.090   1.425   0.106  0.8083 -0.3311 -0.9027
 9332TIP3    H249488   3.021   1.471  -0.021 -0.1401  1.1228  0.1098
 9333TIP3   OH249489   6.271   0.249   5.638  0.0298  0.0788  1.3328
 9333TIP3    H149490   6.193   0.236   5.693 -2.3864  0.3230 -1.7840
 9333TIP3    H249491   6.311   0.162   5.633 -2.0106 -0.8621  0.3118
 9334TIP3   OH249492   1.692   6.302  12.939  0.8200 -0.3910 -0.2161
 9334TIP3    H149493   1.668   6.364  12.870  0.5149  1.8296  1.7772
 9334TIP3    H249494   1.614   6.248  12.952  0.5221 -0.1294 -0.8869
 9335TIP3   OH249495   4.331   0.255  13.776  0.0823 -0.4753 -0.0977
 9335TIP3    H149496   4.299   0.345  13.787 -1.6859 -1.0065 -0.5460
 9335TIP3    H249497   4.418   0.255  13.816 -0.3174  1.1618  0.8601
 9336TIP3   OH249498   6.777   5.572  12.619 -0.0658  0.2428  0.6431
 9336TIP3    H149499   6.694   5.620  12.623  0.3041  0.8181  1.6738
 9336TIP3    H249500   6.775   5.529  12.533 -2.0068 -0.8064  1.1328
 9337TIP3   OH249501   2.539   0.974  16.979  0.0060 -0.1293 -0.8374
 9337TIP3    H149502   2.456   0.994  16.936 -2.0554 -1.6662  2.1042
 9337TIP3    H249503   2.549   1.043  17.045 -0.4979 -1.5019  0.7340
 9338TIP3   OH249504   6.564   5.082  14.855  0.0813 -0.4535  0.0099
 9338TIP3    H149505   6.519   5.104  14.936 -0.2409  0.1943 -0.3358
 9338TIP3    H249506   6.657   5.090  14.876 -0.0171  0.7044  0.0476
 9339TIP3   OH249507   6.529   4.664   3.092 -0.0775  0.1479 -0.0254
 9339TIP3    H149508   6.622   4.640   3.093  0.0845  0.5872 -1.4793
 9339TIP3    H249509   6.529   4.759   3.080 -0.7148  0.2221  0.5698
 9340TIP3   OH249510   6.271   0.042  11.794  0.1244 -0.0026  0.0057
 9340TIP3    H149511   6.296   0.125  11.835 -0.1138  0.2202 -0.2961
 9340TIP3    H249512   6.184   0.059  11.758  0.3997 -0.1365 -0.7434
 9341TIP3   OH249513   5.508   4.194  16.251 -0.3825 -0.3830 -0.2447
 9341TIP3    H149514   5.447   4.120  16.249  1.5127 -2.0128 -2.3236
 9341TIP3    H249515   5.550   4.193  16.165  2.7299  0.5199  1.1276
 9342TIP3   OH249516   1.024   6.020   3.181 -0.0031  0.3155  0.4174
 9342TIP3    H149517   0.943   6.001   3.228 -0.0260  0.5905  0.4893
 9342TIP3    H249518   1.039   6.113   3.196  1.1173 -0.0416  1.6417
 9343TIP3   OH249519   0.906   3.443  16.979 -0.2802  0.7026 -0.0447
 9343TIP3    H149520   0.872   3.517  16.930  0.7028  0.1020 -1.6888
 9343TIP3    H249521   0.994   3.471  17.008 -0.0513  0.3142 -0.3614
 9344TIP3   OH249522   4.521   1.492  15.116 -0.4710 -0.0199 -0.2075
 9344TIP3    H149523   4.573   1.570  15.096  2.4531 -1.2499  1.8798
 9344TIP3    H249524   4.444   1.526  15.161  0.9949  1.7212  1.1570
 9345TIP3   OH249525   3.749   1.577   1.314 -0.0748 -0.1195  0.3542
 9345TIP3    H149526   3.728   1.521   1.389  4.3059 -0.6460  1.4718
 9345TIP3    H249527   3.733   1.666   1.346 -1.5742 -0.4476  0.6030
 9346TIP3   OH249528   2.424   4.326   2.117  0.1014 -0.5750 -0.2073
 9346TIP3    H149529   2.421   4.369   2.032 -0.0439  0.9342  0.5261
 9346TIP3    H249530   2.436   4.397   2.180 -1.8554 -1.4101  1.2186
 9347TIP3   OH249531   3.240   3.486  15.953 -0.6884 -0.3547  0.3634
 9347TIP3    H149532   3.177   3.423  15.987 -0.6775 -0.6079 -0.0744
 9347TIP3    H249533   3.186   3.560  15.924 -0.6114  0.4095  2.0459
 9348TIP3   OH249534   3.708   3.311  12.958  0.2222  0.1729  0.1140
 9348TIP3    H149535   3.737   3.220  12.945 -0.9478 -0.0608 -1.0629
 9348TIP3    H249536   3.644   3.305  13.030 -0.0000  0.0219 -0.0926
 9349TIP3   OH249537   0.491   6.139   2.198  0.4977 -0.0661 -0.4339
 9349TIP3    H149538   0.515   6.122   2.108  0.2904  1.6385 -0.8511
 9349TIP3    H249539   0.559   6.198   2.231  1.3630 -1.7726  1.0047
 9350TIP3   OH249540   3.513   2.964  17.322 -0.4874 -0.3869  0.4739
 9350TIP3    H149541   3.458   2.985  17.246 -0.6475 -2.0027  0.1025
 9350TIP3    H249542   3.452   2.954  17.394 -0.4018  0.4652  0.6738
 9351TIP3   OH249543   2.221   6.131   0.732  0.1614 -0.9216  0.4082
 9351TIP3    H149544   2.248   6.074   0.804  0.4199  0.1315  1.1769
 9351TIP3    H249545   2.126   6.133   0.736  0.1989  0.8405  2.1658
 9352TIP3   OH249546   4.912   1.414   5.917  0.2094  0.7649 -0.9808
 9352TIP3    H149547   4.954   1.483   5.867  0.6470  1.2478  0.0218
 9352TIP3    H249548   4.939   1.430   6.008 -0.1884 -0.3482 -0.6464
 9353TIP3   OH249549   0.621   4.811  14.654 -0.0792  0.2473  0.3270
 9353TIP3    H149550   0.643   4.726  14.617  0.7811  0.4691  0.2997
 9353TIP3    H249551   0.541   4.837  14.609  1.0174  0.5842 -1.5744
 9354TIP3   OH249552   0.447   5.335   3.036 -0.2890 -0.1235  0.4689
 9354TIP3    H149553   0.431   5.405   2.972  1.6452  0.8141  0.9529
 9354TIP3    H249554   0.509   5.276   2.992 -1.1000 -1.0014  0.4621
 9355TIP3   OH249555   4.206   5.732  14.105  0.5716 -0.2298  0.0027
 9355TIP3    H149556   4.156   5.811  14.124  0.1603 -0.6395  0.6585
 9355TIP3    H249557   4.280   5.763  14.052  1.3597  0.8704  1.6595
 9356TIP3   OH249558   1.840   6.624  16.026 -0.0696  0.0290 -0.0978
 9356TIP3    H149559   1.859   6.689  15.958 -0.3695 -0.2749 -0.4811
 9356TIP3    H249560   1.841   6.540  15.980 -0.8313 -0.1336  0.1572
 9357TIP3   OH249561   2.738   6.257  15.931 -0.1344  0.2131 -0.3549
 9357TIP3    H149562   2.781   6.178  15.899  0.3786  1.2308 -2.3937
 9357TIP3    H249563   2.738   6.316  15.856 -2.4111  1.3900  0.4733
 9358TIP3   OH249564   2.478   5.522  16.160 -0.1526  0.2664 -0.4083
 9358TIP3    H149565   2.559   5.571  16.175  0.0653 -0.4006  0.7394
 9358TIP3    H249566   2.506   5.430  16.158 -0.6014  0.1425 -2.1828
 9359TIP3   OH249567   4.548   0.015  13.582 -0.3316 -0.0415  0.0963
 9359TIP3    H149568   4.556  -0.058  13.643  1.0352 -0.2060 -0.2656
 9359TIP3    H249569   4.618   0.003  13.519 -1.2567  0.5439 -1.0945
 9360TIP3   OH249570   1.224   4.732  14.549  0.0507 -0.0146  0.2062
 9360TIP3    H149571   1.306   4.699  14.585  0.7630  2.1298  0.6860
 9360TIP3    H249572   1.160   4.719  14.619  0.1642 -0.8743  0.1611
 9361TIP3   OH249573   0.726   0.001  16.589  0.3582  0.3022 -0.1396
 9361TIP3    H149574   0.803   0.021  16.536  0.1592  1.0545 -0.1555
 9361TIP3    H249575   0.652   0.013  16.530  0.1865  0.2954  0.0714
 9362TIP3   OH249576   1.033   3.744  16.041 -0.4233 -0.1225  0.4591
 9362TIP3    H149577   1.061   3.699  15.961 -0.4099 -0.6979  0.7854
 9362TIP3    H249578   0.992   3.676  16.094 -1.8127  0.5504  0.3072
 9363TIP3   OH249579   2.626   1.015   3.736 -0.2853  0.5313  0.3176
 9363TIP3    H149580   2.715   1.035   3.765  0.0953 -0.8512  0.2008
 9363TIP3    H249581   2.638   0.969   3.653 -1.0523 -0.4633  0.7345
 9364TIP3   OH249582   5.630   3.906   0.577  0.6058  0.4658 -0.2655
 9364TIP3    H149583   5.719   3.940   0.591  0.6563  0.2374 -0.0137
 9364TIP3    H249584   5.586   3.923   0.660  0.4968  0.3268 -0.2961
 9365TIP3   OH249585   2.121   2.794  11.257 -0.0073 -0.0733 -0.1295
 9365TIP3    H149586   2.184   2.758  11.320 -0.6321 -0.2478  0.4132
 9365TIP3    H249587   2.049   2.731  11.257  0.8171 -1.1087 -2.5062
 9366TIP3   OH249588   5.682   3.638  13.546 -0.7335 -0.4095  0.6549
 9366TIP3    H149589   5.607   3.672  13.595 -1.4282 -2.4304  1.0883
 9366TIP3    H249590   5.756   3.644  13.607 -0.8607  0.2400  0.7444
 9367TIP3   OH249591   6.758   0.391  16.333 -0.2864  0.2771 -0.1811
 9367TIP3    H149592   6.800   0.466  16.292 -0.0464 -0.5766 -1.5828
 9367TIP3    H249593   6.786   0.394  16.424  1.6511  0.5662 -0.7384
 9368TIP3   OH249594   3.742   0.283  14.465 -0.2466  0.0295 -0.1302
 9368TIP3    H149595   3.665   0.227  14.467 -0.7104  0.6266 -0.9016
 9368TIP3    H249596   3.776   0.280  14.555 -0.1660 -1.5839 -0.1730
 9369TIP3   OH249597   0.429   6.080   4.013  0.0951 -0.0940  0.1428
 9369TIP3    H149598   0.362   6.040   4.068  1.5051 -0.4066  1.7307
 9369TIP3    H249599   0.416   6.041   3.927 -0.0853 -2.2453  1.0685
 9370TIP3   OH249600   1.092   1.074  15.875  0.0909 -0.0215 -0.1547
 9370TIP3    H149601   1.096   1.097  15.783  1.6078 -0.4042 -0.2132
 9370TIP3    H249602   1.144   1.142  15.919  0.9895 -0.8783  0.1652
 9371TIP3   OH249603   5.005   1.679   3.924 -0.3484  0.0634 -0.4837
 9371TIP3    H149604   4.962   1.743   3.980 -1.3979 -0.5766 -0.5227
 9371TIP3    H249605   5.091   1.665   3.963  0.2999  2.2123 -1.0318
 9372TIP3   OH249606   2.299   0.020   5.028 -0.0576  0.3663  0.1719
 9372TIP3    H149607   2.353   0.087   5.071  0.8410  0.3272 -0.8762
 9372TIP3    H249608   2.362  -0.041   4.990 -0.8678 -1.0527  1.0354
 9373TIP3   OH249609   2.814   3.118  15.584 -0.1920 -0.0167  0.2379
 9373TIP3    H149610   2.849   3.194  15.537 -0.8387  0.9485  1.2685
 9373TIP3    H249611   2.766   3.069  15.518  0.5520  0.2549 -0.5282
 9374TIP3   OH249612   1.415   4.601  12.658 -0.3308 -0.2637  0.1201
 9374TIP3    H149613   1.337   4.627  12.707 -0.0706  1.5204 -0.3450
 9374TIP3    H249614   1.486   4.607  12.721 -0.3172 -0.1438  0.0938
 9375TIP3   OH249615   4.105   1.923   2.173 -0.5051  0.5512  0.1349
 9375TIP3    H149616   4.094   1.921   2.268  0.4710  2.0497  0.3116
 9375TIP3    H249617   4.063   2.005   2.146  1.4349  1.4186 -0.3739
 9376TIP3   OH249618   3.955   0.371  13.115  0.3047 -0.0666  0.1406
 9376TIP3    H149619   3.929   0.284  13.147 -0.4431  0.6394  1.5537
 9376TIP3    H249620   3.903   0.432  13.167  1.8212  1.2739  0.1761
 9377TIP3   OH249621   3.263   2.770   5.014  0.4057 -0.8027  0.5297
 9377TIP3    H149622   3.256   2.684   5.056 -1.5140  0.2425  2.5657
 9377TIP3    H249623   3.217   2.829   5.073  2.0788  1.7514 -0.5717
 9378TIP3   OH249624   1.639   5.084  16.928 -0.2491  0.2164  0.5581
 9378TIP3    H149625   1.612   5.073  16.837 -0.9904  2.5443  0.4369
 9378TIP3    H249626   1.723   5.038  16.934 -0.7452 -0.9502 -0.9806
 9379TIP3   OH249627   5.775   6.618   4.680  0.4365  0.0028 -0.2384
 9379TIP3    H149628   5.757   6.660   4.596 -2.5845  0.6461  0.6161
 9379TIP3    H249629   5.748   6.527   4.668  1.2376 -0.2406 -0.2953
 9380TIP3   OH249630   0.845   6.713   5.081  0.1480 -0.3886  0.1979
 9380TIP3    H149631   0.796   6.632   5.093 -0.8110  0.3567  1.5003
 9380TIP3    H249632   0.807   6.752   5.002 -2.1378  0.6484  1.7016
 9381TIP3   OH249633   3.357   2.645  12.353  0.0635  0.0694  0.2678
 9381TIP3    H149634   3.293   2.667  12.421  0.2160 -0.7813  0.6978
 9381TIP3    H249635   3.406   2.726  12.339 -0.8408  0.6164  0.2218
 9382TIP3   OH249636   5.341   2.093   2.199  0.6011  0.3126 -0.0242
 9382TIP3    H149637   5.315   2.185   2.197 -0.7312 -0.0168  1.0233
 9382TIP3    H249638   5.371   2.078   2.289 -0.1185 -0.5035  0.0991
 9383TIP3   OH249639   5.171   1.426  12.320  0.4492 -0.3136  0.0428
 9383TIP3    H149640   5.250   1.403  12.271  0.4612 -0.2740  0.0430
 9383TIP3    H249641   5.202   1.483  12.390  0.4696 -0.5802  0.2543
 9384TIP3   OH249642   4.496   5.684   0.413  0.2674  0.0573 -0.1744
 9384TIP3    H149643   4.407   5.664   0.444  0.5005  0.4321  0.7822
 9384TIP3    H249644   4.553   5.635   0.472  0.6984 -0.5371 -1.0642
 9385TIP3   OH249645   0.909   2.695   1.477  0.1333  0.3525  0.4392
 9385TIP3    H149646   0.947   2.776   1.444 -0.6064  0.2498 -0.7322
 9385TIP3    H249647   0.951   2.626   1.425  0.1775  0.0507  0.8736
 9386TIP3   OH249648   1.686   1.621   5.206 -0.5951  0.0935  0.2541
 9386TIP3    H149649   1.655   1.709   5.227 -0.8804  0.4294 -1.4373
 9386TIP3    H249650   1.740   1.633   5.128  1.8972 -0.8295  1.6970
 9387TIP3   OH249651   4.084   2.463  13.556  0.5614  0.0172 -0.5210
 9387TIP3    H149652   4.179   2.455  13.544  0.2237 -1.0532 -2.9892
 9387TIP3    H249653   4.050   2.474  13.468 -1.7936 -1.7676  0.0813
 9388TIP3   OH249654   1.241   6.271  16.176  0.3509  0.2436 -0.5797
 9388TIP3    H149655   1.287   6.187  16.178  0.8434  0.5066 -0.6563
 9388TIP3    H249656   1.186   6.267  16.098 -0.7789 -0.5968  0.2205
 9389TIP3   OH249657   1.886   4.386   4.656  0.0870 -0.0259 -0.1966
 9389TIP3    H149658   1.810   4.406   4.711  0.5227 -1.5363  1.0200
 9389TIP3    H249659   1.879   4.447   4.582 -1.5374  0.7936  0.5869
 9390TIP3   OH249660   3.985   3.138   4.620 -0.1267  0.1131 -0.6619
 9390TIP3    H149661   3.958   3.070   4.558 -1.0421  0.2257 -0.3904
 9390TIP3    H249662   3.915   3.141   4.685 -0.7232  2.1532 -1.3300
 9391TIP3   OH249663   2.005   0.317  15.540 -0.1716 -0.2597  0.1746
 9391TIP3    H149664   1.950   0.363  15.476  0.1681 -0.1734 -0.0613
 9391TIP3    H249665   2.044   0.387  15.592 -0.5838 -0.3384  0.5916
 9392TIP3   OH249666   1.678   6.698  15.203  0.2339  0.1516  0.2349
 9392TIP3    H149667   1.725   6.729  15.281  0.1322  0.5142  0.1559
 9392TIP3    H249668   1.718   6.614  15.182  1.8116  1.0826 -0.6688
 9393TIP3   OH249669   6.752   6.432   3.904  0.3803  0.6584 -0.1285
 9393TIP3    H149670   6.703   6.433   3.822 -0.2912  1.1299  0.2679
 9393TIP3    H249671   6.838   6.398   3.880 -1.4491 -5.0737 -0.0476
 9394TIP3   OH249672   3.626   5.063   5.611  0.4099  0.1027  0.2939
 9394TIP3    H149673   3.626   4.989   5.551 -0.5963 -0.0811  0.5004
 9394TIP3    H249674   3.675   5.132   5.566 -0.7889  0.1578 -0.9776
 9395TIP3   OH249675   3.388   1.389   6.036 -0.7317  0.0204 -0.1117
 9395TIP3    H149676   3.479   1.363   6.053 -0.9386 -0.5203  0.2054
 9395TIP3    H249677   3.395   1.457   5.968 -0.0921  0.0006 -0.0759
 9396TIP3   OH249678   2.937   0.798   4.177  0.0787  0.2629 -0.0660
 9396TIP3    H149679   2.984   0.863   4.228 -0.7312  2.2213 -1.6637
 9396TIP3    H249680   2.850   0.794   4.216 -0.0178  0.4761 -0.2630
 9397TIP3   OH249681   3.564   2.266   1.308  0.6154  0.0981  0.1231
 9397TIP3    H149682   3.476   2.261   1.344  0.0896  2.2744 -0.6987
 9397TIP3    H249683   3.619   2.293   1.381  0.1781  0.9885  0.1382
 9398TIP3   OH249684   1.102   1.155   0.514  0.4071 -0.1553 -0.5451
 9398TIP3    H149685   1.116   1.241   0.473 -0.3157  0.3595  0.2521
 9398TIP3    H249686   1.082   1.097   0.442 -0.9635  0.7607 -0.9395
 9399TIP3   OH249687   1.395   2.901  15.116  0.5787 -0.1595 -0.1909
 9399TIP3    H149688   1.388   2.825  15.174  3.4318  0.6699  1.3971
 9399TIP3    H249689   1.444   2.965  15.166 -1.6462  2.8087 -1.5036
 9400TIP3   OH249690   6.657   2.474   4.252 -0.9200  0.8244 -0.4917
 9400TIP3    H149691   6.712   2.428   4.189 -0.3122  0.6373  0.1624
 9400TIP3    H249692   6.670   2.567   4.232 -1.6785  0.7436 -1.4198
 9401TIP3   OH249693   6.005   3.265  16.914 -0.6139 -0.3303  0.7151
 9401TIP3    H149694   6.086   3.260  16.862 -0.0576  0.9262  1.4086
 9401TIP3    H249695   5.935   3.254  16.850  0.0438  1.5506 -0.4289
 9402TIP3   OH249696   4.381   2.070   2.890 -0.1473 -0.0956 -0.3504
 9402TIP3    H149697   4.307   2.120   2.922  1.4475  3.3528 -1.5930
 9402TIP3    H249698   4.428   2.043   2.969 -0.4673  1.3655  0.3591
 9403TIP3   OH249699   1.826   5.394  12.270  0.8060  0.1878  0.2045
 9403TIP3    H149700   1.745   5.344  12.283  0.4102  0.5419 -0.7554
 9403TIP3    H249701   1.874   5.344  12.204  1.1885  0.1851  0.4870
 9404TIP3   OH249702   2.202   1.496  14.976  0.0056 -0.7149  0.0667
 9404TIP3    H149703   2.226   1.573  15.028  1.0656 -0.7741 -0.2972
 9404TIP3    H249704   2.107   1.493  14.978 -0.0583  0.7782 -0.1602
 9405TIP3   OH249705   0.508   1.320  14.040 -0.3123 -0.1439 -0.2475
 9405TIP3    H149706   0.599   1.342  14.019 -0.4817 -0.3977 -1.3087
 9405TIP3    H249707   0.462   1.404  14.040 -0.4857 -0.2026 -1.8942
 9406TIP3   OH249708   4.847   1.911   4.588 -0.2194  0.2039  0.7529
 9406TIP3    H149709   4.923   1.963   4.613 -0.1376  1.1681 -1.2994
 9406TIP3    H249710   4.858   1.828   4.635  1.0445  1.0352  2.0114
 9407TIP3   OH249711   1.196   2.571   0.975 -0.0531 -0.1134 -0.1255
 9407TIP3    H149712   1.171   2.562   0.883  1.5398 -1.1012 -0.4994
 9407TIP3    H249713   1.137   2.513   1.022 -1.5260  1.1317 -0.3789
 9408TIP3   OH249714   6.619   3.914   6.116 -0.1717  0.1368 -0.6868
 9408TIP3    H149715   6.569   3.982   6.161  0.3371  1.1879 -1.6470
 9408TIP3    H249716   6.570   3.833   6.132 -0.9570  0.7650  0.2235
 9409TIP3   OH249717   1.165   1.996  17.381 -0.3738 -1.0218 -0.0020
 9409TIP3    H149718   1.139   1.910  17.349 -0.3312 -1.8089  1.9251
 9409TIP3    H249719   1.219   1.978  17.458  0.2579  0.7185  0.0105
 9410TIP3   OH249720   0.936   4.169   0.519  0.0375 -0.5134  0.7469
 9410TIP3    H149721   0.938   4.171   0.423 -0.2247 -1.4526  0.7026
 9410TIP3    H249722   0.915   4.258   0.545  0.1139 -0.2489 -0.0765
 9411TIP3   OH249723   2.213   6.466  14.378 -0.4372 -0.1022  0.1733
 9411TIP3    H149724   2.246   6.384  14.343  0.7014  0.2427  0.4011
 9411TIP3    H249725   2.207   6.525  14.302  2.2550  0.7193  0.5132
 9412TIP3   OH249726   1.703   2.438   3.276 -0.1586 -0.1987 -0.0126
 9412TIP3    H149727   1.678   2.443   3.368  1.1392  0.2590  0.3308
 9412TIP3    H249728   1.660   2.514   3.236  1.3460  1.1008  0.7503
 9413TIP3   OH249729   4.344   5.102  11.445 -0.2185  0.7664  0.2412
 9413TIP3    H149730   4.345   5.016  11.487  0.5521  0.6236 -0.0502
 9413TIP3    H249731   4.252   5.118  11.426 -0.2776 -0.4562 -0.6242
 9414TIP3   OH249732   3.867   0.029  17.004  0.0507 -0.5553  0.1982
 9414TIP3    H149733   3.960   0.039  17.022  0.1196 -2.0077  0.8410
 9414TIP3    H249734   3.836  -0.029  17.073 -1.6859  1.1511  0.9409
 9415TIP3   OH249735   0.843   6.684   2.250 -0.1583  0.3247 -0.2295
 9415TIP3    H149736   0.749   6.671   2.236 -1.1364  3.8449  1.8617
 9415TIP3    H249737   0.865   6.628   2.325 -0.5715 -0.3777 -0.6188
 9416TIP3   OH249738   3.160   5.529  16.513 -0.0010 -0.3291  0.2531
 9416TIP3    H149739   3.156   5.600  16.577 -1.1026 -2.1093  2.2683
 9416TIP3    H249740   3.251   5.501  16.513 -0.0743 -0.5910  1.3978
 9417TIP3   OH249741   0.531   3.051  14.124 -0.4384  0.3129 -0.8302
 9417TIP3    H149742   0.591   3.114  14.162 -1.4102  0.3278  0.7471
 9417TIP3    H249743   0.551   2.969  14.168 -2.5702  0.6455  0.9317
 9418TIP3   OH249744   1.704   0.148   0.595 -0.6399 -0.3114 -0.0441
 9418TIP3    H149745   1.664   0.226   0.634 -1.8192 -0.2905 -1.2099
 9418TIP3    H249746   1.793   0.175   0.572 -1.2763  0.9603 -1.1367
 9419TIP3   OH249747   3.305   3.241  11.860 -0.8097 -0.0366 -0.3572
 9419TIP3    H149748   3.312   3.315  11.800  2.6458  0.5226  0.5340
 9419TIP3    H249749   3.355   3.171  11.818 -0.4333 -0.4359  0.7119
 9420TIP3   OH249750   0.583   5.137  13.200  0.2092  0.2865 -0.1343
 9420TIP3    H149751   0.654   5.191  13.236 -0.5292  0.0847  1.7237
 9420TIP3    H249752   0.628   5.062  13.161  1.0943  1.0080 -0.5714
 9421TIP3   OH249753   2.477   5.440   4.399  0.7921 -0.4495 -0.1885
 9421TIP3    H149754   2.485   5.419   4.306  1.8501 -0.6062 -0.0743
 9421TIP3    H249755   2.401   5.389   4.428 -0.1296  0.3398 -1.1593
 9422TIP3   OH249756   5.390   2.883   2.969 -0.1314  0.0760  0.1652
 9422TIP3    H149757   5.429   2.800   2.997  1.4457  1.2993  1.7839
 9422TIP3    H249758   5.323   2.902   3.034 -0.7592 -0.0841 -0.4180
 9423TIP3   OH249759   6.640   3.299  15.636 -0.3673  0.1596  0.0495
 9423TIP3    H149760   6.717   3.341  15.598 -0.2349 -1.1215 -1.1585
 9423TIP3    H249761   6.654   3.305  15.730  0.6212  0.9936 -0.1278
 9424TIP3   OH249762   1.082   4.889   6.141 -0.0626  0.0592 -0.2942
 9424TIP3    H149763   1.069   4.794   6.139  1.9423 -0.2498 -0.6985
 9424TIP3    H249764   1.170   4.902   6.106 -0.5436  2.1381 -0.8846
 9425TIP3   OH249765   4.792   5.482   0.704  0.1558 -0.1475  0.3006
 9425TIP3    H149766   4.713   5.464   0.653 -0.3336  0.2610  0.8964
 9425TIP3    H249767   4.860   5.429   0.662 -0.4799 -0.6802 -0.0906
 9426TIP3   OH249768   6.702   0.411   4.488 -0.1228 -0.0669  0.7029
 9426TIP3    H149769   6.617   0.366   4.481  0.1442 -0.5820  0.7007
 9426TIP3    H249770   6.765   0.340   4.504  0.3600  0.2720  0.3311
 9427TIP3   OH249771   2.118   4.401  15.494 -0.6396 -0.0584  0.7247
 9427TIP3    H149772   2.199   4.372  15.452 -0.3126  0.9466  0.6325
 9427TIP3    H249773   2.050   4.344  15.459 -0.5435  1.3080 -1.8814
 9428TIP3   OH249774   0.808   0.276  12.333 -0.2518 -0.2593 -0.3970
 9428TIP3    H149775   0.725   0.279  12.285 -0.1738 -2.7667 -0.8333
 9428TIP3    H249776   0.850   0.360  12.315 -1.2930 -0.1809 -2.7689
 9429TIP3   OH249777   4.555   1.936   1.499  0.4651  0.6588  0.3878
 9429TIP3    H149778   4.538   1.859   1.553 -0.4416  1.7253  1.6944
 9429TIP3    H249779   4.650   1.944   1.498  0.5567 -0.2920  0.4938
 9430TIP3   OH249780   1.381   0.036   3.349  0.2162  0.0524  0.1350
 9430TIP3    H149781   1.336  -0.015   3.417 -0.8198 -2.8863 -2.5110
 9430TIP3    H249782   1.310   0.073   3.296  0.9060 -0.6747 -1.3573
 9431TIP3   OH249783   3.420   0.745   1.769 -0.2092  0.0830  0.2465
 9431TIP3    H149784   3.327   0.724   1.772  0.0127 -1.9457 -2.5482
 9431TIP3    H249785   3.424   0.828   1.722 -0.6124 -0.3026 -0.4976
 9432TIP3   OH249786   3.543   2.242   4.749 -0.0422 -0.3897  0.2097
 9432TIP3    H149787   3.495   2.213   4.671 -0.2725 -0.8865  0.5396
 9432TIP3    H249788   3.595   2.316   4.717 -0.3184 -0.4326 -0.3641
 9433TIP3   OH249789   5.569   4.158  12.485  0.4655 -0.1994  0.3236
 9433TIP3    H149790   5.491   4.128  12.531  0.8119  1.1441  1.8986
 9433TIP3    H249791   5.614   4.077  12.459  0.0564 -1.0506  2.0813
 9434TIP3   OH249792   4.162   6.719  14.182 -0.2678  0.2217 -0.6882
 9434TIP3    H149793   4.067   6.719  14.194 -0.5299 -1.6969 -2.2440
 9434TIP3    H249794   4.195   6.664  14.252 -0.1529  1.6676  0.4444
 9435TIP3   OH249795   1.076   3.504  14.546 -0.5804 -0.0745  0.8433
 9435TIP3    H149796   1.045   3.462  14.466  0.6637  0.7700 -0.1033
 9435TIP3    H249797   0.996   3.539  14.587 -0.9620  2.1254 -1.5763
 9436TIP3   OH249798   4.374   4.513   4.337  0.4696  0.2146 -0.3463
 9436TIP3    H149799   4.314   4.489   4.266  0.8816  0.0461 -0.6379
 9436TIP3    H249800   4.317   4.552   4.403  0.0767  0.3527 -0.7567
 9437TIP3   OH249801   6.467   6.392  16.474  0.1873 -0.5438 -0.1347
 9437TIP3    H149802   6.456   6.486  16.458  1.4268 -0.2018  0.8618
 9437TIP3    H249803   6.549   6.370  16.429 -0.8793 -1.5112 -1.6802
 9438TIP3   OH249804   3.101   0.475   0.621 -0.3776  0.1705 -0.4446
 9438TIP3    H149805   3.150   0.548   0.659 -0.8533  0.5413 -0.5401
 9438TIP3    H249806   3.120   0.479   0.528  0.0137 -0.1507 -0.3830
 9439TIP3   OH249807   6.151   1.977  15.614 -0.0924 -0.5543  0.1828
 9439TIP3    H149808   6.114   2.049  15.563 -0.3719  0.0267  1.1791
 9439TIP3    H249809   6.237   1.963  15.576  0.5801  1.3154  0.9020
 9440TIP3   OH249810   2.828   0.170  11.544 -0.0896  0.1056  0.0728
 9440TIP3    H149811   2.735   0.176  11.521  0.0353  0.2587 -0.4017
 9440TIP3    H249812   2.832   0.100  11.609 -0.4812 -0.1944 -0.2200
 9441TIP3   OH249813   6.580   0.519  14.447 -0.2078  0.2023  0.0391
 9441TIP3    H149814   6.500   0.499  14.496  0.4978  0.5479  1.3833
 9441TIP3    H249815   6.651   0.487  14.503  0.6325  0.3368 -0.9127
 9442TIP3   OH249816   4.405   2.062  16.439 -0.2666 -0.0409  0.3527
 9442TIP3    H149817   4.339   2.131  16.436  0.1245  0.4173  1.5654
 9442TIP3    H249818   4.382   2.011  16.517  0.0557 -0.6665  0.0510
 9443TIP3   OH249819   4.211   5.556  15.601  0.4309 -0.2712  0.4782
 9443TIP3    H149820   4.223   5.640  15.645 -0.5493 -0.8230  1.8610
 9443TIP3    H249821   4.152   5.507  15.658 -0.6766 -1.1339 -1.3170
 9444TIP3   OH249822   2.919   4.745   6.070  0.2164 -0.0754  0.3574
 9444TIP3    H149823   2.938   4.796   6.149  2.0440 -1.0927  0.6235
 9444TIP3    H249824   2.970   4.789   6.001 -0.5237  0.1715 -0.0435
 9445TIP3   OH249825   5.310   2.160   0.896 -0.2383 -0.0052  0.0607
 9445TIP3    H149826   5.303   2.068   0.921  1.7488 -0.6385 -1.3726
 9445TIP3    H249827   5.384   2.162   0.834 -1.7007  2.1715 -1.8041
 9446TIP3   OH249828   2.473   6.005  17.488  0.2634 -0.1496 -0.6787
 9446TIP3    H149829   2.505   6.025  17.576 -0.2983  1.9673 -0.9035
 9446TIP3    H249830   2.420   5.927  17.499 -0.9822  0.8704  1.1796
 9447TIP3   OH249831   5.547   1.434   3.625  0.5303 -0.7453 -0.0019
 9447TIP3    H149832   5.562   1.503   3.689 -0.1121 -0.6891  0.0903
 9447TIP3    H249833   5.559   1.477   3.540 -1.2835 -0.1430  0.0037
 9448TIP3   OH249834   4.524   2.956  11.859 -0.1324  0.1933  0.1266
 9448TIP3    H149835   4.458   3.025  11.862 -0.4271 -0.0450 -0.6728
 9448TIP3    H249836   4.606   3.001  11.883 -0.5382  0.5271  0.9390
 9449TIP3   OH249837   6.232   2.870   4.888 -0.1441 -0.3544  0.0503
 9449TIP3    H149838   6.290   2.794   4.883 -0.6514 -0.7218 -0.4456
 9449TIP3    H249839   6.164   2.844   4.950 -0.4760 -0.4259 -0.3363
 9450TIP3   OH249840   0.046   4.006   0.848 -0.2079 -0.2186 -0.1311
 9450TIP3    H149841   0.017   4.051   0.927  1.3777  1.5988 -0.4947
 9450TIP3    H249842   0.073   3.920   0.878 -2.0697 -0.5148  0.8295
 9451TIP3   OH249843   2.003   6.392  13.095  0.5637  0.4562 -0.2606
 9451TIP3    H149844   1.923   6.446  13.097  0.8834  0.9539 -0.6387
 9451TIP3    H249845   1.990   6.328  13.165 -0.5717 -0.0630 -0.9255
 9452TIP3   OH249846   5.341   3.044  17.185  0.1179 -0.4988 -0.1038
 9452TIP3    H149847   5.273   2.982  17.209 -1.5781  1.7606  1.4285
 9452TIP3    H249848   5.298   3.130  17.189  2.5267  0.8745 -1.2194
 9453TIP3   OH249849   6.731   2.698  15.902 -0.1361  0.4474 -0.0930
 9453TIP3    H149850   6.646   2.729  15.870 -0.6395 -0.7537 -0.0094
 9453TIP3    H249851   6.790   2.708  15.827 -0.9026 -0.7458 -0.8951
 9454TIP3   OH249852   6.752   3.375   6.421  0.4300 -0.0937 -0.6528
 9454TIP3    H149853   6.766   3.294   6.470 -0.0454  0.9364  1.2597
 9454TIP3    H249854   6.794   3.359   6.336 -0.6676 -2.7514 -0.7820
 9455TIP3   OH249855   4.346   3.244  14.933 -0.2749  0.3079  0.0001
 9455TIP3    H149856   4.317   3.174  14.874 -1.6006 -0.2658  1.2752
 9455TIP3    H249857   4.419   3.206  14.982 -0.2300  0.2188 -0.1357
 9456TIP3   OH249858   6.523   3.803   0.076  0.5586 -1.1361 -0.3584
 9456TIP3    H149859   6.567   3.888   0.083  1.6906 -1.7100 -0.3340
 9456TIP3    H249860   6.487   3.788   0.164  0.3988 -0.7020 -0.3495
 9457TIP3   OH249861   1.974   5.603   2.768 -0.2704  0.3892  0.5908
 9457TIP3    H149862   2.069   5.614   2.761 -0.2418 -0.5664 -1.2984
 9457TIP3    H249863   1.959   5.577   2.858  1.5305 -1.5033  0.4255
 9458TIP3   OH249864   3.931   0.391  13.522 -0.5580 -0.2625  0.1482
 9458TIP3    H149865   4.019   0.429  13.529 -0.8622  0.6073 -0.4678
 9458TIP3    H249866   3.910   0.362  13.611  0.4115 -0.6375  0.2666
 9459TIP3   OH249867   2.815   4.839  15.292 -0.6892  0.1859 -0.1875
 9459TIP3    H149868   2.779   4.762  15.336 -1.3013  0.0319 -0.9435
 9459TIP3    H249869   2.777   4.837  15.204 -1.1539  1.6618 -0.0425
 9460TIP3   OH249870   0.300   5.849   4.919 -0.0737  0.3657  0.7207
 9460TIP3    H149871   0.284   5.832   5.012 -0.7211  0.9321  0.7239
 9460TIP3    H249872   0.257   5.777   4.873 -1.6815  1.2378  0.7832
 9461TIP3   OH249873   6.396   5.269  14.348  0.0312  0.0194  0.1872
 9461TIP3    H149874   6.419   5.241  14.437  0.8488 -1.6037 -0.4911
 9461TIP3    H249875   6.306   5.301  14.355  0.1564  0.0980  1.6287
 9462TIP3   OH249876   0.621   0.397   2.034  0.0798  0.4055  0.1761
 9462TIP3    H149877   0.627   0.389   2.129 -0.3835  0.0031  0.1746
 9462TIP3    H249878   0.692   0.457   2.011 -0.7138  1.6565  0.9143
 9463TIP3   OH249879   2.519   4.048   3.686  0.2625  0.1728 -0.3538
 9463TIP3    H149880   2.495   4.002   3.766 -0.7170  0.3043 -0.5527
 9463TIP3    H249881   2.489   3.990   3.616 -3.0947  1.9845 -0.6526
 9464TIP3   OH249882   0.422   3.440  13.703  0.4694  0.1119  0.4491
 9464TIP3    H149883   0.405   3.347  13.684  0.0162  0.4331 -0.8577
 9464TIP3    H249884   0.430   3.480  13.616  1.7175  1.1176  1.0056
 9465TIP3   OH249885   1.618   0.104  13.383 -0.3939  0.1402  0.6747
 9465TIP3    H149886   1.690   0.166  13.398  0.9373 -1.3905  0.9389
 9465TIP3    H249887   1.603   0.107  13.289 -1.8175  2.3626  0.9039
 9466TIP3   OH249888   1.479   1.183  10.467  0.2721  0.1969 -0.4996
 9466TIP3    H149889   1.554   1.124  10.474  0.2391 -0.0543 -1.9007
 9466TIP3    H249890   1.414   1.134  10.416 -1.7503 -0.4227  2.4225
 9467TIP3   OH249891   0.482   0.674   0.419  0.0610 -0.1149  0.3339
 9467TIP3    H149892   0.438   0.637   0.495  0.0404  1.2124  1.0038
 9467TIP3    H249893   0.443   0.761   0.409  0.6793  0.0681 -0.6608
 9468TIP3   OH249894   4.535   5.964  11.588  0.5414 -0.4256  0.0048
 9468TIP3    H149895   4.459   6.017  11.564 -0.6216 -1.5237  1.0825
 9468TIP3    H249896   4.565   5.925  11.505 -0.8455 -0.9338 -0.2900
 9469TIP3   OH249897   0.479   6.622   0.748 -0.6646  0.0054 -0.0915
 9469TIP3    H149898   0.500   6.532   0.721  1.2863  0.5596 -0.5864
 9469TIP3    H249899   0.550   6.675   0.711 -0.9499  1.5560  1.4653
 9470TIP3   OH249900   1.903   4.239   2.769  0.5856 -0.0819  0.0054
 9470TIP3    H149901   1.875   4.169   2.710 -0.1768  1.0575 -1.0371
 9470TIP3    H249902   1.902   4.318   2.715  3.0467  0.5183  0.6916
 9471TIP3   OH249903   5.176   1.598   4.833 -0.0575  0.5263  0.1220
 9471TIP3    H149904   5.185   1.572   4.925 -3.7197 -0.3409  0.3711
 9471TIP3    H249905   5.214   1.525   4.784 -0.8780 -0.4804  0.9403
 9472TIP3   OH249906   0.553   0.907  14.926 -0.0284  0.1605 -0.1130
 9472TIP3    H149907   0.532   0.842  14.859  0.5141  0.0728 -0.2025
 9472TIP3    H249908   0.470   0.952  14.942 -0.5521 -0.9282  0.3621
 9473TIP3   OH249909   5.381   4.180   2.937 -0.0816 -0.0327  0.4631
 9473TIP3    H149910   5.390   4.124   2.860 -0.6439 -0.4016  0.6621
 9473TIP3    H249911   5.424   4.132   3.008  0.0390  0.1020  0.4828
 9474TIP3   OH249912   5.575   4.126  15.145 -0.3703 -0.4860  0.4903
 9474TIP3    H149913   5.507   4.118  15.078 -0.5049 -0.6532  0.6454
 9474TIP3    H249914   5.554   4.208  15.190  0.3778  0.2196 -0.3995
 9475TIP3   OH249915   4.795   4.642  15.764  0.7939 -0.0371 -0.1825
 9475TIP3    H149916   4.816   4.665  15.674 -1.3481  0.6095 -0.5811
 9475TIP3    H249917   4.789   4.727  15.809 -0.0658 -0.2256  0.0770
 9476TIP3   OH249918   2.243   0.022   2.654 -0.0544 -0.1705 -0.4501
 9476TIP3    H149919   2.312   0.027   2.588  0.2439  0.0207 -0.1226
 9476TIP3    H249920   2.171  -0.025   2.609  0.0063  0.2728 -1.0253
 9477TIP3   OH249921   1.227   1.183   2.639  0.3859 -0.3425 -0.1458
 9477TIP3    H149922   1.236   1.182   2.735  0.3322 -1.2069 -0.1418
 9477TIP3    H249923   1.317   1.190   2.607  0.4805 -0.9817 -0.0352
 9478TIP3   OH249924   4.205   6.353  16.222 -0.3714 -0.4304  0.6197
 9478TIP3    H149925   4.130   6.410  16.209  0.6819  0.7369 -0.6435
 9478TIP3    H249926   4.244   6.381  16.305  0.1323  0.7120  0.0110
 9479TIP3   OH249927   1.612   1.574  16.036  0.5590  0.1586  0.0175
 9479TIP3    H149928   1.699   1.609  16.019 -0.0912  2.1136  0.4469
 9479TIP3    H249929   1.553   1.643  16.005 -0.8358 -1.1155 -0.2445
 9480TIP3   OH249930   3.278   3.161   0.332 -0.1480 -0.1677  0.0075
 9480TIP3    H149931   3.225   3.130   0.406  0.8710 -0.0003  0.8372
 9480TIP3    H249932   3.248   3.251   0.318 -1.0668 -0.5360 -0.4775
 9481TIP3   OH249933   6.127   1.073  14.263 -0.2209 -0.3050 -0.2179
 9481TIP3    H149934   6.165   0.997  14.308 -1.3965 -0.6489  0.2197
 9481TIP3    H249935   6.085   1.037  14.185 -1.6784 -0.2610  0.5259
 9482TIP3   OH249936   0.464   2.948  16.826 -0.2312 -0.3311  0.3100
 9482TIP3    H149937   0.445   2.943  16.733 -0.0198 -2.2597  0.3281
 9482TIP3    H249938   0.557   2.971  16.830 -0.7461  2.0362  0.1290
 9483TIP3   OH249939   6.486   4.257  11.677  0.5416  0.3308 -0.5015
 9483TIP3    H149940   6.409   4.241  11.623 -0.7201  0.8777  1.0286
 9483TIP3    H249941   6.547   4.187  11.655 -1.3588 -1.5473 -0.0636
 9484TIP3   OH249942   2.823   1.108   5.414 -0.3755  0.5191 -0.3035
 9484TIP3    H149943   2.864   1.136   5.332 -1.5456 -0.4586 -1.2546
 9484TIP3    H249944   2.749   1.054   5.386  1.5244 -3.2926  1.3359
 9485TIP3   OH249945   1.499   2.826  14.401  0.3844  0.7195 -0.0630
 9485TIP3    H149946   1.404   2.833  14.402  0.4464  2.4138 -1.5050
 9485TIP3    H249947   1.519   2.759  14.466 -1.6590  1.9345  1.9732
 9486TIP3   OH249948   3.108   0.754   3.562 -0.6494 -0.1848  0.0177
 9486TIP3    H149949   3.168   0.804   3.507  2.0974 -1.8134  1.3144
 9486TIP3    H249950   3.102   0.805   3.643  2.0704 -1.7213  1.3012
 9487TIP3   OH249951   3.132   6.040   6.579  0.4860 -0.3147 -0.3619
 9487TIP3    H149952   3.161   5.951   6.601  1.7703 -0.3958 -2.1448
 9487TIP3    H249953   3.202   6.096   6.610  0.8980 -0.1713 -1.5383
 9488TIP3   OH249954   6.379   3.604   5.290  0.2208 -0.1494 -0.6556
 9488TIP3    H149955   6.406   3.551   5.215  2.0807  0.5873 -0.5552
 9488TIP3    H249956   6.404   3.553   5.366  0.4073  0.0989 -0.5483
 9489TIP3   OH249957   6.120   6.266   1.194 -0.3404  0.6666 -0.1435
 9489TIP3    H149958   6.078   6.207   1.256  0.8556 -0.3986 -0.3000
 9489TIP3    H249959   6.050   6.324   1.163 -1.3074  0.0406  0.8423
 9490TIP3   OH249960   0.030   1.841   1.742 -0.1089 -0.8636 -0.4705
 9490TIP3    H149961  -0.040   1.904   1.726  0.3518  0.2472  1.5349
 9490TIP3    H249962   0.104   1.873   1.690 -0.5020 -0.9490 -1.0860
 9491TIP3   OH249963   3.859   5.701   2.453 -0.5612 -0.0153 -0.2181
 9491TIP3    H149964   3.857   5.753   2.372  0.5978  0.6851  0.1671
 9491TIP3    H249965   3.944   5.656   2.450 -1.0665 -1.0096  0.0055
 9492TIP3   OH249966   5.427   4.164   4.744 -0.1632 -0.3849 -0.4770
 9492TIP3    H149967   5.351   4.205   4.783 -0.8336 -1.2224 -0.8646
 9492TIP3    H249968   5.426   4.074   4.777 -0.9567 -1.2276 -2.6259
 9493TIP3   OH249969   4.257   2.773   2.260 -0.1214 -0.2652 -0.1653
 9493TIP3    H149970   4.345   2.810   2.269  1.5100 -3.6906 -0.2445
 9493TIP3    H249971   4.237   2.781   2.167  0.8464 -0.7872 -0.4408
 9494TIP3   OH249972   3.707   4.728   5.634 -0.4162  0.8852  0.3124
 9494TIP3    H149973   3.660   4.663   5.687  0.3466 -0.2641 -0.3907
 9494TIP3    H249974   3.765   4.773   5.696  0.7475 -0.7018  0.4225
 9495TIP3   OH249975   6.072   4.720   1.448  0.3451 -0.3829 -0.1702
 9495TIP3    H149976   6.163   4.750   1.455 -0.2435  1.2881  0.7998
 9495TIP3    H249977   6.024   4.773   1.512 -1.1845 -1.8428 -0.0346
 9496TIP3   OH249978   2.898   5.209  11.809  0.2492  0.1766  0.1074
 9496TIP3    H149979   2.893   5.271  11.737 -1.1119 -0.2957 -0.2288
 9496TIP3    H249980   2.926   5.127  11.768 -2.1654 -0.5495 -0.2426
 9497TIP3   OH249981   3.257   0.026  16.645 -0.0534  0.0443 -0.3449
 9497TIP3    H149982   3.343   0.017  16.687  0.8817  0.0063 -2.1760
 9497TIP3    H249983   3.219   0.105  16.683  1.5800  1.0880 -0.8095
 9498TIP3   OH249984   6.140   2.547  16.589  0.3230  0.6047  0.7561
 9498TIP3    H149985   6.064   2.495  16.616 -0.7935  1.7491 -0.0891
 9498TIP3    H249986   6.196   2.550  16.667 -0.0129 -1.0772  1.0942
 9499TIP3   OH249987   4.544   1.384   6.091  0.2319  0.5389  0.5081
 9499TIP3    H149988   4.464   1.334   6.075  0.1142  0.8290  0.1880
 9499TIP3    H249989   4.602   1.321   6.134 -0.1858  0.3455  0.7993
 9500TIP3   OH249990   4.414   1.536  14.708 -0.2414  0.7480 -0.2242
 9500TIP3    H149991   4.409   1.613  14.766 -2.9820  1.7399 -1.5552
 9500TIP3    H249992   4.323   1.519  14.684  0.5415 -1.2956 -2.1000
 9501TIP3   OH249993   3.213   5.670  16.253 -0.4057 -0.0860 -0.2721
 9501TIP3    H149994   3.190   5.612  16.325  0.9659 -0.5603 -0.1823
 9501TIP3    H249995   3.197   5.758  16.286  1.0211 -0.2553  0.9359
 9502TIP3   OH249996   5.456   1.360  14.176 -0.0532 -0.4469 -0.1619
 9502TIP3    H149997   5.442   1.395  14.088 -0.1176  0.3045  0.1450
 9502TIP3    H249998   5.406   1.278  14.177  0.0724 -0.5400 -0.8706
 9503TIP3   OH249999   0.776   5.858   6.111 -0.0916  0.4689  0.5600
 9503TIP3    H150000   0.714   5.830   6.044  0.1711 -3.2399  1.6501
 9503TIP3    H250001   0.729   5.849   6.194  1.0817  0.1702  1.2239
 9504TIP3   OH250002   4.335   1.830   0.926  0.2034 -0.0127  0.4248
 9504TIP3    H150003   4.368   1.920   0.935 -0.5332  0.3043 -0.0040
 9504TIP3    H250004   4.395   1.789   0.864  0.1784  0.3735  0.1411
 9505TIP3   OH250005   1.739   5.138  15.765  0.0209  0.5542  0.5234
 9505TIP3    H150006   1.829   5.134  15.798 -0.2374  1.9717  1.5374
 9505TIP3    H250007   1.684   5.122  15.842 -0.6740 -2.6713 -0.4869
 9506TIP3   OH250008   5.551   3.478   5.761 -0.7078 -0.2463  0.2991
 9506TIP3    H150009   5.639   3.499   5.792 -0.4613  0.1978 -0.6855
 9506TIP3    H250010   5.545   3.383   5.769  0.7249 -0.5751 -1.8077
 9507TIP3   OH250011   1.220   0.184   4.652 -0.3324  0.0980 -0.0721
 9507TIP3    H150012   1.243   0.218   4.566  1.7051  1.2801  0.8602
 9507TIP3    H250013   1.278   0.109   4.665  0.3534  0.7482  0.7763
 9508TIP3   OH250014   6.538   4.940   3.023 -0.0663  0.1534 -0.2026
 9508TIP3    H150015   6.628   4.965   3.043  0.4160 -1.6153  0.0212
 9508TIP3    H250016   6.540   4.915   2.931 -0.1624 -0.5108 -0.0309
 9509TIP3   OH250017   4.788   3.574  12.275  0.3277 -0.0278  0.3713
 9509TIP3    H150018   4.771   3.659  12.315  0.9174 -0.0858  0.7567
 9509TIP3    H250019   4.881   3.558  12.292  0.0227 -1.1559  1.0773
 9510TIP3   OH250020   4.087   3.955   3.791  0.0749 -0.2923 -0.2785
 9510TIP3    H150021   4.168   3.915   3.822  0.7921  0.6390 -0.8957
 9510TIP3    H250022   4.058   3.898   3.719  0.8848  0.0652 -0.9073
 9511TIP3   OH250023   0.473   1.606   0.745 -0.3769  0.5754  0.6079
 9511TIP3    H150024   0.458   1.617   0.651  0.7353 -0.0142  0.3395
 9511TIP3    H250025   0.432   1.522   0.766  0.5854  0.0163  0.3311
 9512TIP3   OH250026   0.246   6.632   3.439  0.0752 -0.2903  0.2096
 9512TIP3    H150027   0.335   6.667   3.426 -0.7528  1.9532  0.2399
 9512TIP3    H250028   0.195   6.669   3.366 -0.6296 -2.5145 -0.5069
 9513TIP3   OH250029   1.092   1.905  15.990  0.4429  0.6271 -0.6172
 9513TIP3    H150030   1.040   1.831  15.958  1.4180 -1.1811  1.7082
 9513TIP3    H250031   1.043   1.982  15.960 -2.3440 -0.9441 -0.5175
 9514TIP3   OH250032   6.184   6.704   3.336 -0.3750 -0.3726 -0.7376
 9514TIP3    H150033   6.117   6.636   3.344 -1.9534  1.1497 -0.5400
 9514TIP3    H250034   6.186   6.746   3.421 -0.1079  0.4472 -1.1397
 9515TIP3   OH250035   5.215   0.771  15.200  0.3877  0.3416  0.5209
 9515TIP3    H150036   5.188   0.851  15.244  0.6288 -0.1120  1.5301
 9515TIP3    H250037   5.211   0.704  15.268 -1.0903 -0.7877 -0.6026
 9516TIP3   OH250038   1.912   4.781   2.353 -0.2141 -0.1867  0.1960
 9516TIP3    H150039   1.859   4.840   2.406 -0.2488 -0.6338  0.6646
 9516TIP3    H250040   1.876   4.790   2.264  0.7382  1.6025 -0.0533
 9517TIP3   OH250041   5.395   2.359   2.360 -0.1376  0.0894 -0.0184
 9517TIP3    H150042   5.399   2.448   2.397 -0.2025  1.0895 -2.2698
 9517TIP3    H250043   5.326   2.364   2.294  1.2351 -1.0648 -1.5939
 9518TIP3   OH250044   6.588   2.419   3.280  0.1007  0.1645 -0.2190
 9518TIP3    H150045   6.653   2.353   3.258  1.4636  1.3344  0.1691
 9518TIP3    H250046   6.611   2.447   3.368  0.7948  2.5262 -1.0733
 9519TIP3   OH250047   4.188   3.050  12.273  0.0462 -0.1467  0.1088
 9519TIP3    H150048   4.219   3.071  12.361  0.9604 -0.5730 -0.1032
 9519TIP3    H250049   4.093   3.062  12.278  0.1849  0.8390  0.8705
 9520TIP3   OH250050   2.405   0.234   2.024 -0.4039 -0.2329 -0.3084
 9520TIP3    H150051   2.324   0.185   2.010 -1.7254  0.8366  2.7181
 9520TIP3    H250052   2.413   0.290   1.947 -1.4584 -1.7310 -1.5608
 9521TIP3   OH250053   3.548   1.303  14.587 -0.6574 -0.1068  0.1726
 9521TIP3    H150054   3.607   1.358  14.637 -0.0623  0.5636 -1.2165
 9521TIP3    H250055   3.460   1.329  14.616 -0.3250  0.0264  1.0844
 9522TIP3   OH250056   2.991   4.357  16.583 -0.2419  0.6340 -0.0699
 9522TIP3    H150057   2.914   4.306  16.560  1.0409 -1.7429  0.5190
 9522TIP3    H250058   2.964   4.411  16.657 -1.5110  0.3712 -0.3207
 9523TIP3   OH250059   6.465   1.251  10.320 -0.0261  0.1373  0.2005
 9523TIP3    H150060   6.448   1.293  10.404 -0.6658 -0.2636  0.2783
 9523TIP3    H250061   6.532   1.185  10.339 -0.6382 -0.3955  0.5321
 9524TIP3   OH250062   1.745   1.513   0.651  0.2553  0.1591 -0.0688
 9524TIP3    H150063   1.749   1.461   0.571  1.4176  1.2784 -0.7735
 9524TIP3    H250064   1.763   1.450   0.721  0.8293 -0.5331 -0.8246
 9525TIP3   OH250065   1.936   1.982   0.387  0.3139  0.2748 -0.1168
 9525TIP3    H150066   1.905   1.907   0.439  0.8777  0.2667  0.2136
 9525TIP3    H250067   1.920   2.058   0.444  1.1557  0.2413  0.1721
 9526TIP3   OH250068   4.617   1.738  15.058  0.6071  0.1497 -0.2287
 9526TIP3    H150069   4.593   1.794  14.985 -0.1494  1.9162  1.3061
 9526TIP3    H250070   4.677   1.790  15.110  0.2891 -0.6424  0.9835
 9527TIP3   OH250071   4.333   6.767   1.725 -0.3047 -0.3648 -0.0005
 9527TIP3    H150072   4.351   6.675   1.745 -1.9848 -0.4432  1.4433
 9527TIP3    H250073   4.373   6.816   1.796  3.0032  0.3739 -2.1438
 9528TIP3   OH250074   5.240   5.187  15.364  0.0254 -0.5083  0.0510
 9528TIP3    H150075   5.197   5.225  15.440  0.8563  0.0532  0.2466
 9528TIP3    H250076   5.301   5.123  15.401  0.8566  0.1843 -0.0962
 9529TIP3   OH250077   5.118   1.117   5.714 -0.4082 -0.1755 -0.6718
 9529TIP3    H150078   5.084   1.074   5.636  1.2004 -1.2160 -0.8385
 9529TIP3    H250079   5.190   1.171   5.683 -1.1021  1.0769 -0.1712
 9530TIP3   OH250080   3.972   4.360   5.505 -0.1908  0.5334  0.0324
 9530TIP3    H150081   3.894   4.312   5.478 -1.7837  3.4388 -0.9544
 9530TIP3    H250082   3.974   4.351   5.600 -1.6892  0.3055  0.0687
 9531TIP3   OH250083   3.446   2.508  11.490 -0.1646 -0.6548 -0.3503
 9531TIP3    H150084   3.389   2.516  11.413 -1.0754  0.4453  0.3847
 9531TIP3    H250085   3.494   2.427  11.477 -0.4661 -0.6091 -1.9628
 9532TIP3   OH250086   5.072   0.409   2.506  0.1851 -0.4875 -0.4797
 9532TIP3    H150087   5.115   0.477   2.557 -0.1092  0.8372 -1.9241
 9532TIP3    H250088   5.139   0.342   2.495  0.6486 -0.2188  0.5296
 9533TIP3   OH250089   5.154   5.015  11.942 -0.1024  0.2700  0.1024
 9533TIP3    H150090   5.163   4.938  11.885  0.0398  0.5563 -0.2639
 9533TIP3    H250091   5.237   5.020  11.989  0.5751  1.1955 -1.1323
 9534TIP3   OH250092   2.310   4.800   5.216 -0.4318 -0.6959 -0.4342
 9534TIP3    H150093   2.386   4.776   5.267 -0.0572  1.7857  0.3186
 9534TIP3    H250094   2.344   4.817   5.128  0.1895  1.6581  0.2057
 9535TIP3   OH250095   3.932   5.445   2.843 -0.0678  0.5013 -0.0119
 9535TIP3    H150096   3.886   5.513   2.891  0.7518  0.7312  0.4710
 9535TIP3    H250097   3.960   5.383   2.910  0.5173  0.4855 -0.2671
 9536TIP3   OH250098   2.396   0.914  10.666  0.0047 -0.0034 -0.0684
 9536TIP3    H150099   2.347   0.996  10.665 -0.2073 -0.1240  0.4893
 9536TIP3    H250100   2.488   0.941  10.669  0.2260  0.3171 -3.8450
 9537TIP3   OH250101   2.569   5.557  12.296 -0.5228  0.6603 -0.1167
 9537TIP3    H150102   2.574   5.519  12.383  1.0051 -0.5015 -0.6509
 9537TIP3    H250103   2.647   5.613  12.290 -1.6974  2.3829 -0.0500
 9538TIP3   OH250104   2.260   4.050  15.336 -0.4214 -0.3629  0.7478
 9538TIP3    H150105   2.220   4.080  15.418 -0.1512  0.1841  0.6806
 9538TIP3    H250106   2.352   4.074  15.343 -0.5815  0.5627 -0.1209
 9539TIP3   OH250107   0.429   1.369   5.393 -0.3879  0.6894  0.5719
 9539TIP3    H150108   0.423   1.464   5.398  2.7399  1.2632 -2.3597
 9539TIP3    H250109   0.481   1.344   5.470  0.9667  1.7529  0.0475
 9540TIP3   OH250110   4.688   4.263  12.275 -0.3185  0.8491  0.1843
 9540TIP3    H150111   4.783   4.272  12.285 -0.2103  0.3354 -0.3501
 9540TIP3    H250112   4.654   4.273  12.364  0.3474 -0.2167  0.5812
 9541TIP3   OH250113   0.630   6.353  15.065  0.0585 -0.0800 -0.0084
 9541TIP3    H150114   0.600   6.273  15.020  0.8959 -0.1188 -0.5198
 9541TIP3    H250115   0.604   6.424  15.007 -0.3144 -0.0077  0.2445
 9542TIP3   OH250116   6.364   5.836  16.264 -0.1601  0.0866 -0.2749
 9542TIP3    H150117   6.448   5.816  16.304  0.0920 -2.1774 -1.7556
 9542TIP3    H250118   6.384   5.898  16.194 -0.2326  1.9950  1.3289
 9543TIP3   OH250119   2.294   0.245   1.298  0.9478 -0.2711  0.7359
 9543TIP3    H150120   2.210   0.221   1.337  0.5080  0.7721  0.4811
 9543TIP3    H250121   2.328   0.163   1.261  2.1065 -1.6874  4.4596
 9544TIP3   OH250122   4.087   1.313  17.442 -0.0664 -0.1166  0.4379
 9544TIP3    H150123   4.024   1.281  17.506  1.7206 -0.1166  2.3023
 9544TIP3    H250124   4.123   1.233  17.403  1.4294 -0.3254  2.1165
 9545TIP3   OH250125   3.043   1.234   1.053  0.2049 -0.1628  0.0431
 9545TIP3    H150126   2.984   1.159   1.040 -0.1846  0.1930 -0.2533
 9545TIP3    H250127   3.024   1.264   1.142 -1.0097  0.7562 -0.4934
 9546TIP3   OH250128   4.190   6.567   1.454  0.3907  0.1957 -0.1173
 9546TIP3    H150129   4.118   6.512   1.422 -0.5699  1.7773 -0.8246
 9546TIP3    H250130   4.169   6.583   1.546  1.8808 -2.3849  0.7793
 9547TIP3   OH250131   5.936   5.705  16.364 -0.5813  0.2576  0.1229
 9547TIP3    H150132   5.937   5.799  16.385  0.0735  0.3790 -0.4287
 9547TIP3    H250133   6.025   5.676  16.381 -0.9434 -0.4255  0.9352
 9548TIP3   OH250134   2.763   2.267   4.798  0.0807 -0.5106  0.1988
 9548TIP3    H150135   2.806   2.186   4.825 -1.2165 -1.3877 -0.2721
 9548TIP3    H250136   2.670   2.245   4.796 -0.1521  0.4574 -1.6748
 9549TIP3   OH250137   6.144   3.941   6.201  0.4173  0.6999 -0.3972
 9549TIP3    H150138   6.191   3.963   6.121  0.3615  0.5954 -0.4601
 9549TIP3    H250139   6.180   3.999   6.268  0.4530  0.7978 -0.5020
 9550TIP3   OH250140   1.761   2.102  13.891 -0.2237  0.3306 -0.0056
 9550TIP3    H150141   1.697   2.034  13.870 -0.9951  1.5150 -1.7101
 9550TIP3    H250142   1.714   2.161  13.950 -0.2458  0.4890 -0.1830
 9551TIP3   OH250143   5.671   2.935   4.013  0.4339 -0.0114 -0.4514
 9551TIP3    H150144   5.612   2.952   4.086 -0.2218  0.0597 -0.9836
 9551TIP3    H250145   5.743   2.998   4.025  0.1468  0.2497 -0.0733
 9552TIP3   OH250146   5.748   3.936  15.218  0.3198  0.4305 -0.2007
 9552TIP3    H150147   5.699   3.978  15.148  0.1814  0.8382  0.1334
 9552TIP3    H250148   5.742   3.997  15.292 -0.6381 -0.5721  0.5802
 9553TIP3   OH250149   4.881   5.214  14.490 -0.4647  0.0414 -0.0717
 9553TIP3    H150150   4.842   5.133  14.457 -1.7366  0.8154 -0.5566
 9553TIP3    H250151   4.850   5.221  14.580  0.5681 -0.5573  0.3485
 9554TIP3   OH250152   6.537   3.432  13.342 -0.2715 -0.1853 -0.0954
 9554TIP3    H150153   6.624   3.391  13.338 -0.3505 -0.5273  1.2457
 9554TIP3    H250154   6.550   3.508  13.399 -1.0254 -0.7357  0.8369
 9555TIP3   OH250155   2.524   4.567  13.275  0.3557  0.2786  0.2789
 9555TIP3    H150156   2.605   4.520  13.256 -0.4102 -0.8561 -0.2284
 9555TIP3    H250157   2.531   4.647  13.222  1.3563  0.4485  0.6323
 9556TIP3   OH250158   1.660   6.200  15.352  0.2128 -0.3638  0.4738
 9556TIP3    H150159   1.706   6.181  15.434 -0.7890  1.1852  1.4615
 9556TIP3    H250160   1.567   6.192  15.375 -0.0988 -2.0755 -1.1137
 9557TIP3   OH250161   1.546   1.888   2.419  0.1335 -0.3769  0.2988
 9557TIP3    H150162   1.472   1.898   2.360 -0.6765 -0.7077  1.2353
 9557TIP3    H250163   1.549   1.970   2.469 -0.8088 -1.0902  1.5851
 9558TIP3   OH250164   1.115   5.180   1.837 -0.1246  0.0699 -0.2554
 9558TIP3    H150165   1.026   5.205   1.812 -0.0597 -0.0133 -0.5827
 9558TIP3    H250166   1.105   5.095   1.880 -0.3355  0.6145  0.7885
 9559TIP3   OH250167   0.555   1.611   0.275  0.2109  0.6610 -0.3999
 9559TIP3    H150168   0.460   1.602   0.284  0.2643  0.4815  0.0561
 9559TIP3    H250169   0.583   1.651   0.358  0.5321  0.6908 -0.5214
 9560TIP3   OH250170   2.929   4.610   4.361 -0.1129  0.2641  0.4353
 9560TIP3    H150171   2.956   4.687   4.412  0.7116  0.4653 -0.2742
 9560TIP3    H250172   3.004   4.591   4.305 -0.3041 -1.0731  0.5994
 9561TIP3   OH250173   2.961   3.893   1.114 -0.7141 -0.4534 -0.0619
 9561TIP3    H150174   3.048   3.910   1.150 -0.5817 -0.4318 -0.3888
 9561TIP3    H250175   2.970   3.909   1.020 -1.3070  0.4720  0.0293
 9562TIP3   OH250176   5.860   4.206   0.128 -0.0821 -0.1024 -0.3005
 9562TIP3    H150177   5.795   4.239   0.066 -2.3185 -0.2439  1.7804
 9562TIP3    H250178   5.904   4.135   0.081 -0.9002  0.5038 -2.0731
 9563TIP3   OH250179   1.285   1.185   3.862 -1.1111 -0.7440 -0.2919
 9563TIP3    H150180   1.221   1.176   3.792 -2.1017  3.2385 -0.1117
 9563TIP3    H250181   1.249   1.135   3.935 -2.6479 -0.8050 -1.0647
 9564TIP3   OH250182   5.029   1.139   2.208  0.0455 -0.0950 -0.1601
 9564TIP3    H150183   5.098   1.161   2.270  1.5564 -0.4016 -1.6536
 9564TIP3    H250184   5.046   1.047   2.186 -0.5810 -0.0458 -0.8640
 9565TIP3   OH250185   1.848   3.450   5.907  0.4154  0.2980  0.6161
 9565TIP3    H150186   1.876   3.473   5.818  0.2749  0.7600  0.6851
 9565TIP3    H250187   1.882   3.362   5.921  1.4679  0.6755  0.5430
 9566TIP3   OH250188   1.472   3.684  14.945 -0.6614 -0.0168 -0.2900
 9566TIP3    H150189   1.397   3.643  14.902  0.9155 -2.9940 -0.4414
 9566TIP3    H250190   1.466   3.657  15.037 -0.5495  0.9662  0.0233
 9567TIP3   OH250191   1.200   2.873  13.048  0.0093 -0.1777 -0.1287
 9567TIP3    H150192   1.264   2.845  12.983 -0.4303 -2.1536  0.2303
 9567TIP3    H250193   1.119   2.828  13.023 -0.1350 -1.0986  1.8389
 9568TIP3   OH250194   6.740   4.621  12.568 -0.0560  0.7644  0.1309
 9568TIP3    H150195   6.751   4.661  12.482 -0.9286  1.1485  0.1793
 9568TIP3    H250196   6.697   4.537  12.550 -0.2203  0.8355  0.1891
 9569TIP3   OH250197   1.975   2.982  11.797  0.3422 -0.2550  0.7247
 9569TIP3    H150198   1.935   3.035  11.866 -0.1798 -0.3339  0.4894
 9569TIP3    H250199   2.060   2.957  11.832  0.1031 -0.2547  1.3178
 9570TIP3   OH250200   6.586   1.355   3.292 -0.4101 -0.1529 -0.2615
 9570TIP3    H150201   6.653   1.375   3.227 -0.1322  1.8957  0.5932
 9570TIP3    H250202   6.504   1.359   3.243 -0.0708 -0.6403 -0.8882
 9571TIP3   OH250203   4.713   6.270  11.678  0.0787 -0.2267  0.0407
 9571TIP3    H150204   4.703   6.252  11.585 -1.8706 -0.6850  0.2966
 9571TIP3    H250205   4.768   6.198  11.710  2.2852  0.8954 -1.0096
 9572TIP3   OH250206   4.920   5.210   3.534  0.1544 -0.1259 -0.3858
 9572TIP3    H150207   4.973   5.131   3.547 -0.3673 -0.3229  0.7069
 9572TIP3    H250208   4.830   5.179   3.539 -0.0569  0.5088 -0.1591
 9573TIP3   OH250209   5.812   3.504   4.093  0.7763 -0.3324 -0.9261
 9573TIP3    H150210   5.763   3.430   4.129  1.8637 -0.8416 -0.4440
 9573TIP3    H250211   5.806   3.492   3.998 -0.0745 -0.3427 -0.8822
 9574TIP3   OH250212   6.433   6.162  11.711  0.0356 -0.0649 -0.4727
 9574TIP3    H150213   6.509   6.201  11.755  0.0312 -1.0601  0.4463
 9574TIP3    H250214   6.466   6.137  11.625  0.4883  0.4256 -0.4453
 9575TIP3   OH250215   3.101   5.577  13.435 -0.3660 -0.1135  0.1745
 9575TIP3    H150216   3.190   5.611  13.429 -0.5685  0.3161 -0.6557
 9575TIP3    H250217   3.093   5.517  13.361 -0.7534 -0.1707  0.2604
 9576TIP3   OH250218   1.625   3.448  12.946 -0.9757  0.3231  0.1715
 9576TIP3    H150219   1.541   3.470  12.906 -1.0650  0.3869  0.3897
 9576TIP3    H250220   1.666   3.533  12.966 -0.9129  0.2928  0.1731
 9577TIP3   OH250221   4.933   3.444   6.971 -0.4718 -0.1048 -0.1325
 9577TIP3    H150222   4.920   3.350   6.974 -2.0871  0.0919 -0.2338
 9577TIP3    H250223   4.957   3.463   6.880  2.1339 -0.6246  0.3449
 9578TIP3   OH250224   0.727   5.501  16.272  0.2327  0.1774 -0.5360
 9578TIP3    H150225   0.790   5.499  16.344  1.5333 -0.3486 -1.6380
 9578TIP3    H250226   0.653   5.449  16.303  0.5154  0.4254  0.6112
 9579TIP3   OH250227   5.218   5.316   0.599  0.0773  0.0112 -0.1963
 9579TIP3    H150228   5.251   5.250   0.538  0.0482  2.2775 -2.8601
 9579TIP3    H250229   5.296   5.368   0.621 -0.5966  1.8282 -1.8502
 9580TIP3   OH250230   4.212   0.124  16.057 -0.6229  0.1314 -0.2083
 9580TIP3    H150231   4.280   0.076  16.009 -0.5117 -0.3761  0.4547
 9580TIP3    H250232   4.216   0.213  16.020  0.7312  0.2426  0.1257
 9581TIP3   OH250233   6.145   3.523  15.665 -0.1503  0.2723  0.5170
 9581TIP3    H150234   6.205   3.580  15.713  0.6753  0.3526 -0.5557
 9581TIP3    H250235   6.095   3.583  15.609  0.2063  0.0232 -0.0775
 9582TIP3   OH250236   1.564   1.918   1.665 -0.4096  0.1476  0.1645
 9582TIP3    H150237   1.614   1.942   1.743 -0.4083 -1.0012  0.5369
 9582TIP3    H250238   1.595   1.978   1.597  0.6855  0.1728  0.6689
 9583TIP3   OH250239   2.642   5.564  17.140 -0.0710  0.2284  0.3373
 9583TIP3    H150240   2.563   5.516  17.165  0.2268 -0.0304  0.7763
 9583TIP3    H250241   2.688   5.504  17.081 -0.7161  0.7925 -0.7713
 9584TIP3   OH250242   4.189   2.407   2.281 -0.0943  0.5857 -0.0184
 9584TIP3    H150243   4.243   2.485   2.289  1.0267 -0.3621  2.6481
 9584TIP3    H250244   4.103   2.440   2.254  0.7208  2.5354 -0.3979
 9585TIP3   OH250245   3.272   0.228  14.485 -0.1084  0.1470  0.0201
 9585TIP3    H150246   3.212   0.194  14.552  0.4820 -0.3571  0.3122
 9585TIP3    H250247   3.215   0.269  14.420 -1.0629 -2.8934 -1.2549
 9586TIP3   OH250248   3.946   3.492   0.259 -0.1174 -0.9097 -0.3191
 9586TIP3    H150249   3.989   3.507   0.343  0.4979 -1.5235 -0.5177
 9586TIP3    H250250   3.928   3.580   0.225 -0.0277 -0.6572  0.2776
 9587TIP3   OH250251   4.205   1.556  16.441 -0.7187 -0.0088 -0.0227
 9587TIP3    H150252   4.128   1.503  16.422  0.3622 -2.0479  0.8872
 9587TIP3    H250253   4.182   1.605  16.520 -2.0016  1.5537 -1.3013
 9588TIP3   OH250254   0.201   0.897  16.391 -0.1205 -0.5201  0.0583
 9588TIP3    H150255   0.258   0.955  16.442 -1.1579 -1.9687  3.1355
 9588TIP3    H250256   0.188   0.943  16.308  2.1715  1.7619  0.8232
 9589TIP3   OH250257   6.137   5.359  14.310 -0.0717  0.4142 -0.3512
 9589TIP3    H150258   6.087   5.333  14.232 -0.1527  2.7477 -1.1467
 9589TIP3    H250259   6.080   5.337  14.383 -1.0169  0.3521 -1.0878
 9590TIP3   OH250260   6.170   2.643  15.870 -0.1391 -0.6053  0.4791
 9590TIP3    H150261   6.133   2.686  15.947 -0.4648 -2.4874  1.4167
 9590TIP3    H250262   6.098   2.590  15.835  0.1387 -0.1512 -0.8686
 9591TIP3   OH250263   3.998   4.559  17.018  0.3090 -0.2448 -0.0525
 9591TIP3    H150264   4.051   4.620  17.068 -2.7640  1.4874  1.3387
 9591TIP3    H250265   3.977   4.489  17.079 -1.8205  0.8836  0.6117
 9592TIP3   OH250266   2.574   1.052  17.471  0.3583 -0.6877 -0.4535
 9592TIP3    H150267   2.555   0.979  17.412  1.9793 -2.3343  0.9270
 9592TIP3    H250268   2.611   1.010  17.549  0.0764  1.5449  0.9485
 9593TIP3   OH250269   1.416   5.958  11.396  0.5967  0.0110  0.5998
 9593TIP3    H150270   1.411   6.033  11.455  1.1786  1.1670 -0.7700
 9593TIP3    H250271   1.343   5.902  11.423  1.1413  0.2386  2.7071
 9594TIP3   OH250272   4.032   4.830   1.963 -0.1763  0.2650  0.2791
 9594TIP3    H150273   3.979   4.751   1.956  0.0645  0.1938 -1.0494
 9594TIP3    H250274   3.985   4.895   1.911 -0.4466  1.0642  1.4688
 9595TIP3   OH250275   0.822   0.577   3.408 -0.4973 -0.2149 -0.1742
 9595TIP3    H150276   0.749   0.535   3.453 -0.2605 -0.2892  0.1423
 9595TIP3    H250277   0.881   0.505   3.385  0.7647  0.0491  1.8903
 9596TIP3   OH250278   6.484   4.510   5.370 -0.2567 -0.0619  0.0072
 9596TIP3    H150279   6.491   4.576   5.302 -0.3230  1.0579  1.0411
 9596TIP3    H250280   6.440   4.555   5.442  0.0165 -1.1286  0.8727
 9597TIP3   OH250281   5.214   1.889  14.619 -0.2718  0.0149 -0.0532
 9597TIP3    H150282   5.140   1.905  14.678 -1.7845 -2.3343 -1.1544
 9597TIP3    H250283   5.218   1.794  14.612  2.2458  0.1252 -0.8625
 9598TIP3   OH250284   2.278   1.578   2.444  0.3348  0.1635 -0.2105
 9598TIP3    H150285   2.219   1.504   2.451 -0.3708  0.4848 -2.1362
 9598TIP3    H250286   2.358   1.542   2.405  1.2510 -0.1645  1.8751
 9599TIP3   OH250287   3.773   6.486   2.541 -0.2565  0.0593 -0.1166
 9599TIP3    H150288   3.682   6.481   2.511 -0.0570 -1.4041 -0.5829
 9599TIP3    H250289   3.825   6.460   2.465  0.5129  0.2230  0.3398
 9600TIP3   OH250290   4.191   4.065  16.194 -0.0857 -0.5241 -0.0734
 9600TIP3    H150291   4.239   4.034  16.270  1.6465  0.8336 -0.5439
 9600TIP3    H250292   4.232   4.022  16.119 -1.3332 -1.3337 -0.3168
 9601TIP3   OH250293   2.862   0.893  16.245 -0.1706  0.3295 -0.2497
 9601TIP3    H150294   2.827   0.949  16.315 -1.2549 -1.4241  0.6640
 9601TIP3    H250295   2.952   0.875  16.272 -1.1127 -1.8723  1.8073
 9602TIP3   OH250296   3.212   1.098   0.166 -0.0413  0.1450 -0.4805
 9602TIP3    H150297   3.136   1.058   0.124  0.2411  0.3548 -1.1954
 9602TIP3    H250298   3.194   1.090   0.260 -2.0005  2.1626 -0.5979
 9603TIP3   OH250299   2.256   1.512   6.070  0.4295 -0.3571  0.1643
 9603TIP3    H150300   2.169   1.502   6.109 -0.8012  0.6092 -2.0820
 9603TIP3    H250301   2.238   1.531   5.978  3.0332  0.5556 -0.2408
 9604TIP3   OH250302   5.184   1.801   0.648 -0.0093  0.3613  0.1068
 9604TIP3    H150303   5.134   1.811   0.730 -0.9023 -1.7600 -0.1072
 9604TIP3    H250304   5.204   1.890   0.621  0.4417  1.1315  2.7126
 9605TIP3   OH250305   5.500   0.292   5.607  0.0241 -0.0191  0.0537
 9605TIP3    H150306   5.420   0.242   5.591  0.5068 -0.7323 -0.2314
 9605TIP3    H250307   5.557   0.270   5.533  0.5870  0.2560  0.3921
 9606TIP3   OH250308   0.169   5.451   6.399  0.0533 -0.4171  0.0422
 9606TIP3    H150309   0.100   5.384   6.395 -2.1390  1.7321 -0.0586
 9606TIP3    H250310   0.150   5.501   6.478  1.0297  0.7341 -0.4139
 9607TIP3   OH250311   2.320   5.979  12.002 -0.2859  0.4277 -0.6116
 9607TIP3    H150312   2.254   5.930  12.051  1.0090  0.8987  1.7624
 9607TIP3    H250313   2.404   5.951  12.039  0.7824  1.0164 -2.4417
 9608TIP3   OH250314   5.718   3.267   4.993  0.2400  0.6464  0.0710
 9608TIP3    H150315   5.799   3.276   5.043  0.0872 -0.3993  0.5249
 9608TIP3    H250316   5.670   3.198   5.037  0.4407 -0.8521 -1.9399
 9609TIP3   OH250317   1.321   2.955  12.036 -0.0388  0.2689 -0.7043
 9609TIP3    H150318   1.228   2.977  12.034  0.0841  0.8681 -0.0588
 9609TIP3    H250319   1.346   2.963  12.128  0.7244  0.4213 -0.9180
 9610TIP3   OH250320   0.859   5.890  14.932  0.3511 -0.5149  0.0802
 9610TIP3    H150321   0.769   5.862  14.942 -0.0133  0.7005  0.3861
 9610TIP3    H250322   0.865   5.972  14.982  1.6476 -0.6276  0.1668
 9611TIP3   OH250323   4.417   6.461   5.541 -0.0801  0.0340 -0.0218
 9611TIP3    H150324   4.498   6.482   5.589 -0.9972 -2.0375  2.7187
 9611TIP3    H250325   4.354   6.527   5.571  0.0023  0.3223 -0.4672
 9612TIP3   OH250326   5.143   0.571   5.638 -0.0960 -0.1423 -0.2970
 9612TIP3    H150327   5.223   0.605   5.599 -0.5293  1.4505  0.1322
 9612TIP3    H250328   5.158   0.576   5.732 -0.8267  0.5253 -0.2068
 9613TIP3   OH250329   0.403   4.249   1.408 -0.0002  0.2403 -0.2164
 9613TIP3    H150330   0.393   4.344   1.394 -0.5870  0.3579  0.8899
 9613TIP3    H250331   0.491   4.239   1.444  0.2583  0.3000 -0.8170
 9614TIP3   OH250332   2.886   4.971   2.347 -0.4420 -0.0892  0.1236
 9614TIP3    H150333   2.812   5.030   2.361  0.0568  0.4816  0.4175
 9614TIP3    H250334   2.961   5.017   2.386 -0.0739 -1.0012  0.5111
 9615TIP3   OH250335   0.257   0.388   4.612  0.6756 -0.3465 -0.3109
 9615TIP3    H150336   0.339   0.435   4.631  1.3735 -2.3639  2.0863
 9615TIP3    H250337   0.273   0.346   4.528  1.8171 -0.1223 -0.2225
 9616TIP3   OH250338   6.428   0.577   4.541  0.6055 -0.4370  0.4370
 9616TIP3    H150339   6.521   0.594   4.530  0.2712  0.7733 -0.6688
 9616TIP3    H250340   6.410   0.604   4.631  1.3110 -0.6757  0.6591
 9617TIP3   OH250341   2.994   2.095   1.779  0.4919  0.3735 -0.1062
 9617TIP3    H150342   2.992   2.141   1.862 -0.7620 -2.1776  1.3913
 9617TIP3    H250343   2.902   2.086   1.753  0.8544  1.1080 -1.7994
 9618TIP3   OH250344   2.032   0.169  14.723  0.1444  0.1177 -0.1358
 9618TIP3    H150345   1.950   0.133  14.757 -1.0144  3.8481  1.5035
 9618TIP3    H250346   2.088   0.179  14.800  1.2485 -0.1386 -0.8735
 9619TIP3   OH250347   3.050   2.715  16.749  0.5634 -0.4038  0.2429
 9619TIP3    H150348   3.027   2.755  16.665  1.1540 -0.6781 -0.0532
 9619TIP3    H250349   3.066   2.790  16.807  2.0077 -0.1651 -0.3980
 9620TIP3   OH250350   2.787   5.058  12.016 -0.3216 -0.1371  0.6581
 9620TIP3    H150351   2.828   5.111  11.947 -0.0729  0.0250  0.9292
 9620TIP3    H250352   2.856   5.048  12.082 -0.5577 -0.3003  0.8794
 9621TIP3   OH250353   6.141   0.331   2.900 -0.1592 -0.4151  0.1247
 9621TIP3    H150354   6.048   0.352   2.901 -0.3154 -1.1053  0.5052
 9621TIP3    H250355   6.166   0.331   2.993  0.2834  0.0476  0.0088
 9622TIP3   OH250356   5.248   6.537   0.113  0.3367  0.0507 -0.1055
 9622TIP3    H150357   5.264   6.526   0.207 -0.0136  0.4398 -0.0009
 9622TIP3    H250358   5.195   6.616   0.106 -0.2600 -0.3808 -0.5755
 9623TIP3   OH250359   1.379   4.543  16.886  0.4102 -0.2714  0.3911
 9623TIP3    H150360   1.303   4.591  16.919  0.2775 -1.1197  1.3424
 9623TIP3    H250361   1.429   4.518  16.964  2.2572  1.1632 -0.2446
 9624TIP3   OH250362   4.978   4.607  15.158 -0.3398 -0.2748  0.5315
 9624TIP3    H150363   5.066   4.575  15.139 -0.5087  0.1970 -1.1611
 9624TIP3    H250364   4.991   4.695  15.192 -0.1895  0.4112 -1.1883
 9625TIP3   OH250365   0.606   6.140  17.498  0.3955  0.1212 -0.1581
 9625TIP3    H150366   0.693   6.144  17.538 -0.3800 -0.1232  1.6631
 9625TIP3    H250367   0.611   6.066  17.438  1.0772 -0.7275  0.9007
 9626TIP3   OH250368   1.234   0.266   2.869 -0.1146  0.0253  0.4923
 9626TIP3    H150369   1.225   0.273   2.964  1.7000 -1.4969  0.8248
 9626TIP3    H250370   1.326   0.284   2.852  0.0846 -1.8839 -0.7183
 9627TIP3   OH250371   3.629   3.347  15.433  0.2960  0.2794  0.1078
 9627TIP3    H150372   3.698   3.362  15.497  1.5276 -0.7273 -0.9355
 9627TIP3    H250373   3.596   3.259  15.454  0.2053  0.2416 -0.1910
 9628TIP3   OH250374   5.100   4.901  13.392 -0.2021 -0.1995 -0.4787
 9628TIP3    H150375   5.086   4.816  13.434  1.5894  0.1630  0.9582
 9628TIP3    H250376   5.035   4.959  13.432  1.3077  0.0796  1.7335
 9629TIP3   OH250377   2.081   1.083  11.495 -0.1658  0.4605 -0.0520
 9629TIP3    H150378   1.999   1.128  11.474 -0.6599  0.0016  0.8093
 9629TIP3    H250379   2.098   1.106  11.586  0.6468  0.5123 -0.2094
 9630TIP3   OH250380   1.366   6.630  15.836  0.1957  0.4139 -0.3674
 9630TIP3    H150381   1.279   6.605  15.806 -1.6043  2.2081  2.7162
 9630TIP3    H250382   1.380   6.717  15.798  0.7769  0.0487 -1.0141
 9631TIP3   OH250383   1.999   4.956   5.141 -0.1333 -0.5630  0.1055
 9631TIP3    H150384   2.093   4.955   5.122 -0.2100  1.1381 -0.4820
 9631TIP3    H250385   1.993   4.984   5.232 -0.1199  1.7678 -0.5625
 9632TIP3   OH250386   1.654   4.374   3.031  0.2126  0.5260 -0.0346
 9632TIP3    H150387   1.625   4.287   3.001 -1.3675  0.4947  1.4768
 9632TIP3    H250388   1.654   4.427   2.951  3.3675 -1.2862 -1.4895
 9633TIP3   OH250389   6.329   6.227  17.395  0.5468 -0.0544 -0.0888
 9633TIP3    H150390   6.333   6.321  17.374 -0.2761 -0.1593 -0.7488
 9633TIP3    H250391   6.236   6.209  17.406  0.7429 -0.6850  0.5899
 9634TIP3   OH250392   0.076   0.392  13.930  0.3089  0.5257 -0.1649
 9634TIP3    H150393  -0.011   0.419  13.960 -0.6771  0.1756 -2.4977
 9634TIP3    H250394   0.060   0.351  13.845  2.3855 -2.4257  0.7007
 9635TIP3   OH250395   4.066   0.732   1.012  0.5715 -0.3475  0.3629
 9635TIP3    H150396   4.013   0.809   1.029 -0.2735 -1.1645  1.7014
 9635TIP3    H250397   4.046   0.673   1.086 -1.6787 -3.3904 -2.3714
 9636TIP3   OH250398   5.584   0.693  14.100 -0.1548  0.1632 -0.5948
 9636TIP3    H150399   5.556   0.619  14.046 -1.6462  0.0587  0.2446
 9636TIP3    H250400   5.646   0.741  14.045  2.5715 -2.8137 -0.4049
 9637TIP3   OH250401   0.778   4.520   2.639 -0.4647 -0.2717  0.1736
 9637TIP3    H150402   0.705   4.465   2.666 -0.6326  1.0658  2.7798
 9637TIP3    H250403   0.736   4.602   2.612 -0.0041  0.0555  0.4504
 9638TIP3   OH250404   2.709   3.599  17.030 -0.1249 -0.4646 -0.1028
 9638TIP3    H150405   2.674   3.596  16.941  0.5666 -1.1692 -0.3654
 9638TIP3    H250406   2.637   3.633  17.083 -0.0172  1.5238 -1.1663
 9639TIP3   OH250407   6.226   1.637  15.421 -1.0474  0.4378  0.0469
 9639TIP3    H150408   6.191   1.556  15.459  0.1207 -1.1394 -2.0094
 9639TIP3    H250409   6.149   1.691  15.404 -1.8140 -0.0323  1.8436
 9640TIP3   OH250410   6.779   2.423   5.155 -0.1536 -0.3924 -1.2882
 9640TIP3    H150411   6.736   2.471   5.226  1.0223  0.8754 -1.3943
 9640TIP3    H250412   6.859   2.389   5.194  1.0171  1.1884 -2.2200
 9641TIP3   OH250413   4.486   3.346  16.156 -0.1751 -0.2463  0.2338
 9641TIP3    H150414   4.414   3.389  16.201  0.5923 -1.2484  2.5533
 9641TIP3    H250415   4.562   3.360  16.212  1.3760  0.3213 -1.8674
 9642TIP3   OH250416   4.836   3.437  14.805  0.4523  0.0016 -0.8647
 9642TIP3    H150417   4.852   3.485  14.886  0.4060 -0.3029 -0.6722
 9642TIP3    H250418   4.839   3.503  14.736  2.3073  0.0229 -0.8170
 9643TIP3   OH250419   4.455   1.648  15.609  0.0493 -0.2203  0.3414
 9643TIP3    H150420   4.437   1.558  15.634  1.3276 -0.1129  1.8332
 9643TIP3    H250421   4.511   1.642  15.532  0.6086 -0.7257  0.7798
 9644TIP3   OH250422   4.839   2.125   0.918 -0.5771  0.1217  0.1738
 9644TIP3    H150423   4.845   2.112   0.823  1.0030 -0.9098  0.3676
 9644TIP3    H250424   4.882   2.209   0.934 -0.6397  0.1860  0.0052
 9645TIP3   OH250425   4.569   4.559   4.161  0.3460  0.0694 -0.0689
 9645TIP3    H150426   4.526   4.547   4.246 -0.1814 -3.2374 -0.6844
 9645TIP3    H250427   4.508   4.613   4.111 -1.5863 -1.7716  0.1772
 9646TIP3   OH250428   1.117   3.309   5.553 -0.1170  0.3423 -0.6516
 9646TIP3    H150429   1.040   3.253   5.539 -0.1253 -0.3646  1.7093
 9646TIP3    H250430   1.116   3.327   5.647  0.7837  3.0835 -1.0989
 9647TIP3   OH250431   2.921   4.870  16.130  0.2104 -0.5243  0.1805
 9647TIP3    H150432   2.953   4.907  16.048  0.8382 -0.6127  0.3814
 9647TIP3    H250433   2.992   4.815  16.162 -0.5476 -1.5725  0.1168
 9648TIP3   OH250434   4.764   3.436   0.717  0.5645 -0.4660  0.4097
 9648TIP3    H150435   4.847   3.468   0.753 -0.1768 -0.5104  2.2764
 9648TIP3    H250436   4.781   3.344   0.695  1.9270  0.3747 -2.4192
 9649TIP3   OH250437   1.822   5.496  14.787  0.5671  0.2141 -0.0190
 9649TIP3    H150438   1.854   5.583  14.763 -0.3200  0.8733  1.0915
 9649TIP3    H250439   1.872   5.472  14.865 -0.6414  0.6770  0.9329
 9650TIP3   OH250440   2.857   2.645   0.071  0.1607 -0.3263  0.3102
 9650TIP3    H150441   2.822   2.733   0.056  2.0238  0.3733 -0.1528
 9650TIP3    H250442   2.885   2.645   0.162 -0.0970 -0.5447  0.3916
 9651TIP3   OH250443   0.767   3.122   4.454  0.1574  0.2736  0.0145
 9651TIP3    H150444   0.684   3.163   4.475  0.8211  2.0838 -0.7360
 9651TIP3    H250445   0.801   3.172   4.380  0.5943 -2.2409 -1.6332
 9652TIP3   OH250446   1.065   2.986   5.796 -0.3631  0.0494  0.1764
 9652TIP3    H150447   1.051   2.913   5.856 -3.0777  0.8712  0.7101
 9652TIP3    H250448   1.067   2.946   5.710 -0.1664 -0.8099  0.5693
 9653TIP3   OH250449   1.065   4.614   6.161  0.0443  0.0079  0.1675
 9653TIP3    H150450   1.104   4.530   6.184 -1.7076 -1.1613 -0.8884
 9653TIP3    H250451   0.988   4.621   6.217  0.5921  1.3181  0.8024
 9654TIP3   OH250452   3.207   4.375  13.704 -0.5656 -0.3365 -0.6480
 9654TIP3    H150453   3.247   4.457  13.729 -0.8075  0.3530 -2.3476
 9654TIP3    H250454   3.146   4.355  13.774  0.4852  0.2053  0.4498
 9655TIP3   OH250455   0.697   0.795   5.858 -0.0723 -0.2733  0.0739
 9655TIP3    H150456   0.621   0.764   5.908 -0.1388  0.7382  0.6412
 9655TIP3    H250457   0.742   0.855   5.919  0.9058 -0.4765 -0.4281
 9656TIP3   OH250458   3.694   1.026  13.291 -0.0535 -0.2681 -0.1080
 9656TIP3    H150459   3.737   0.941  13.286  0.2709 -0.1238  0.2206
 9656TIP3    H250460   3.732   1.076  13.219  1.6274  0.4434  1.2192
 9657TIP3   OH250461   2.727   3.717   4.544 -0.3219 -0.1537  0.5299
 9657TIP3    H150462   2.814   3.686   4.568 -0.0519  0.8371  0.8795
 9657TIP3    H250463   2.743   3.791   4.485 -0.9591 -2.0895 -2.2518
 9658TIP3   OH250464   6.108   4.305  14.356 -0.1816 -0.1903 -0.1137
 9658TIP3    H150465   6.045   4.302  14.284 -0.5942 -0.7764  0.2500
 9658TIP3    H250466   6.057   4.275  14.432 -0.4686  2.7320  0.9674
 9659TIP3   OH250467   2.795   2.184  16.302 -0.5997 -0.0709 -0.2210
 9659TIP3    H150468   2.836   2.164  16.386  0.4866 -1.4624 -1.0326
 9659TIP3    H250469   2.729   2.115  16.290 -1.0422  0.3639 -0.3259
 9660TIP3   OH250470   1.609   1.318   0.404 -0.0791  0.5902 -0.0831
 9660TIP3    H150471   1.523   1.339   0.367 -0.2256  0.4859  0.1917
 9660TIP3    H250472   1.589   1.279   0.489  0.2486  0.7427  0.0663
 9661TIP3   OH250473   5.536   5.217  16.220  0.1817 -0.2751  0.1099
 9661TIP3    H150474   5.568   5.282  16.282  0.8968  0.7836 -1.3220
 9661TIP3    H250475   5.442   5.232  16.217  0.2125  0.0288  0.5255
 9662TIP3   OH250476   3.360   5.654  13.445 -0.6762 -0.1222  0.3983
 9662TIP3    H150477   3.432   5.596  13.470 -2.4489 -2.0963  1.2199
 9662TIP3    H250478   3.360   5.723  13.511  1.1114  0.5453 -0.2555
 9663TIP3   OH250479   3.209   4.878   2.235 -0.1937  0.2430  0.0229
 9663TIP3    H150480   3.275   4.825   2.191 -0.3897  0.3216 -0.3712
 9663TIP3    H250481   3.134   4.877   2.176 -0.2319  0.8896  0.0455
 9664TIP3   OH250482   5.384   4.207   4.198  0.4795  0.1849 -0.2553
 9664TIP3    H150483   5.417   4.117   4.194 -2.0394 -0.7824 -2.8784
 9664TIP3    H250484   5.355   4.218   4.289 -0.1611 -2.0863 -0.1245
 9665TIP3   OH250485   2.521   5.240  16.227 -0.9055  0.0639 -0.3487
 9665TIP3    H150486   2.479   5.167  16.180  0.2643 -0.2019 -1.0074
 9665TIP3    H250487   2.498   5.225  16.319 -1.9641 -0.2582 -0.6489
 9666TIP3   OH250488   3.395   2.215   5.930  0.4305  0.1763 -0.3576
 9666TIP3    H150489   3.380   2.215   6.024  0.5160  1.0966 -0.3363
 9666TIP3    H250490   3.458   2.145   5.915  0.5886  0.1762  0.2956
 9667TIP3   OH250491   0.674   3.045   5.271  0.2617  0.1016  0.2262
 9667TIP3    H150492   0.674   3.040   5.367 -1.2999  0.7217  0.2932
 9667TIP3    H250493   0.666   2.954   5.243 -0.1130 -0.0206  0.7112
 9668TIP3   OH250494   0.606   2.607  12.593  0.0974 -0.3940  0.1879
 9668TIP3    H150495   0.655   2.674  12.640  0.5961  0.1429 -1.0635
 9668TIP3    H250496   0.672   2.563  12.539 -0.7644  0.4428 -1.6414
 9669TIP3   OH250497   3.106   2.748   6.474  0.0852  0.0512  0.0590
 9669TIP3    H150498   3.126   2.655   6.472  0.5850  0.1530  0.0165
 9669TIP3    H250499   3.019   2.754   6.513  0.6576 -0.3486  1.4643
 9670TIP3   OH250500   6.242   0.139   4.463 -0.4878 -0.6855 -0.7719
 9670TIP3    H150501   6.233   0.105   4.374  1.0780  1.3250 -1.7800
 9670TIP3    H250502   6.330   0.113   4.491 -1.2941 -2.1170  0.6351
 9671TIP3   OH250503   0.417   2.988  16.261 -0.5787 -0.1965  0.0153
 9671TIP3    H150504   0.457   3.052  16.320  1.5934 -0.3323 -1.1923
 9671TIP3    H250505   0.360   2.936  16.317  0.4999  0.4308  1.7798
 9672TIP3   OH250506   5.674   6.320   2.286  0.4078  0.2281 -0.4399
 9672TIP3    H150507   5.608   6.352   2.347 -0.9175 -1.2942 -0.9952
 9672TIP3    H250508   5.688   6.229   2.312  0.9183 -0.0092 -1.4845
 9673TIP3   OH250509   6.137   5.647   6.214  0.2290  0.0955 -0.0247
 9673TIP3    H150510   6.163   5.655   6.306  1.2183  0.8942 -0.3500
 9673TIP3    H250511   6.043   5.633   6.217 -0.3077  3.0336  1.0572
 9674TIP3   OH250512   5.156   2.384  13.879 -0.6123 -0.2946 -0.0401
 9674TIP3    H150513   5.251   2.388  13.887 -0.5845 -1.3743  0.3704
 9674TIP3    H250514   5.128   2.329  13.953 -1.3589 -1.6822 -1.2993
 9675TIP3   OH250515   0.505   3.055   0.430  0.2536 -0.0242  0.3085
 9675TIP3    H150516   0.562   2.986   0.396 -0.9797 -0.3289 -1.2636
 9675TIP3    H250517   0.528   3.133   0.380 -1.5239 -0.4582 -1.3299
 9676TIP3   OH250518   3.791   0.585  11.548 -0.0863  0.2630  0.3642
 9676TIP3    H150519   3.723   0.616  11.609 -0.0063 -0.3975  0.7951
 9676TIP3    H250520   3.809   0.661  11.493  0.5521  1.2029  1.7910
 9677TIP3   OH250521   2.083   1.185   5.910  0.2195  0.3145 -0.1057
 9677TIP3    H150522   2.032   1.239   5.970  1.2556  2.0015 -0.6696
 9677TIP3    H250523   2.030   1.180   5.831  1.1248  2.6527 -0.9482
 9678TIP3   OH250524   3.461   3.168   1.166  0.1170  0.1624  1.3993
 9678TIP3    H150525   3.523   3.127   1.226  0.7226 -1.4790 -0.2505
 9678TIP3    H250526   3.389   3.105   1.158 -1.1371  1.4229  2.2079
 9679TIP3   OH250527   5.813   2.325   6.822  0.2012  0.0027 -0.3837
 9679TIP3    H150528   5.845   2.403   6.776  1.3028 -0.1339  0.1196
 9679TIP3    H250529   5.884   2.301   6.881 -1.7448  1.1372  2.6511
 9680TIP3   OH250530   2.510   6.746  11.048  0.4391 -0.2753 -0.9838
 9680TIP3    H150531   2.499   6.756  10.953  0.3723  3.0570 -0.7521
 9680TIP3    H250532   2.429   6.781  11.084  1.1061 -0.0594  0.3312
 9681TIP3   OH250533   6.265   4.777  14.865  0.2589  0.4521  0.3748
 9681TIP3    H150534   6.200   4.813  14.803  1.1384 -0.0091 -0.8610
 9681TIP3    H250535   6.292   4.852  14.917  1.4137  1.4912 -1.5753
 9682TIP3   OH250536   3.156   2.896  14.210 -0.2856  0.2841  0.6847
 9682TIP3    H150537   3.063   2.884  14.228 -0.3488  0.9013  0.7903
 9682TIP3    H250538   3.200   2.843  14.277 -0.5615 -0.1474  0.5253
 9683TIP3   OH250539   3.902   1.182   5.143 -0.0013 -0.0198  0.4980
 9683TIP3    H150540   3.907   1.116   5.074  1.4613 -0.9221  1.4220
 9683TIP3    H250541   3.870   1.134   5.220 -2.3189  1.1178  0.3397
 9684TIP3   OH250542   5.129   2.441  16.225  0.1705 -0.2328 -1.1313
 9684TIP3    H150543   5.074   2.375  16.268 -0.7706  0.2289 -1.6116
 9684TIP3    H250544   5.123   2.518  16.282  1.2397 -0.5238 -0.5888
 9685TIP3   OH250545   2.857   4.109   1.251 -0.1537  0.1798  0.3149
 9685TIP3    H150546   2.898   4.050   1.187 -0.2946  1.1221 -0.6696
 9685TIP3    H250547   2.763   4.105   1.230 -0.0592  1.5590 -0.4783
 9686TIP3   OH250548   3.598   2.113  17.500 -0.5308 -0.1915  0.3407
 9686TIP3    H150549   3.683   2.077  17.527 -0.1511  0.8234  0.5443
 9686TIP3    H250550   3.565   2.157  17.578 -1.7505 -1.4571  0.5701
 9687TIP3   OH250551   0.034   3.582   6.712  0.0736  0.3685  0.0305
 9687TIP3    H150552   0.014   3.670   6.679 -1.3382 -0.5922 -1.9442
 9687TIP3    H250553   0.103   3.595   6.776  0.3277  2.8507 -0.6386
 9688TIP3   OH250554   1.429   6.649   2.861  0.3262  0.0651 -0.6725
 9688TIP3    H150555   1.482   6.729   2.856  1.2299 -0.5286 -0.8835
 9688TIP3    H250556   1.340   6.677   2.839  0.7676  0.8783 -1.4712
 9689TIP3   OH250557   5.845   2.270  14.328  0.1925  0.1512  0.4090
 9689TIP3    H150558   5.908   2.228  14.269  0.4800 -0.9609  1.4541
 9689TIP3    H250559   5.778   2.305  14.270  0.2869 -1.2103 -0.5721
 9690TIP3   OH250560   4.749   4.171  16.681  0.2166  0.1893  0.3603
 9690TIP3    H150561   4.711   4.212  16.759  1.0654 -0.3571  1.0802
 9690TIP3    H250562   4.726   4.079  16.689  1.7438 -0.1708  0.8701
 9691TIP3   OH250563   3.405   1.407  15.627 -0.2216  0.9036 -0.0459
 9691TIP3    H150564   3.475   1.396  15.691  0.3536 -2.8390 -1.0638
 9691TIP3    H250565   3.325   1.384  15.674  0.1175 -1.1582 -0.3780
 9692TIP3   OH250566   4.452   0.945   3.947 -0.7221  0.7645 -0.5419
 9692TIP3    H150567   4.401   0.968   3.870 -0.9198 -0.4951 -0.8020
 9692TIP3    H250568   4.406   0.871   3.986  0.9456 -0.4840 -0.8521
 9693TIP3   OH250569   2.781   3.188   5.437  0.0512  0.2073  0.5374
 9693TIP3    H150570   2.719   3.134   5.485 -2.2308  3.1048  1.0720
 9693TIP3    H250571   2.799   3.138   5.357 -1.1569 -1.7316  1.4093
 9694TIP3   OH250572   1.597   6.509   6.508  0.3020 -0.0626  0.0607
 9694TIP3    H150573   1.539   6.581   6.483  0.3356 -0.4710 -1.2958
 9694TIP3    H250574   1.543   6.430   6.498  0.4107 -0.2773  1.0534
 9695TIP3   OH250575   0.751   4.073  13.557 -0.0381 -0.4230  0.5025
 9695TIP3    H150576   0.714   4.040  13.475 -1.0318  2.2301 -0.2461
 9695TIP3    H250577   0.842   4.045  13.555 -0.5604 -2.2006 -0.4751
 9696TIP3   OH250578   5.164   1.905   1.597 -0.4381 -0.3244 -0.2670
 9696TIP3    H150579   5.194   1.829   1.546 -0.9817 -0.5435 -0.2662
 9696TIP3    H250580   5.233   1.970   1.585 -0.3005 -0.5672 -0.8462
 9697TIP3   OH250581   3.197   2.083   2.925  0.2058  0.5843  0.0215
 9697TIP3    H150582   3.243   1.999   2.933 -0.0712  0.4762  0.5478
 9697TIP3    H250583   3.138   2.084   3.001 -0.9740  0.5223 -0.8780
 9698TIP3   OH250584   2.441   4.882   1.791 -0.0230  0.3910 -0.3928
 9698TIP3    H150585   2.482   4.928   1.864 -0.8515  2.9913 -1.4424
 9698TIP3    H250586   2.367   4.835   1.830  1.2958 -0.7807  0.8270
 9699TIP3   OH250587   6.484   6.123   0.824  0.2281 -0.0366  0.0302
 9699TIP3    H150588   6.419   6.156   0.761 -1.1560 -1.1985  0.8076
 9699TIP3    H250589   6.438   6.119   0.907  1.7189  0.4139  0.9247
 9700TIP3   OH250590   3.690   5.641   0.474 -0.1384 -0.6997  0.2043
 9700TIP3    H150591   3.632   5.571   0.442 -1.4852 -0.5263  2.0470
 9700TIP3    H250592   3.631   5.700   0.521  0.6432  2.7132 -2.6819
 9701TIP3   OH250593   5.052   5.479  12.977  0.1504 -0.2104 -0.3127
 9701TIP3    H150594   4.997   5.558  12.974 -1.5249 -1.3499 -2.3305
 9701TIP3    H250595   5.137   5.510  13.007 -0.8413  2.1171  0.2938
 9702TIP3   OH250596   1.487   5.177   5.594  0.0282  0.8678  0.6760
 9702TIP3    H150597   1.573   5.149   5.625  0.3411  1.5123  0.4061
 9702TIP3    H250598   1.494   5.172   5.499 -0.7874 -0.6894  0.6673
 9703TIP3   OH250599   6.114   5.583   3.572  0.2280  0.0052  0.1025
 9703TIP3    H150600   6.127   5.674   3.597 -1.8029  0.4148 -0.1547
 9703TIP3    H250601   6.174   5.534   3.629 -2.1766  1.1149  3.9485
 9704TIP3   OH250602   4.519   2.729  16.822 -0.1850  0.7455  0.0601
 9704TIP3    H150603   4.586   2.796  16.831 -0.3141  0.7839  0.8092
 9704TIP3    H250604   4.446   2.774  16.778  0.0198  0.8862 -0.1355
 9705TIP3   OH250605   4.530   4.064   2.771 -0.1747 -0.1214  0.1742
 9705TIP3    H150606   4.568   4.083   2.686 -1.0887  0.2345 -0.1653
 9705TIP3    H250607   4.492   4.147   2.800  0.4830 -0.1301  1.1191
 9706TIP3   OH250608   1.397   0.957   3.389  0.2822  0.3332 -0.5138
 9706TIP3    H150609   1.455   0.885   3.365 -0.2468 -0.1938 -0.2583
 9706TIP3    H250610   1.411   0.969   3.483 -3.1472 -2.8470  0.6917
 9707TIP3   OH250611   0.455   6.428  17.455  0.3131  0.4754  0.4897
 9707TIP3    H150612   0.530   6.382  17.419 -0.8069  0.4550 -2.0484
 9707TIP3    H250613   0.405   6.361  17.501 -0.2287 -0.4504 -1.3783
 9708TIP3   OH250614   4.163   2.322  13.197  0.1227  1.1224 -0.7552
 9708TIP3    H150615   4.115   2.399  13.228 -2.0718  0.6084 -2.5872
 9708TIP3    H250616   4.116   2.295  13.118  1.2798 -1.6646 -0.5952
 9709TIP3   OH250617   0.942   6.468   2.399  0.0038  0.6692 -0.9139
 9709TIP3    H150618   0.959   6.376   2.415  1.7636  1.1122 -0.1148
 9709TIP3    H250619   0.881   6.494   2.468  1.3180  0.6469  0.2760
 9710TIP3   OH250620   2.897   1.723   0.045  0.4897 -0.2100  0.0668
 9710TIP3    H150621   2.876   1.745   0.136  2.8682  0.3723  0.5483
 9710TIP3    H250622   2.832   1.658   0.021 -2.5319  2.2474  0.9050
 9711TIP3   OH250623   5.934   1.973  16.594 -0.2463  0.1843  0.4888
 9711TIP3    H150624   5.994   1.911  16.636 -1.1717 -0.3147  1.1236
 9711TIP3    H250625   5.986   2.052  16.580  0.7009 -0.4221  0.5111
 9712TIP3   OH250626   0.767   2.425  12.461  0.2701  0.4350 -0.0819
 9712TIP3    H150627   0.712   2.353  12.493 -0.5136  1.1999  0.3235
 9712TIP3    H250628   0.824   2.384  12.396 -0.2201 -0.5379  0.0795
 9713TIP3   OH250629   4.506   5.935   4.582 -0.5751 -0.4473  0.9543
 9713TIP3    H150630   4.448   5.859   4.580  1.1548 -1.8347  0.8560
 9713TIP3    H250631   4.594   5.899   4.571  0.1519  1.8372 -2.9497
 9714TIP3   OH250632   0.154   1.221  13.385  0.3551  0.8590 -0.4921
 9714TIP3    H150633   0.113   1.304  13.411  0.0733  0.1572  1.4447
 9714TIP3    H250634   0.094   1.154  13.418  1.3419 -0.1439 -0.7001
 9715TIP3   OH250635   5.224   3.443   0.562  0.2883 -0.1920  0.0277
 9715TIP3    H150636   5.170   3.365   0.568  0.0086  0.0173  0.2726
 9715TIP3    H250637   5.235   3.458   0.468  0.2914 -0.4875 -0.0182
 9716TIP3   OH250638   2.120   6.174  14.031  0.0473  0.0766 -0.1491
 9716TIP3    H150639   2.116   6.198  14.124 -1.1035 -0.1630 -0.1285
 9716TIP3    H250640   2.033   6.139  14.011 -0.3071  1.7535 -1.7737
 9717TIP3   OH250641   3.300   2.460   5.840  0.2225 -0.3872  0.2197
 9717TIP3    H150642   3.319   2.541   5.887  1.0387  0.0145 -0.7759
 9717TIP3    H250643   3.356   2.394   5.881  0.0595 -0.3092  0.5756
 9718TIP3   OH250644   5.089   4.967  13.123  0.3525  0.5220  0.9797
 9718TIP3    H150645   5.117   4.959  13.215  1.1950  3.9375  1.1570
 9718TIP3    H250646   5.000   5.001  13.129 -0.3679 -1.1824  0.4523
 9719TIP3   OH250647   0.055   6.068   2.764 -0.2517  0.5083 -0.5180
 9719TIP3    H150648  -0.030   6.074   2.806  1.0023  2.2244  2.0482
 9719TIP3    H250649   0.071   5.974   2.755 -0.2876 -0.1277  3.8930
 9720TIP3   OH250650   1.486   6.462   3.901 -0.1549  0.3179  1.0610
 9720TIP3    H150651   1.396   6.485   3.923 -0.1521 -0.4993  1.9482
 9720TIP3    H250652   1.483   6.369   3.881 -0.1275  0.9079 -2.3195
 9721TIP3   OH250653   3.095   2.403  12.871 -0.2347 -0.3172  0.8597
 9721TIP3    H150654   3.062   2.431  12.957 -0.4945 -2.2120  1.4246
 9721TIP3    H250655   3.125   2.484  12.830 -0.6858  0.7331  2.4749
 9722TIP3   OH250656   2.202   6.054  15.716 -0.3759 -0.0263  0.0718
 9722TIP3    H150657   2.279   5.997  15.713 -0.9620 -0.8079 -1.3922
 9722TIP3    H250658   2.159   6.032  15.799 -0.6031 -1.7820 -0.4708
 9723TIP3   OH250659   5.750   0.231   0.307  0.6007  0.7886  0.0657
 9723TIP3    H150660   5.723   0.200   0.221 -0.6350  0.4185  0.5696
 9723TIP3    H250661   5.836   0.272   0.292  0.5270  0.4890 -1.2776
 9724TIP3   OH250662   5.444   3.649  14.225 -0.1170  0.0458 -0.0710
 9724TIP3    H150663   5.398   3.725  14.260  2.3030  1.2561  0.6471
 9724TIP3    H250664   5.441   3.585  14.296 -1.9684 -0.5455 -0.6009
 9725TIP3   OH250665   3.295   1.551  11.746  0.0786 -0.6663 -0.6929
 9725TIP3    H150666   3.325   1.538  11.655 -1.3695  1.4479 -1.5659
 9725TIP3    H250667   3.200   1.548  11.740 -0.0572 -3.4281  1.3504
 9726TIP3   OH250668   5.905   3.820   1.721 -0.5109  0.2240  0.0752
 9726TIP3    H150669   5.945   3.897   1.680  0.5039  0.1476  0.8797
 9726TIP3    H250670   5.822   3.852   1.755 -0.1659  0.9400  0.2724
 9727TIP3   OH250671   6.728   2.104   4.266  0.1565  0.6849  0.3541
 9727TIP3    H150672   6.747   2.172   4.201 -1.2489  0.2592 -0.5683
 9727TIP3    H250673   6.802   2.044   4.261 -0.4371  0.0287 -1.7610
 9728TIP3   OH250674   0.115   4.586  15.519  0.2417 -0.7304 -0.5965
 9728TIP3    H150675   0.042   4.643  15.543  0.2487 -0.7404 -0.5526
 9728TIP3    H250676   0.187   4.646  15.499  0.7489 -0.7660  1.0304
 9729TIP3   OH250677   1.926   1.972  16.899 -0.4233  0.3516  0.3287
 9729TIP3    H150678   1.891   2.003  16.982 -0.4539  0.0898  0.4144
 9729TIP3    H250679   1.861   1.998  16.833  0.4364  2.1308  0.1460
 9730TIP3   OH250680   6.297   2.001  14.109 -0.6028 -0.3758  0.0528
 9730TIP3    H150681   6.370   2.055  14.081 -1.4706  0.6782 -0.2192
 9730TIP3    H250682   6.338   1.927  14.154  0.6129  0.3230  0.1270
 9731TIP3   OH250683   6.745   2.987  15.648 -0.5103 -0.4210 -0.2954
 9731TIP3    H150684   6.651   2.969  15.654 -1.8261  4.8200 -0.5468
 9731TIP3    H250685   6.765   2.982  15.555 -1.4351  1.3674 -0.6432
 9732TIP3   OH250686   0.782   4.974  14.353  0.0623 -0.0403 -0.3718
 9732TIP3    H150687   0.734   5.015  14.281  1.0398 -1.1306 -1.7010
 9732TIP3    H250688   0.781   4.880  14.333  1.4902 -0.2392  0.3028
 9733TIP3   OH250689   3.414   6.258  11.278  0.2506 -0.0082 -0.5877
 9733TIP3    H150690   3.412   6.198  11.352  0.0510 -0.5288 -1.0091
 9733TIP3    H250691   3.456   6.208  11.208 -0.1729  0.2445 -1.0289
 9734TIP3   OH250692   4.499   5.095   3.177  0.0956 -0.1035 -0.1623
 9734TIP3    H150693   4.534   5.013   3.212 -0.0442  0.9699  2.7516
 9734TIP3    H250694   4.575   5.153   3.171 -0.1754  0.2798  0.0902
 9735TIP3   OH250695   2.251   2.060  14.559 -0.0516 -0.4655 -0.1858
 9735TIP3    H150696   2.159   2.037  14.573 -0.2789  0.1139 -0.6964
 9735TIP3    H250697   2.253   2.099  14.472  0.7953 -1.1027 -0.4665
 9736TIP3   OH250698   0.349   3.203  13.620  0.9565 -0.1449 -0.0300
 9736TIP3    H150699   0.432   3.157  13.631  0.1568 -2.0687 -1.3788
 9736TIP3    H250700   0.356   3.243  13.533  0.1388 -1.2291 -0.6336
 9737TIP3   OH250701   2.665   1.253  10.982 -0.5422 -0.0274 -0.2923
 9737TIP3    H150702   2.727   1.311  10.938 -1.2842 -0.5887 -2.1889
 9737TIP3    H250703   2.591   1.308  11.004 -0.6918  0.0303 -0.9097
 9738TIP3   OH250704   6.018   0.017  15.790  0.1067  0.3058  0.3499
 9738TIP3    H150705   6.078  -0.042  15.743  1.5292  0.4914  1.8133
 9738TIP3    H250706   6.063   0.101  15.790 -1.0607  0.9483 -0.1367
 9739TIP3   OH250707   1.910   6.022  14.720 -0.2062  0.1954 -0.1752
 9739TIP3    H150708   1.952   6.091  14.771  0.9766  0.3110 -1.2569
 9739TIP3    H250709   1.842   6.067  14.670 -0.2341  0.3688  0.0197
 9740TIP3   OH250710   0.897   1.330  15.429  0.0692  0.2174 -0.4751
 9740TIP3    H150711   0.886   1.242  15.392  0.5900  0.3294 -0.9025
 9740TIP3    H250712   0.927   1.313  15.519 -1.3831 -0.0522 -0.0082
 9741TIP3   OH250713   3.106   5.491   2.237 -0.3455 -0.4871  0.3983
 9741TIP3    H150714   3.162   5.487   2.315 -0.4206  0.2088  0.4880
 9741TIP3    H250715   3.104   5.400   2.205  3.3026 -0.1163 -1.4108
 9742TIP3   OH250716   0.705   3.238  11.686  0.4627  0.4279 -0.3522
 9742TIP3    H150717   0.644   3.255  11.614 -1.2654 -1.9560  0.3921
 9742TIP3    H250718   0.663   3.167  11.736  3.2186 -0.3783  1.0227
 9743TIP3   OH250719   4.819   0.532  16.486  0.2392  0.4382 -0.3515
 9743TIP3    H150720   4.880   0.489  16.426 -0.1784 -0.1699 -0.3515
 9743TIP3    H250721   4.804   0.618  16.448 -0.8564 -0.3158 -1.7230
 9744TIP3   OH250722   4.360   2.407  14.258 -0.0394 -0.1518  0.3004
 9744TIP3    H150723   4.312   2.386  14.338 -1.5306  0.7767 -0.3076
 9744TIP3    H250724   4.353   2.328  14.204  0.1176 -0.4243  0.6735
 9745TIP3   OH250725   1.571   4.359   5.563 -0.1337 -0.0288  0.5859
 9745TIP3    H150726   1.525   4.279   5.587  1.5972 -1.2489  0.0300
 9745TIP3    H250727   1.546   4.374   5.472  0.9531 -1.0482  0.0797
 9746TIP3   OH250728   1.295   2.960   0.521 -0.2199  0.1011 -0.0774
 9746TIP3    H150729   1.248   3.039   0.545 -1.1054 -0.5930  0.5661
 9746TIP3    H250730   1.343   2.983   0.441  0.5979  1.6548  0.8073
 9747TIP3   OH250731   1.490   0.512  13.002 -0.1654  0.1134 -0.2914
 9747TIP3    H150732   1.495   0.566  12.923  0.1124 -0.1542 -0.4600
 9747TIP3    H250733   1.477   0.574  13.073  0.1780  0.4081 -0.4810
 9748TIP3   OH250734   4.554   6.535  12.065 -0.2480 -0.1339 -0.0346
 9748TIP3    H150735   4.635   6.523  12.015  0.8396  1.8170  1.1197
 9748TIP3    H250736   4.582   6.569  12.150 -2.3084  1.6357  0.0399
 9749TIP3   OH250737   3.815   4.561  12.361 -0.6805  0.1922  0.3756
 9749TIP3    H150738   3.831   4.651  12.333  1.4546 -0.6498 -1.3489
 9749TIP3    H250739   3.856   4.555  12.447 -1.6742  1.0695  0.9470
 9750TIP3   OH250740   5.209   0.418  15.137 -0.1390 -0.3500  0.2122
 9750TIP3    H150741   5.210   0.440  15.231 -3.8135  1.1782  0.0432
 9750TIP3    H250742   5.201   0.323  15.135 -0.4885 -0.3658  1.4524
 9751TIP3   OH250743   6.126   3.011   2.869  0.6119 -0.4983  0.3823
 9751TIP3    H150744   6.176   3.066   2.929 -2.3282 -0.3700  2.9719
 9751TIP3    H250745   6.149   2.921   2.894  0.4903 -0.4466  0.6777
 9752TIP3   OH250746   4.064   5.070  15.141 -0.2434  0.2093 -0.2300
 9752TIP3    H150747   4.119   5.054  15.218 -1.6416 -0.6025  0.6500
 9752TIP3    H250748   4.011   4.990  15.133 -1.1044  0.8543 -1.1877
 9753TIP3   OH250749   4.997   1.635   1.116  0.2326  0.3881  0.5792
 9753TIP3    H150750   5.001   1.693   1.040 -0.2866 -1.3506 -0.8335
 9753TIP3    H250751   5.043   1.556   1.088  1.3378  0.2332  2.6183
 9754TIP3   OH250752   1.000   1.622  13.881  0.4777  0.2330  0.0071
 9754TIP3    H150753   1.078   1.674  13.902 -0.8572  1.6652  1.7309
 9754TIP3    H250754   0.953   1.674  13.816 -0.5748  0.9303  1.3018
 9755TIP3   OH250755   2.795   3.815  11.623 -0.6009  0.0212 -0.5612
 9755TIP3    H150756   2.805   3.906  11.650 -0.1371 -0.6016  1.6184
 9755TIP3    H250757   2.715   3.814  11.570  0.4629  1.9791 -2.3424
 9756TIP3   OH250758   0.215   4.558  12.690  0.8341  0.4972 -0.8760
 9756TIP3    H150759   0.133   4.575  12.644 -0.0638 -2.9242 -0.7879
 9756TIP3    H250760   0.269   4.509  12.628  1.3381 -0.4484  0.2655
 9757TIP3   OH250761   6.193   4.604  13.090  0.3927  0.3465 -0.3157
 9757TIP3    H150762   6.278   4.584  13.129  0.3224 -0.7638 -0.7148
 9757TIP3    H250763   6.137   4.530  13.113 -0.3074  0.7779 -0.5749
 9758TIP3   OH250764   0.897   3.106   0.024 -0.4365  0.1469 -0.4808
 9758TIP3    H150765   0.957   3.042  -0.014 -0.9068 -0.1460 -0.7310
 9758TIP3    H250766   0.954   3.167   0.071  0.4105  1.7073 -3.2854
 9759TIP3   OH250767   1.127   0.170  15.803  0.4017  0.0432  0.0753
 9759TIP3    H150768   1.131   0.169  15.899  1.7871  1.0683  0.0583
 9759TIP3    H250769   1.115   0.262  15.780  0.6376 -0.1243 -0.7607
 9760TIP3   OH250770   1.101   0.830   2.939  0.0510 -0.3238 -0.6414
 9760TIP3    H150771   1.076   0.765   2.873 -0.9614 -1.4767  0.7980
 9760TIP3    H250772   1.055   0.802   3.019  1.6126  0.7141  0.7006
 9761TIP3   OH250773   3.245   2.663  16.513  0.0026 -0.1718 -0.1655
 9761TIP3    H150774   3.232   2.609  16.591 -0.1055 -1.5028 -1.0807
 9761TIP3    H250775   3.339   2.664  16.499 -0.0317 -0.5616 -0.4407
 9762TIP3   OH250776   4.936   4.647  12.157 -0.3095 -0.2632 -0.1099
 9762TIP3    H150777   4.990   4.568  12.163 -1.0385 -0.9112 -1.4486
 9762TIP3    H250778   4.867   4.634  12.222 -0.2531 -0.5958 -0.1147
 9763TIP3   OH250779   0.157   1.630   3.489  0.0933 -0.5958  0.1617
 9763TIP3    H150780   0.207   1.709   3.510  0.6571 -1.2950  1.5199
 9763TIP3    H250781   0.071   1.645   3.528 -0.3485 -0.0021 -0.9640
 9764TIP3   OH250782   3.202   3.215   5.983 -0.0596 -0.1531  0.3914
 9764TIP3    H150783   3.137   3.227   6.052 -1.5901  2.7719 -1.3922
 9764TIP3    H250784   3.157   3.160   5.918  0.8029 -1.5445  0.9208
 9765TIP3   OH250785   4.464   4.940   4.106 -0.5066  0.6041 -0.4671
 9765TIP3    H150786   4.444   5.000   4.178  1.4372 -0.2566  0.8724
 9765TIP3    H250787   4.556   4.955   4.087 -0.6369 -0.1759 -1.8544
 9766TIP3   OH250788   5.467   3.662   1.264 -0.2954  0.0960 -0.1614
 9766TIP3    H150789   5.436   3.750   1.242  1.3517  0.9185  0.6478
 9766TIP3    H250790   5.560   3.674   1.285 -0.4098 -1.5861  1.5152
 9767TIP3   OH250791   5.120   6.344   1.674  0.2486 -0.0621  0.2344
 9767TIP3    H150792   5.185   6.321   1.740  0.9752 -0.4790 -0.6087
 9767TIP3    H250793   5.081   6.261   1.648 -0.6492  0.1823  0.7404
 9768TIP3   OH250794   0.782   5.437   5.731 -0.0479 -0.0505  0.2248
 9768TIP3    H150795   0.775   5.386   5.651 -0.0154  1.5403 -0.8329
 9768TIP3    H250796   0.738   5.384   5.798 -0.4059 -1.2254 -0.9157
 9769TIP3   OH250797   2.130   4.291  13.337 -0.1815 -0.5916 -0.7940
 9769TIP3    H150798   2.186   4.251  13.403 -0.9696  0.0435  0.2961
 9769TIP3    H250799   2.164   4.379  13.326 -2.7905  1.0720  2.3976
 9770TIP3   OH250800   0.794   5.463  12.613 -0.4711 -0.1387 -0.2438
 9770TIP3    H150801   0.814   5.483  12.522  0.4182  1.0288  0.1841
 9770TIP3    H250802   0.828   5.374  12.627 -0.2162 -0.1506 -0.9260
 9771TIP3   OH250803   2.324   0.540   5.254  0.1731 -0.0854 -0.8901
 9771TIP3    H150804   2.236   0.504   5.252  0.5465 -1.0319 -0.8160
 9771TIP3    H250805   2.376   0.479   5.202  0.8524  0.2699 -0.6399
 9772TIP3   OH250806   2.980   4.961   1.102  0.1174 -0.1024 -0.2371
 9772TIP3    H150807   3.070   4.984   1.124 -0.0375  0.3752 -0.0892
 9772TIP3    H250808   2.987   4.879   1.054  0.6918  0.2839 -0.8276
 9773TIP3   OH250809   2.635   4.221  12.149  0.0887 -0.1139 -0.0493
 9773TIP3    H150810   2.693   4.198  12.222  1.7421 -0.0033 -1.2862
 9773TIP3    H250811   2.629   4.141  12.097 -1.4138 -0.3120  0.3663
 9774TIP3   OH250812   3.035   5.242  16.559 -0.2762 -0.1408  0.1569
 9774TIP3    H150813   3.070   5.318  16.513  0.2334 -0.8255 -0.6235
 9774TIP3    H250814   2.955   5.221  16.512  0.7605 -1.4486 -1.1030
 9775TIP3   OH250815   0.532   6.131  16.248  0.4638 -0.1976  0.6910
 9775TIP3    H150816   0.559   6.099  16.334  0.4788  0.1128  0.8023
 9775TIP3    H250817   0.445   6.168  16.262  0.0253 -1.0693  0.3611
 9776TIP3   OH250818   2.098   4.785   1.544 -0.1324  0.2651  0.0556
 9776TIP3    H150819   2.094   4.880   1.547  2.1306  0.3879  0.4112
 9776TIP3    H250820   2.104   4.764   1.451  0.3196  0.5261  0.0242
 9777TIP3   OH250821   0.522   0.938  10.776  0.2171  0.3972 -0.3683
 9777TIP3    H150822   0.563   0.937  10.690  1.2785  2.1055  0.0622
 9777TIP3    H250823   0.429   0.931  10.759  0.5090 -1.1810 -1.5171
 9778TIP3   OH250824   6.658   5.197   3.437 -0.1366 -0.5279  0.3856
 9778TIP3    H150825   6.643   5.105   3.458 -0.1430 -0.6503 -0.1413
 9778TIP3    H250826   6.574   5.227   3.401 -0.6026  0.0811  1.9143
 9779TIP3   OH250827   1.419   6.670  16.594 -0.2425 -0.4243 -0.0259
 9779TIP3    H150828   1.373   6.703  16.672 -1.0582 -1.2924 -0.1188
 9779TIP3    H250829   1.501   6.634  16.628  0.2013  0.7606  0.2006
 9780TIP3   OH250830   0.435   3.673  15.148  0.1749 -0.3970  0.0565
 9780TIP3    H150831   0.444   3.749  15.091 -0.8489 -0.5359 -0.3116
 9780TIP3    H250832   0.341   3.671  15.170  0.4790 -0.5499  1.4528
 9781TIP3   OH250833   2.914   1.400  14.629 -0.0832  0.2607  0.4315
 9781TIP3    H150834   2.940   1.426  14.540 -2.6846  0.1783 -0.4205
 9781TIP3    H250835   2.852   1.467  14.656  2.2021  1.5066  3.1507
 9782TIP3   OH250836   1.011   3.651  17.368  0.2783  0.4467 -0.3514
 9782TIP3    H150837   0.953   3.612  17.302  0.0531  0.6342 -0.2666
 9782TIP3    H250838   0.952   3.701  17.424  0.5700  0.9338 -0.4770
 9783TIP3   OH250839   0.224   5.863   1.557 -0.2448  1.2256  0.8080
 9783TIP3    H150840   0.260   5.948   1.531 -1.6361  2.4379  2.6137
 9783TIP3    H250841   0.201   5.821   1.474  2.6859  1.5018 -0.2725
 9784TIP3   OH250842   6.542   2.782   6.067  0.6155  0.3267 -0.1304
 9784TIP3    H150843   6.474   2.848   6.066 -0.6572 -0.9387  0.2982
 9784TIP3    H250844   6.499   2.703   6.099  2.6243 -0.1418  1.6446
 9785TIP3   OH250845   0.253   5.412  14.835  0.1572  0.2052  0.1899
 9785TIP3    H150846   0.348   5.417  14.837  0.1823  0.1812 -0.6007
 9785TIP3    H250847   0.225   5.495  14.794 -0.2413  0.8591  1.7323
 9786TIP3   OH250848   5.537   5.762   2.076 -0.1202 -0.4805 -0.1182
 9786TIP3    H150849   5.630   5.771   2.053 -0.2842  1.2163 -0.2317
 9786TIP3    H250850   5.527   5.670   2.101  1.1401 -1.1955 -2.0725
 9787TIP3   OH250851   6.704   3.936  15.050 -0.4310 -0.2776 -0.3151
 9787TIP3    H150852   6.660   3.856  15.021 -0.6454 -0.2923  0.0370
 9787TIP3    H250853   6.707   3.927  15.146  1.0400 -0.6524 -0.3776
 9788TIP3   OH250854   3.838   2.445  14.165 -0.5817 -0.2805  0.0856
 9788TIP3    H150855   3.759   2.488  14.132  0.4320  1.3504 -0.3295
 9788TIP3    H250856   3.843   2.471  14.257  1.4775  2.9389 -0.7941
 9789TIP3   OH250857   1.298   2.676  12.009  0.0015  0.5119  0.2787
 9789TIP3    H150858   1.302   2.772  12.004  1.8155  0.4637 -0.1006
 9789TIP3    H250859   1.385   2.648  11.980  0.7873 -1.1025  3.7021
 9790TIP3   OH250860   0.158   6.728   6.515 -0.1253 -0.1863  0.1715
 9790TIP3    H150861   0.200   6.719   6.600 -1.8050  1.3766  1.2510
 9790TIP3    H250862   0.137   6.639   6.488 -0.0756 -0.6705  1.6660
 9791TIP3   OH250863   2.758   0.480  16.462  0.3411  0.0398 -0.1489
 9791TIP3    H150864   2.795   0.537  16.529  0.8430 -0.3170 -0.1238
 9791TIP3    H250865   2.699   0.537  16.412  1.5148  0.8120 -0.6916
 9792TIP3   OH250866   3.678   3.460   1.416 -0.3746  0.0599  0.3261
 9792TIP3    H150867   3.624   3.525   1.460 -0.2604  0.8459 -0.6639
 9792TIP3    H250868   3.626   3.379   1.420 -1.8778  0.9126 -1.0647
 9793TIP3   OH250869   1.842   0.023   2.847  0.3023 -0.8442  0.1998
 9793TIP3    H150870   1.900   0.099   2.842  0.1636 -0.7544 -0.0552
 9793TIP3    H250871   1.890  -0.041   2.899  0.9149 -1.0260 -0.5840
 9794TIP3   OH250872   0.881   4.571  14.656 -0.6982  0.8044 -0.4026
 9794TIP3    H150873   0.890   4.478  14.636 -1.1130  0.5085  0.7398
 9794TIP3    H250874   0.854   4.611  14.573 -1.9449 -0.3168 -0.5637
 9795TIP3   OH250875   2.908   1.966   6.293  0.0581 -0.3892 -0.0016
 9795TIP3    H150876   2.952   2.010   6.365 -0.3033  0.1923 -0.1262
 9795TIP3    H250877   2.817   1.959   6.321 -0.1405  0.0835 -0.5082
 9796TIP3   OH250878   1.941   0.044   4.350  0.0948  0.4100  0.0677
 9796TIP3    H150879   1.992  -0.014   4.406 -0.0611 -0.1234 -0.3276
 9796TIP3    H250880   1.871  -0.012   4.317  1.1745  0.2033 -2.0520
 9797TIP3   OH250881   1.588   1.642   4.554  0.5069  0.2342 -0.2262
 9797TIP3    H150882   1.502   1.674   4.525  0.1522  0.0005  0.5569
 9797TIP3    H250883   1.640   1.722   4.566 -0.2891  0.5580  1.4414
 9798TIP3   OH250884   1.347   4.283   2.277 -0.0397  0.4523 -0.1003
 9798TIP3    H150885   1.343   4.303   2.183  1.5336  1.5144  0.0151
 9798TIP3    H250886   1.269   4.325   2.314  0.0060  1.1470 -0.7631
 9799TIP3   OH250887   1.585   1.887   3.980  0.2194  0.0409 -0.2423
 9799TIP3    H150888   1.497   1.872   4.015  0.2843  1.2229  0.4748
 9799TIP3    H250889   1.588   1.834   3.900 -0.9301 -0.4769  0.0359
 9800TIP3   OH250890   0.119   1.462   0.398 -0.6619  0.3942 -0.5649
 9800TIP3    H150891   0.045   1.446   0.340 -1.5055  1.7717  0.0525
 9800TIP3    H250892   0.171   1.382   0.395 -3.1838 -1.4030  0.4431
 9801TIP3   OH250893   6.091   0.360   5.446  0.1708  0.6059 -0.3695
 9801TIP3    H150894   6.141   0.361   5.528 -1.3893  0.8804  0.6277
 9801TIP3    H250895   6.069   0.267   5.433 -0.7247  0.7029  0.2957
 9802TIP3   OH250896   1.524   2.700  11.777  0.4388 -0.3718 -0.5922
 9802TIP3    H150897   1.563   2.769  11.831  0.0307 -0.7085  0.1371
 9802TIP3    H250898   1.556   2.618  11.815 -2.7150 -0.8055  1.5442
 9803TIP3   OH250899   0.343   5.289  17.347 -0.0787  0.1227  0.0226
 9803TIP3    H150900   0.370   5.237  17.423  0.5213  1.4483  0.7603
 9803TIP3    H250901   0.425   5.310  17.302 -0.5099 -1.6958 -1.7729
 9804TIP3   OH250902   2.168   2.749   4.477 -0.5783  0.4902  0.1624
 9804TIP3    H150903   2.133   2.661   4.485 -0.8707  0.5808 -0.1102
 9804TIP3    H250904   2.244   2.750   4.536 -1.5041  0.5463  1.3855
 9805TIP3   OH250905   3.153   2.686   7.172  0.4389  0.6511 -0.0215
 9805TIP3    H150906   3.067   2.709   7.207 -0.5277 -0.5472 -1.4174
 9805TIP3    H250907   3.182   2.764   7.125 -0.3618  0.7691 -0.3462
 9806TIP3   OH250908   1.574   3.868   2.874 -0.2427  0.1531  0.0060
 9806TIP3    H150909   1.537   3.782   2.855  0.1512 -0.2138  0.8590
 9806TIP3    H250910   1.543   3.924   2.803  0.5865 -0.9856 -1.3091
 9807TIP3   OH250911   2.198   3.806   4.279  0.1768  0.2935 -0.1500
 9807TIP3    H150912   2.236   3.787   4.365  0.2905  1.7150  0.1390
 9807TIP3    H250913   2.203   3.902   4.271  2.9579  0.1147 -2.9680
 9808TIP3   OH250914   0.616   5.657  16.586 -0.1403 -0.1984  0.4252
 9808TIP3    H150915   0.614   5.561  16.593  0.0686 -0.5596 -2.8843
 9808TIP3    H250916   0.704   5.681  16.616  0.4300 -1.2728 -0.2911
 9809TIP3   OH250917   2.074   4.945   6.756  0.2173 -0.2003  0.5214
 9809TIP3    H150918   2.015   4.870   6.745 -0.8499  0.7320 -0.3416
 9809TIP3    H250919   2.150   4.909   6.803 -0.8096 -1.5399  1.2301
 9810TIP3   OH250920   3.061   2.348   2.549 -0.0171 -0.2307  0.1571
 9810TIP3    H150921   3.156   2.350   2.541 -0.0679 -2.0889 -1.5311
 9810TIP3    H250922   3.035   2.440   2.546  1.5949  0.2189 -1.5037
 9811TIP3   OH250923   6.715   1.392   0.192 -0.2382  0.4552 -0.2015
 9811TIP3    H150924   6.694   1.344   0.112 -0.9874  2.4525 -1.2404
 9811TIP3    H250925   6.634   1.390   0.243 -0.6455  1.5760 -0.7752
 9812TIP3   OH250926   3.725   1.577  12.979  0.7396  0.1658 -0.2933
 9812TIP3    H150927   3.798   1.638  12.975  0.5868  0.3651 -0.0407
 9812TIP3    H250928   3.685   1.582  12.892  0.0170  1.3052  0.0869
 9813TIP3   OH250929   3.766   4.875   0.360 -0.2259  0.4957  0.0404
 9813TIP3    H150930   3.756   4.899   0.452 -1.3566  0.4916 -0.0655
 9813TIP3    H250931   3.860   4.872   0.346 -0.0046  2.9899  0.5536
 9814TIP3   OH250932   4.357   3.872   4.467  0.4801  0.0718  0.4494
 9814TIP3    H150933   4.286   3.808   4.472 -0.8442  1.4244 -0.3147
 9814TIP3    H250934   4.320   3.952   4.504  1.8787  0.6029  0.7644
 9815TIP3   OH250935   1.493   6.098   4.970 -0.0936  0.0155 -0.2117
 9815TIP3    H150936   1.401   6.111   4.995 -0.1440 -2.6629  1.4572
 9815TIP3    H250937   1.491   6.026   4.908  0.7539  1.6076 -2.2068
 9816TIP3   OH250938   3.061   1.188  13.408  0.1401  0.0386  0.1067
 9816TIP3    H150939   3.093   1.214  13.321 -1.5608 -0.0756 -0.5833
 9816TIP3    H250940   2.986   1.245  13.423 -0.1732 -0.6204  1.0815
 9817TIP3   OH250941   1.473   2.093   0.704 -0.1046 -0.0027  0.0191
 9817TIP3    H150942   1.549   2.083   0.762 -2.7269 -2.6890  3.5196
 9817TIP3    H250943   1.431   2.174   0.733 -0.2585 -0.2145  0.4001
 9818TIP3   OH250944   2.218   3.455  16.105  0.4142 -0.2700 -0.3383
 9818TIP3    H150945   2.204   3.444  16.011 -0.4991 -1.1422 -0.1127
 9818TIP3    H250946   2.297   3.405  16.123  1.1199  0.6516 -0.7815
 9819TIP3   OH250947   6.735   5.490  12.144  0.0845  0.3592 -0.6176
 9819TIP3    H150948   6.664   5.430  12.163  0.9285 -0.5755 -0.3457
 9819TIP3    H250949   6.795   5.440  12.089  1.4897  0.4508  0.7520
 9820TIP3   OH250950   2.867   3.038  12.500 -0.3715 -0.0987 -0.2946
 9820TIP3    H150951   2.837   3.004  12.416 -2.8797  0.7415  0.1532
 9820TIP3    H250952   2.809   2.996  12.564  1.6727 -0.9576  1.0982
 9821TIP3   OH250953   3.774   4.013   4.505  0.0160 -0.2380 -0.1184
 9821TIP3    H150954   3.847   4.027   4.566  0.5205  1.4651 -1.0376
 9821TIP3    H250955   3.805   4.050   4.422 -1.6455 -0.0915 -0.7079
 9822TIP3   OH250956   5.458   5.687   3.965 -0.0718 -0.4409 -0.1044
 9822TIP3    H150957   5.445   5.714   4.056 -0.8195  0.5157 -0.4706
 9822TIP3    H250958   5.547   5.713   3.944 -1.0120  2.8060 -0.7097
 9823TIP3   OH250959   3.118   1.998  12.027 -0.3602 -0.0886  0.1490
 9823TIP3    H150960   3.130   2.070  11.966  0.1465  1.7605  2.2922
 9823TIP3    H250961   3.024   1.983  12.028 -0.3641 -0.2413 -1.1413
 9824TIP3   OH250962   1.133   5.765   3.463  0.3328  0.4072  0.8315
 9824TIP3    H150963   1.198   5.829   3.491 -0.1484  1.3148 -0.0597
 9824TIP3    H250964   1.070   5.816   3.412 -1.3178 -0.3584  2.0182
 9825TIP3   OH250965   5.161   2.410   0.818 -0.5045 -0.4633  0.4935
 9825TIP3    H150966   5.105   2.406   0.741  1.2956  0.6777 -0.9482
 9825TIP3    H250967   5.182   2.319   0.837 -0.9779 -0.7545 -0.3425
 9826TIP3   OH250968   4.315   1.002  14.153  0.0251  0.1495  0.1159
 9826TIP3    H150969   4.326   1.091  14.119 -0.7185  0.6057  1.0378
 9826TIP3    H250970   4.238   1.007  14.210 -1.4469 -1.6159 -1.5814
 9827TIP3   OH250971   2.328   6.201  12.926 -0.7198  0.4384  0.0783
 9827TIP3    H150972   2.412   6.231  12.958 -1.1316  0.7601  0.8883
 9827TIP3    H250973   2.281   6.173  13.004 -0.9882 -0.7287 -0.4637
 9828TIP3   OH250974   5.818   4.656  13.613 -0.3728  0.3119 -0.1146
 9828TIP3    H150975   5.806   4.637  13.706 -0.8822 -0.9888 -0.4323
 9828TIP3    H250976   5.896   4.607  13.588 -1.6219 -1.3525 -0.9142
 9829TIP3   OH250977   4.304   0.169  13.290  0.2833  0.1520 -0.2055
 9829TIP3    H150978   4.385   0.211  13.320  0.6444  0.1500 -1.1467
 9829TIP3    H250979   4.268   0.128  13.369  0.7465  0.8871  0.4025
 9830TIP3   OH250980   2.047   4.957   4.105  0.4745  0.0650 -0.1555
 9830TIP3    H150981   1.954   4.978   4.116  0.6584  0.3506  1.0771
 9830TIP3    H250982   2.048   4.868   4.072 -0.2648 -1.3702  3.2451
 9831TIP3   OH250983   2.192   4.497  13.621  0.3237  0.1481 -0.3274
 9831TIP3    H150984   2.139   4.577  13.619 -0.2680 -0.1842  0.8391
 9831TIP3    H250985   2.142   4.437  13.676  2.0395 -0.0669  1.0977
 9832TIP3   OH250986   0.627   2.415  13.953  0.6552  0.4064 -0.0080
 9832TIP3    H150987   0.666   2.375  13.876  0.8807  1.4055 -0.4258
 9832TIP3    H250988   0.696   2.471  13.989  1.6753 -2.3105  2.7379
 9833TIP3   OH250989   1.019   1.178  13.402  0.4781  0.7794  0.1340
 9833TIP3    H150990   1.084   1.163  13.470  1.4812  0.2623 -0.9254
 9833TIP3    H250991   0.935   1.168  13.447  1.0901  2.2132  1.6920
 9834TIP3   OH250992   6.684   5.718  15.753  0.7688 -0.2366  0.0817
 9834TIP3    H150993   6.767   5.764  15.743 -0.4754  1.8413 -1.4645
 9834TIP3    H250994   6.689   5.647  15.689  0.6541  1.0170 -1.3556
 9835TIP3   OH250995   0.615   2.959  13.708 -0.0768 -0.0251 -0.3316
 9835TIP3    H150996   0.591   2.919  13.625 -1.9487 -0.5536  0.4236
 9835TIP3    H250997   0.595   2.893  13.774 -0.9217  1.2348  0.7347
 9836TIP3   OH250998   3.998   6.525  13.001 -0.0470  0.1231  0.2937
 9836TIP3    H150999   3.998   6.439  13.044 -1.5664 -0.1306 -0.1371
 9836TIP3    H251000   4.084   6.562  13.020  0.0948 -0.8734  1.7369
 9837TIP3   OH251001   3.144   6.210  17.364 -0.5300 -0.2953 -0.4620
 9837TIP3    H151002   3.107   6.127  17.393  0.7188 -0.3350  1.1410
 9837TIP3    H251003   3.145   6.265  17.442  2.0287 -0.0666 -0.5728
 9838TIP3   OH251004   3.579   3.031   3.741  0.1628  0.5527  0.1743
 9838TIP3    H151005   3.658   3.020   3.794  0.7264  2.3287 -0.2146
 9838TIP3    H251006   3.513   3.063   3.802 -0.2727 -0.8727  0.4869
 9839TIP3   OH251007   1.745   1.546  13.663 -0.7183  0.4405 -0.3954
 9839TIP3    H151008   1.805   1.516  13.595 -0.2167  0.5296 -0.0021
 9839TIP3    H251009   1.768   1.492  13.739 -0.7385  0.8777 -0.0770
 9840TIP3   OH251010   3.993   0.401   1.017  0.4513  0.3350 -0.0272
 9840TIP3    H151011   4.080   0.379   1.049 -0.1939 -0.5530  1.2029
 9840TIP3    H251012   4.004   0.410   0.923  1.8765  0.2537  0.1083
 9841TIP3   OH251013   6.066   2.975  16.928 -0.4109 -0.0244 -0.2627
 9841TIP3    H151014   6.154   3.009  16.909  0.3399 -0.9047  1.3906
 9841TIP3    H251015   6.045   3.011  17.014 -1.1064 -0.8567 -0.0706
 9842TIP3   OH251016   2.869   1.758   1.603 -0.0372  0.0659  0.0558
 9842TIP3    H151017   2.861   1.823   1.534  0.8788  1.6373  1.3638
 9842TIP3    H251018   2.783   1.715   1.606 -0.7288  1.3441 -0.7064
 9843TIP3   OH251019   4.792   6.695  14.047  0.0630 -0.2333  0.0715
 9843TIP3    H151020   4.834   6.647  13.976 -0.4529 -0.4509 -0.0838
 9843TIP3    H251021   4.701   6.704  14.020  0.1769  0.9556  0.0311
 9844TIP3   OH251022   6.111   0.280   3.947  0.1418 -0.4577  0.5020
 9844TIP3    H151023   6.120   0.319   4.034  0.9210 -0.4980  0.4482
 9844TIP3    H251024   6.102   0.354   3.888 -2.7533 -0.4497  0.8221
 9845TIP3   OH251025   2.969   5.723   5.110 -0.0380  0.3455 -0.2479
 9845TIP3    H151026   2.990   5.689   5.197 -0.2531 -0.2641 -0.4280
 9845TIP3    H251027   2.971   5.647   5.053  0.5064  0.8049 -0.8613
 9846TIP3   OH251028   2.194   4.648   4.118 -0.3852  0.1358  0.2449
 9846TIP3    H151029   2.105   4.671   4.093 -0.8982 -0.1627  1.7300
 9846TIP3    H251030   2.214   4.571   4.063 -2.4316 -2.1082  2.3810
 9847TIP3   OH251031   2.924   5.610   3.512 -0.1650 -0.5235 -0.2316
 9847TIP3    H151032   2.842   5.592   3.557  0.1663  1.1040  1.1344
 9847TIP3    H251033   2.909   5.581   3.422 -2.7137  0.8815 -0.3546
 9848TIP3   OH251034   5.512   3.220   5.767 -0.3367  0.0796 -0.0443
 9848TIP3    H151035   5.513   3.246   5.675 -2.6289  2.2790  0.4393
 9848TIP3    H251036   5.455   3.143   5.769  3.5593 -3.1816 -0.9694
 9849TIP3   OH251037   3.013   3.230   3.700 -0.1457 -0.3703  0.5989
 9849TIP3    H151038   3.076   3.170   3.660  0.6859  0.8845 -0.0442
 9849TIP3    H251039   2.940   3.231   3.638  0.2662  0.0126  0.1036
 9850TIP3   OH251040   4.754   6.297   6.662  1.0331  1.0640  0.0084
 9850TIP3    H151041   4.759   6.353   6.740 -0.0350  1.3077 -0.0792
 9850TIP3    H251042   4.714   6.216   6.693  1.2834  0.8779 -0.1494
 9851TIP3   OH251043   5.161   3.204  14.598 -0.5177 -0.3537 -0.5870
 9851TIP3    H151044   5.127   3.199  14.687  1.0692  0.2097  0.0828
 9851TIP3    H251045   5.256   3.206  14.608 -0.1721 -2.7224 -2.4145
 9852TIP3   OH251046   6.333   0.568   5.596 -0.3926 -0.1297  0.5520
 9852TIP3    H151047   6.409   0.571   5.538 -1.3339 -1.3663 -0.8234
 9852TIP3    H251048   6.322   0.474   5.615 -0.4633  0.1899  2.2982
 9853TIP3   OH251049   0.146   1.019   4.007 -0.2577  0.7901 -0.2015
 9853TIP3    H151050   0.211   0.951   3.991 -0.5477  0.1271  1.2769
 9853TIP3    H251051   0.066   0.986   3.968 -0.3706  0.3268  0.4174
 9854TIP3   OH251052   2.287   0.052  12.716  0.0496  0.4453 -0.3006
 9854TIP3    H151053   2.308  -0.036  12.685 -1.8811  0.2219 -1.1047
 9854TIP3    H251054   2.362   0.077  12.771  1.5702 -0.8834 -1.6640
 9855TIP3   OH251055   1.376   0.853   6.004 -0.0844  0.3067  0.5817
 9855TIP3    H151056   1.283   0.828   5.999  0.3375 -1.2707 -0.1351
 9855TIP3    H251057   1.391   0.866   6.098 -1.2019  1.3653  0.6445
 9856TIP3   OH251058   6.616   2.452   1.692  0.0486 -0.7636 -0.4039
 9856TIP3    H151059   6.522   2.470   1.692  0.5115  2.2907 -2.0362
 9856TIP3    H251060   6.630   2.399   1.614 -0.3847 -1.9634  0.3095
 9857TIP3   OH251061   4.842   6.703   3.782 -0.3068  0.3673 -0.1943
 9857TIP3    H151062   4.801   6.667   3.703  1.4893 -3.4121  0.4058
 9857TIP3    H251063   4.902   6.770   3.749  0.0459 -0.7796 -2.0179
 9858TIP3   OH251064   4.682   2.743   4.185 -0.1612 -0.0296  0.3029
 9858TIP3    H151065   4.721   2.792   4.113  0.8666 -0.8568  0.2780
 9858TIP3    H251066   4.756   2.720   4.241 -0.7789 -0.5487  0.9138
 9859TIP3   OH251067   4.230   4.645   4.557 -0.2658 -0.4006  0.4034
 9859TIP3    H151068   4.249   4.630   4.650  4.1576 -0.0659 -0.2111
 9859TIP3    H251069   4.272   4.729   4.538  0.9892 -1.5164 -2.3075
 9860TIP3   OH251070   2.696   6.682  14.637 -0.2663 -0.0592 -0.2548
 9860TIP3    H151071   2.771   6.676  14.578 -0.2776 -0.6403 -0.2167
 9860TIP3    H251072   2.627   6.631  14.594 -0.4274 -0.0812  0.0276
 9861TIP3   OH251073   3.369   2.165   1.942  1.2868  0.7634 -0.2479
 9861TIP3    H151074   3.381   2.256   1.971  3.6350  0.2420  0.5899
 9861TIP3    H251075   3.343   2.118   2.022  2.0017  0.3752 -0.2335
 9862TIP3   OH251076   3.742   5.346   5.415  0.6556 -0.4973  0.5669
 9862TIP3    H151077   3.833   5.322   5.395  0.9124  1.6433 -1.3095
 9862TIP3    H251078   3.738   5.347   5.511  2.0702 -2.3862  0.7001
 9863TIP3   OH251079   2.952   3.977  13.988 -0.1904 -0.0079 -0.0556
 9863TIP3    H151080   2.884   4.030  14.031  0.0865  0.1683  0.1679
 9863TIP3    H251081   2.903   3.919  13.929 -0.6330 -0.6809  0.9441
 9864TIP3   OH251082   0.030   1.754   4.021 -0.1604 -0.2852 -0.1646
 9864TIP3    H151083   0.071   1.810   4.087 -1.5893  0.0166  0.4976
 9864TIP3    H251084   0.095   1.685   4.005  0.8719  0.5471  0.3472
 9865TIP3   OH251085   4.567   0.834   1.339  0.3937 -0.4950 -0.1173
 9865TIP3    H151086   4.556   0.910   1.283  1.4642  0.7306  1.2552
 9865TIP3    H251087   4.480   0.818   1.376 -0.2063 -1.0094 -1.6770
 9866TIP3   OH251088   1.124   0.632   3.723  0.7988  0.3626 -0.8382
 9866TIP3    H151089   1.112   0.666   3.812  2.1044 -2.8252  0.7115
 9866TIP3    H251090   1.036   0.633   3.685 -0.7595 -2.3195  2.2257
 9867TIP3   OH251091   1.701   0.842   5.154  0.2345  0.3211  0.1069
 9867TIP3    H151092   1.738   0.779   5.092  0.1076 -0.3447  0.6908
 9867TIP3    H251093   1.773   0.902   5.174  0.3528  0.3734 -0.4741
 9868TIP3   OH251094   6.130   4.801   4.299 -0.8624 -0.2580  0.3003
 9868TIP3    H151095   6.109   4.878   4.247 -0.3824 -0.6376 -0.4850
 9868TIP3    H251096   6.045   4.768   4.328 -1.2386 -0.6076 -1.1005
 9869TIP3   OH251097   1.832   2.201   3.505  0.4871  0.1644 -0.0209
 9869TIP3    H151098   1.782   2.283   3.498  1.0974  0.6170  0.8033
 9869TIP3    H251099   1.892   2.203   3.430 -1.3691 -0.8754 -1.6433
 9870TIP3   OH251100   6.339   3.578   2.957  0.2035  0.6740 -0.0213
 9870TIP3    H151101   6.369   3.669   2.959  0.9294  0.4825 -1.3633
 9870TIP3    H251102   6.245   3.584   2.938 -0.2294  1.1864  1.9996
 9871TIP3   OH251103   5.343   0.501   3.978  0.0189 -0.0843  0.1440
 9871TIP3    H151104   5.257   0.544   3.971 -0.7579 -1.5351  0.3232
 9871TIP3    H251105   5.386   0.521   3.895 -0.4326  0.7612  0.0944
 9872TIP3   OH251106   0.735   3.888  13.847  0.4165 -0.7240 -0.7374
 9872TIP3    H151107   0.647   3.924  13.859 -0.3603 -2.2961 -1.3563
 9872TIP3    H251108   0.785   3.959  13.807 -0.6155  0.1483 -0.5236
 9873TIP3   OH251109   4.608   2.202  16.696  0.7484 -0.4143 -0.3516
 9873TIP3    H151110   4.538   2.141  16.673 -1.0959  0.9088  1.3962
 9873TIP3    H251111   4.590   2.226  16.787  1.9743  1.9593 -0.6583
 9874TIP3   OH251112   4.840   1.138   1.598 -0.5813 -0.0486 -0.3369
 9874TIP3    H151113   4.806   1.067   1.543 -0.6510 -0.1824 -0.1213
 9874TIP3    H251114   4.788   1.215   1.574 -0.9440 -0.2232 -0.1005
 9875TIP3   OH251115   6.298   1.165  11.935  0.1348  0.0216 -0.1603
 9875TIP3    H151116   6.301   1.212  12.018  1.8423 -2.1600  1.1171
 9875TIP3    H251117   6.215   1.117  11.937  0.2595 -0.1783  0.4051
 9876TIP3   OH251118   5.680   6.211  10.907 -0.0059 -0.4183  0.2601
 9876TIP3    H151119   5.613   6.232  10.841 -1.0862  3.6359  2.3025
 9876TIP3    H251120   5.763   6.236  10.866 -0.4973  0.6459 -0.1363
 9877TIP3   OH251121   4.822   6.306  16.518 -0.8050 -0.8501  0.0214
 9877TIP3    H151122   4.879   6.308  16.441  0.1524  3.6900  0.5785
 9877TIP3    H251123   4.734   6.321  16.484 -0.5387  0.0230 -0.3001
 9878TIP3   OH251124   3.372   4.454  16.340 -0.4653 -0.1931 -0.1263
 9878TIP3    H151125   3.309   4.401  16.292 -2.0615  1.0513  0.4832
 9878TIP3    H251126   3.389   4.529  16.284  0.1738 -0.3304 -0.1185
 9879TIP3   OH251127   5.171   0.827   4.190 -0.3202 -0.6401  0.4200
 9879TIP3    H151128   5.103   0.894   4.189  1.2204  1.0008 -0.2999
 9879TIP3    H251129   5.178   0.802   4.282  3.2296  4.8647  2.1628
 9880TIP3   OH251130   6.226   5.311  13.513  0.0404 -0.0466  0.0864
 9880TIP3    H151131   6.274   5.231  13.537 -0.3316 -0.0177  0.9634
 9880TIP3    H251132   6.134   5.285  13.514 -0.1272  0.5244  0.9702
 9881TIP3   OH251133   4.135   5.956   3.159 -0.2747 -0.3689 -0.0735
 9881TIP3    H151134   4.043   5.932   3.153 -0.1316 -1.5204  1.6591
 9881TIP3    H251135   4.140   6.014   3.235  0.6965 -2.0048  1.1807
 9882TIP3   OH251136   4.641   2.307  16.978 -0.5976  0.6525  0.2775
 9882TIP3    H151137   4.638   2.269  17.066 -1.1637  0.3788  0.1422
 9882TIP3    H251138   4.711   2.373  16.983  1.5040 -1.4153  0.1051
 9883TIP3   OH251139   5.032   5.063   6.858 -0.4433  0.1972  0.1615
 9883TIP3    H151140   4.981   4.983   6.847 -1.9922  1.1324  0.2439
 9883TIP3    H251141   4.969   5.134   6.843  0.5111  1.4122  1.5608
 9884TIP3   OH251142   1.516   5.519   5.105  0.1590  0.0507  0.2232
 9884TIP3    H151143   1.485   5.545   5.192 -2.6507  1.7993 -1.1517
 9884TIP3    H251144   1.581   5.586   5.082  0.4143 -0.0306  0.7019
 9885TIP3   OH251145   6.008   0.857  14.700 -0.0402 -0.0928  0.0499
 9885TIP3    H151146   6.073   0.854  14.630 -0.8835  0.4530 -0.7785
 9885TIP3    H251147   6.057   0.887  14.777  0.2220  3.1639 -1.2025
 9886TIP3   OH251148   1.812   0.649   0.577  0.2476  0.3088  0.2802
 9886TIP3    H151149   1.801   0.724   0.519 -0.2219 -0.4164 -0.6109
 9886TIP3    H251150   1.830   0.576   0.518  2.0489 -0.0438  1.2106
 9887TIP3   OH251151   5.811   6.558  10.573  0.1496 -0.9384  0.5823
 9887TIP3    H151152   5.865   6.506  10.513  0.0416  1.0791 -1.3914
 9887TIP3    H251153   5.861   6.638  10.588 -1.9217  0.7493 -0.8590
 9888TIP3   OH251154   1.572   2.151   3.809 -0.5925 -0.4164  0.9105
 9888TIP3    H151155   1.588   2.076   3.753 -0.7047  0.0891  0.1873
 9888TIP3    H251156   1.569   2.115   3.898  0.7262 -1.0636  0.7136
 9889TIP3   OH251157   0.278   0.206   1.704 -0.3675 -0.3916 -0.1560
 9889TIP3    H151158   0.298   0.229   1.795  1.3829 -0.4076 -0.4962
 9889TIP3    H251159   0.269   0.111   1.705 -0.5006 -0.3788  0.0190
 9890TIP3   OH251160   0.470   4.797  16.551  0.2921  0.2696  0.3784
 9890TIP3    H151161   0.406   4.729  16.526  0.0979  0.6689 -0.2405
 9890TIP3    H251162   0.554   4.752  16.548  0.1319 -0.0291  0.2926
 9891TIP3   OH251163   3.600   4.720   2.307 -0.4134  0.3652 -0.7151
 9891TIP3    H151164   3.530   4.656   2.322  0.2261 -0.2216 -0.1395
 9891TIP3    H251165   3.563   4.803   2.338 -0.3886 -0.1897  0.9300
 9892TIP3   OH251166   1.262   0.779   4.890 -0.2563 -0.0682 -0.1868
 9892TIP3    H151167   1.234   0.870   4.897  0.0014 -0.0974  1.8643
 9892TIP3    H251168   1.337   0.781   4.831 -0.6475  0.9498 -0.6667
 9893TIP3   OH251169   5.653   6.573  12.135  0.1893 -0.3204  0.4254
 9893TIP3    H151170   5.721   6.552  12.072 -0.0082  0.5252 -0.0918
 9893TIP3    H251171   5.642   6.494  12.187  0.4339 -0.9977 -0.5341
 9894TIP3   OH251172   1.292   1.444  15.735 -0.0184 -0.1130  0.1938
 9894TIP3    H151173   1.329   1.401  15.657  0.0878 -0.6764  0.5462
 9894TIP3    H251174   1.238   1.515  15.700 -0.0617 -0.4347 -0.4029
 9895TIP3   OH251175   0.144   4.161  13.330  0.1616  0.1796  0.8080
 9895TIP3    H151176   0.117   4.249  13.301  2.0818  0.6298  0.1676
 9895TIP3    H251177   0.211   4.178  13.396  1.8374 -0.7173 -0.5679
 9896TIP3   OH251178   0.291   1.053  14.938  0.5545  0.0554  0.1763
 9896TIP3    H151179   0.270   0.984  14.876  0.0400  0.8309 -0.5387
 9896TIP3    H251180   0.231   1.039  15.011  1.4370 -1.1047  0.7114
 9897TIP3   OH251181   4.781   4.878  17.209 -0.0764 -0.1274  0.4590
 9897TIP3    H151182   4.780   4.888  17.114 -1.7103 -0.1723  0.4522
 9897TIP3    H251183   4.726   4.949  17.242 -1.0233 -1.1907  1.2405
 9898TIP3   OH251184   2.290   5.817   1.865 -0.0322 -0.4940 -0.1008
 9898TIP3    H151185   2.240   5.888   1.823 -0.4189 -1.6801 -1.7300
 9898TIP3    H251186   2.342   5.862   1.932 -1.2508  1.1490 -0.1703
 9899TIP3   OH251187   2.659   1.892  12.838 -0.3148 -0.5592  0.1628
 9899TIP3    H151188   2.661   1.965  12.900 -2.7725 -0.3587  0.0840
 9899TIP3    H251189   2.641   1.815  12.892  0.5586 -0.8760  0.0253
 9900TIP3   OH251190   5.473   6.009  17.079  0.2061 -0.1747 -0.3415
 9900TIP3    H151191   5.486   6.102  17.060 -1.5102  0.1829  0.0737
 9900TIP3    H251192   5.414   6.008  17.154  0.9725 -1.6062  0.2720
 9901TIP3   OH251193   2.138   2.033  16.633  0.7133 -0.3646 -0.0355
 9901TIP3    H151194   2.194   2.077  16.570  1.2939  0.3139  0.9149
 9901TIP3    H251195   2.071   2.098  16.655  0.1409 -0.8154 -0.4123
 9902TIP3   OH251196   0.125   2.106  12.538 -0.0507 -0.0438 -0.2010
 9902TIP3    H151197   0.104   2.044  12.608 -0.9676  0.3629 -0.1088
 9902TIP3    H251198   0.151   2.051  12.464  0.9551 -0.4803  0.4469
 9903TIP3   OH251199   4.081   6.619  13.348 -0.0805  0.2985  0.5444
 9903TIP3    H151200   4.124   6.670  13.417 -1.1777  0.1304  1.3789
 9903TIP3    H251201   4.124   6.534  13.350 -0.9954 -0.1675  1.9762
 9904TIP3   OH251202   0.770   2.619  14.883  0.0383 -0.0623 -0.0586
 9904TIP3    H151203   0.846   2.630  14.825  1.2339  0.9214  1.6001
 9904TIP3    H251204   0.728   2.704  14.883  0.6036  0.2307  1.2264
 9905TIP3   OH251205   1.503   2.382  12.665  0.3922  0.2221 -0.3547
 9905TIP3    H151206   1.561   2.431  12.608 -1.2860  2.2614 -0.4161
 9905TIP3    H251207   1.528   2.409  12.754 -0.1216  0.7377 -0.3608
 9906TIP3   OH251208   5.981   1.321   6.275  0.3489  0.4147 -0.3309
 9906TIP3    H151209   5.948   1.267   6.346  1.0174  0.1380 -0.2151
 9906TIP3    H251210   6.063   1.278   6.249  0.5107  0.9547 -0.7387
 9907TIP3   OH251211   5.069   0.520  12.131 -0.8312  0.0881 -0.5409
 9907TIP3    H151212   5.101   0.590  12.073  3.5606 -1.5718 -0.5045
 9907TIP3    H251213   5.073   0.441  12.077 -0.6370 -0.8700  0.8368
 9908TIP3   OH251214   0.435   3.239  11.567 -0.3827  1.0238 -0.1338
 9908TIP3    H151215   0.434   3.151  11.531  0.3121  1.0714 -0.2805
 9908TIP3    H251216   0.354   3.245  11.617 -0.6237  0.4381 -0.4406
 9909TIP3   OH251217   2.871   6.737  16.720  0.6522  0.3254 -1.0350
 9909TIP3    H151218   2.877   6.768  16.810 -0.2343  1.0314 -1.2119
 9909TIP3    H251219   2.777   6.727  16.704  0.8122 -3.7019 -0.5733
 9910TIP3   OH251220   5.981   1.762   3.010 -0.2737  0.3597 -0.3271
 9910TIP3    H151221   6.025   1.787   2.929 -0.2187  0.6396 -0.2109
 9910TIP3    H251222   6.045   1.708   3.057 -0.0154  0.8337 -0.1197
 9911TIP3   OH251223   3.894   5.823   3.160 -0.3368  0.4900 -0.8318
 9911TIP3    H151224   3.844   5.768   3.099  0.2089 -1.6419  0.5253
 9911TIP3    H251225   3.902   5.769   3.239  1.1219  2.1660  0.2228
 9912TIP3   OH251226   4.433   1.980  12.173  0.0574  0.2335  0.1799
 9912TIP3    H151227   4.477   1.937  12.100  0.4438 -0.8142  1.0033
 9912TIP3    H251228   4.348   1.935  12.179 -1.3291  2.3827 -1.5440
 9913TIP3   OH251229   6.618   2.259   1.158  0.3261  0.1554  0.3734
 9913TIP3    H151230   6.547   2.196   1.169 -1.6143  2.3990  1.8350
 9913TIP3    H251231   6.676   2.220   1.093 -2.1314 -1.8973 -0.7450
 9914TIP3   OH251232   4.392   2.001  14.486  0.2923 -0.3984 -0.1983
 9914TIP3    H151233   4.379   2.085  14.530  1.1271 -0.2731 -0.1743
 9914TIP3    H251234   4.310   1.984  14.441  0.7340  1.3678 -1.8103
 9915TIP3   OH251235   0.110   4.536  13.559  0.1330  0.1042 -0.2714
 9915TIP3    H151236   0.087   4.511  13.470 -0.4375  0.1480 -0.1413
 9915TIP3    H251237   0.072   4.624  13.569  2.4134  1.2350 -0.8504
 9916TIP3   OH251238   1.885   0.189  17.207 -0.0382 -0.3326  0.0938
 9916TIP3    H151239   1.791   0.176  17.211 -0.1761 -0.1675 -1.7908
 9916TIP3    H251240   1.904   0.203  17.115  1.9486 -1.1826  0.3041
 9917TIP3   OH251241   3.959   2.230  14.287 -0.1878  0.2196 -0.1974
 9917TIP3    H151242   3.925   2.298  14.230 -1.7647  0.1762  0.6366
 9917TIP3    H251243   3.950   2.149  14.236 -1.8867  0.1360  0.1964
 9918TIP3   OH251244   4.906   3.434  17.387 -0.1753  0.6663 -0.2403
 9918TIP3    H151245   4.967   3.428  17.460 -1.8984  0.3445  1.2381
 9918TIP3    H251246   4.934   3.511  17.338 -0.2850  2.2326  2.0458
 9919TIP3   OH251247   0.785   3.757  12.396 -0.3216 -0.0543 -0.0950
 9919TIP3    H151248   0.738   3.781  12.476 -0.7559 -1.8352  0.2298
 9919TIP3    H251249   0.756   3.822  12.332 -0.7648  0.7879  0.9123
 9920TIP3   OH251250   0.655   6.012   0.551  0.6375  0.3366  0.3456
 9920TIP3    H151251   0.635   6.075   0.620 -0.0961  1.4768 -0.8402
 9920TIP3    H251252   0.737   5.972   0.578  0.6990  1.2118  1.5529
 9921TIP3   OH251253   2.511   1.846   5.132 -0.3066 -0.2332  0.3574
 9921TIP3    H151254   2.469   1.931   5.144 -0.0769 -0.1794  0.7820
 9921TIP3    H251255   2.568   1.836   5.208 -0.1043 -0.6332  0.1556
 9922TIP3   OH251256   5.403   4.630   4.578 -0.1745 -0.1980  0.5498
 9922TIP3    H151257   5.405   4.582   4.660  0.9685  0.3865  0.8855
 9922TIP3    H251258   5.405   4.722   4.605  1.7607  0.0050 -0.1235
 9923TIP3   OH251259   4.051   0.781   5.589  0.4904  0.2658  0.0925
 9923TIP3    H151260   4.122   0.742   5.640  0.0642  0.6679  0.9990
 9923TIP3    H251261   4.064   0.745   5.501  2.8569  1.6400 -0.2164
 9924TIP3   OH251262   5.714   0.597   5.269 -0.4131  0.1460  0.2721
 9924TIP3    H151263   5.703   0.532   5.337 -2.7866  0.5229  0.3089
 9924TIP3    H251264   5.730   0.679   5.316  0.7691 -0.0518  0.2596
 9925TIP3   OH251265   4.318   4.254   6.157  0.1207  0.1208  0.1122
 9925TIP3    H151266   4.398   4.261   6.104 -0.0451  1.0748 -0.0238
 9925TIP3    H251267   4.348   4.258   6.247  0.2267  0.4607  0.0618
 9926TIP3   OH251268   3.819   6.128   2.582 -0.2598 -0.3257  0.0835
 9926TIP3    H151269   3.742   6.097   2.630 -0.9120 -0.7347 -1.1895
 9926TIP3    H251270   3.868   6.049   2.561  0.2238 -0.1142  0.4163
 9927TIP3   OH251271   2.066   4.498   0.887 -0.2228  0.2577 -0.9293
 9927TIP3    H151272   2.113   4.464   0.811 -0.3847  0.6640 -1.2139
 9927TIP3    H251273   2.052   4.591   0.868 -0.4436  0.3178 -0.4956
 9928TIP3   OH251274   6.740   2.641  15.420  0.2201 -0.3106  0.2746
 9928TIP3    H151275   6.769   2.561  15.464 -0.1178  0.4208  1.8977
 9928TIP3    H251276   6.715   2.613  15.333  0.1290 -1.9775  0.8124
 9929TIP3   OH251277   5.099   5.470   5.050 -0.0477 -0.2651  0.1296
 9929TIP3    H151278   5.033   5.537   5.068 -0.6474  0.1259 -2.9549
 9929TIP3    H251279   5.060   5.388   5.081 -0.8937  0.3053  0.6045
 9930TIP3   OH251280   4.195   3.365  16.958 -0.2604  0.2076 -0.0127
 9930TIP3    H151281   4.127   3.403  16.902 -0.0739  4.3816  2.2109
 9930TIP3    H251282   4.158   3.366  17.046  2.1291  1.5760  1.1072
 9931TIP3   OH251283   1.085   4.423  15.056 -0.0856  0.3209 -0.6099
 9931TIP3    H151284   1.018   4.361  15.027  0.9869 -1.1997  0.0603
 9931TIP3    H251285   1.132   4.448  14.977  0.5244 -1.0160 -0.6840
 9932TIP3   OH251286   1.272   6.475  12.265 -0.0566 -0.1444 -0.0079
 9932TIP3    H151287   1.365   6.482  12.286 -0.2102 -0.3941  0.7737
 9932TIP3    H251288   1.235   6.558  12.293 -0.4273 -0.8276  1.6429
 9933TIP3   OH251289   3.688   1.034  14.825  0.1372  0.1229  0.0226
 9933TIP3    H151290   3.761   1.078  14.782 -0.3974 -0.0032 -1.0455
 9933TIP3    H251291   3.678   1.080  14.908  0.6279  0.9531 -0.3642
 9934TIP3   OH251292   1.939   4.035   5.102 -0.8488  0.0813  0.2419
 9934TIP3    H151293   1.936   3.948   5.141 -1.3992  0.6339  1.4969
 9934TIP3    H251294   2.028   4.043   5.067 -0.2416 -0.3391  1.6372
 9935TIP3   OH251295   6.714   1.458   3.712 -0.3134  0.2568  0.5544
 9935TIP3    H151296   6.794   1.479   3.761 -0.4533  0.0485  0.8757
 9935TIP3    H251297   6.707   1.528   3.647 -0.2218  0.6428  0.9492
 9936TIP3   OH251298   4.885   2.451  14.604 -0.0850  0.4748 -0.1874
 9936TIP3    H151299   4.874   2.406  14.520 -1.4988  0.5454 -0.0746
 9936TIP3    H251300   4.803   2.500  14.616  0.0890  0.4722  1.2231
 9937TIP3   OH251301   6.732   0.353   2.975 -0.0964  1.0316 -0.1003
 9937TIP3    H151302   6.739   0.440   2.938  1.0103  1.5132  1.1391
 9937TIP3    H251303   6.799   0.302   2.929 -1.7823  0.3716 -1.9289
 9938TIP3   OH251304   2.334   5.253   6.063 -0.0839  0.5505 -0.0184
 9938TIP3    H151305   2.408   5.297   6.105 -0.8436  2.1059 -0.2575
 9938TIP3    H251306   2.361   5.242   5.972  1.2736 -2.1786  0.6178
 9939TIP3   OH251307   6.234   1.182   1.549  0.5617  0.0083  0.4192
 9939TIP3    H151308   6.297   1.251   1.529 -0.0331  0.8025  1.2348
 9939TIP3    H251309   6.155   1.206   1.500  0.7008 -0.6802 -0.1555
 9940TIP3   OH251310   2.223   1.901  13.465  0.2175  0.1102  0.2885
 9940TIP3    H151311   2.214   1.968  13.397 -1.4878  0.1810  0.5326
 9940TIP3    H251312   2.256   1.948  13.541 -0.4006  0.5802  0.2795
 9941TIP3   OH251313   4.989   0.123   5.203 -0.5731 -0.0047 -0.2863
 9941TIP3    H151314   4.936   0.043   5.200 -0.6801  0.0595 -0.1432
 9941TIP3    H251315   5.007   0.137   5.297  0.7833 -0.7311 -0.4126
 9942TIP3   OH251316   0.890   5.499  13.079 -0.7130 -0.1282 -0.4925
 9942TIP3    H151317   0.862   5.588  13.098 -0.6013 -0.1719 -0.1223
 9942TIP3    H251318   0.876   5.489  12.984  0.1435  0.5865 -0.7008
 9943TIP3   OH251319   3.790   2.494  11.991  0.1141  0.1274 -0.8312
 9943TIP3    H151320   3.712   2.483  11.937 -0.3961 -0.0867 -0.0474
 9943TIP3    H251321   3.761   2.478  12.080  1.0451  0.0808 -0.5260
 9944TIP3   OH251322   4.865   2.588   0.826 -0.4478 -0.1093  0.1034
 9944TIP3    H151323   4.880   2.679   0.802  0.9031  0.0975  1.5710
 9944TIP3    H251324   4.779   2.588   0.868 -0.3430  0.5584  0.3304
 9945TIP3   OH251325   4.097   5.701  11.656 -0.2983  0.2281 -0.0037
 9945TIP3    H151326   4.126   5.786  11.622 -0.9466  1.0870  1.4684
 9945TIP3    H251327   4.064   5.721  11.744  0.5115 -1.7300  0.8001
 9946TIP3   OH251328   5.120   5.434  15.138  0.1349  0.3766  0.4035
 9946TIP3    H151329   5.107   5.479  15.054 -2.1682 -1.2082 -0.1945
 9946TIP3    H251330   5.179   5.361  15.116  3.0536  2.3598  1.1639
 9947TIP3   OH251331   5.811   6.203  15.294  0.5936  0.7555  0.0375
 9947TIP3    H151332   5.893   6.201  15.245 -0.0193 -0.6175 -1.0246
 9947TIP3    H251333   5.813   6.286  15.342  2.8781  0.4415  0.5918
 9948TIP3   OH251334   2.721   4.461   3.235 -0.1028 -0.2521  0.4011
 9948TIP3    H151335   2.779   4.529   3.269 -0.7167  1.6406 -2.0126
 9948TIP3    H251336   2.775   4.382   3.230  1.4645  0.7699  0.7323
 9949TIP3   OH251337   3.217   2.141   0.938  0.4819  0.7860  0.3330
 9949TIP3    H151338   3.189   2.139   1.030  0.9926  0.4872  0.4826
 9949TIP3    H251339   3.279   2.213   0.933 -2.6740  3.6982 -0.7045
 9950TIP3   OH251340   1.134   4.663   4.090 -0.3360  0.2776  0.1244
 9950TIP3    H151341   1.139   4.587   4.149  0.6904 -0.0787 -0.3863
 9950TIP3    H251342   1.043   4.690   4.093 -0.7401 -1.0243  0.2817
 9951TIP3   OH251343   1.238   3.826  10.806  0.0201 -0.4026 -0.2252
 9951TIP3    H151344   1.318   3.774  10.813  0.1450 -0.0806  0.8329
 9951TIP3    H251345   1.168   3.760  10.805  0.0708 -0.6431  2.5870
 9952TIP3   OH251346   4.050   2.507   0.449  0.1040  0.4280  0.2454
 9952TIP3    H151347   4.009   2.423   0.468  0.2478  0.3751  0.3193
 9952TIP3    H251348   3.981   2.571   0.465 -0.1956  0.2829 -0.4037
 9953TIP3   OH251349   0.106   3.228  10.716 -0.3017 -0.2784 -0.0822
 9953TIP3    H151350   0.081   3.243  10.624 -0.3649  0.7451  0.0885
 9953TIP3    H251351   0.034   3.266  10.766  0.0318 -0.2796  0.3993
 9954TIP3   OH251352   5.524   0.723   1.184  0.5415 -0.7290  0.3910
 9954TIP3    H151353   5.541   0.705   1.276 -0.9958 -1.0093  0.6494
 9954TIP3    H251354   5.522   0.819   1.177  1.4107 -0.6970  0.4815
 9955TIP3   OH251355   2.327   5.214  14.622 -0.3206 -0.2025 -0.0648
 9955TIP3    H151356   2.347   5.292  14.570 -0.6951 -1.6092 -2.4756
 9955TIP3    H251357   2.401   5.208  14.683 -0.2801  1.9954  0.2085
 9956TIP3   OH251358   5.644   2.746  16.176 -0.8429  0.0249  0.5980
 9956TIP3    H151359   5.702   2.705  16.240  1.3625  1.0698 -0.5664
 9956TIP3    H251360   5.615   2.827  16.219 -1.6758 -0.6373  1.2965
 9957TIP3   OH251361   0.485   5.679  15.788 -0.5559 -0.1709  0.5455
 9957TIP3    H151362   0.473   5.721  15.873  0.3958  3.7608 -1.0502
 9957TIP3    H251363   0.573   5.641  15.791  0.2248  1.5822  0.7622
 9958TIP3   OH251364   1.267   1.228  11.743 -0.1528  0.1230  0.4912
 9958TIP3    H151365   1.347   1.220  11.691  0.6315 -0.7933  1.7758
 9958TIP3    H251366   1.286   1.299  11.805 -0.5405  0.2750  0.4329
 9959TIP3   OH251367   0.595   0.143  14.410  0.2287 -0.4024  0.1147
 9959TIP3    H151368   0.672   0.162  14.464  0.7791  0.6538 -1.0013
 9959TIP3    H251369   0.617   0.177  14.323 -1.7165  0.4082 -0.1034
 9960TIP3   OH251370   6.261   4.007   0.086  0.5607 -0.0187 -0.3242
 9960TIP3    H151371   6.291   3.917   0.094  1.9891  0.5279  1.2516
 9960TIP3    H251372   6.311   4.043   0.013  0.0161 -0.4736 -0.9289
 9961TIP3   OH251373   2.367   1.177  12.472 -1.0313 -0.4389  0.7520
 9961TIP3    H151374   2.436   1.151  12.533 -0.9119 -1.4452  0.2044
 9961TIP3    H251375   2.414   1.222  12.401 -1.2247  1.2390  1.6343
 9962TIP3   OH251376   6.360   5.237   6.321  0.6278 -0.0197 -0.3783
 9962TIP3    H151377   6.272   5.212   6.349  0.4531  0.0145 -0.8750
 9962TIP3    H251378   6.413   5.232   6.400  0.1768 -0.0345 -0.0726
 9963TIP3   OH251379   1.517   5.716  16.146  0.1993  0.2925 -0.0374
 9963TIP3    H151380   1.567   5.679  16.073  1.8130 -0.5101  1.4103
 9963TIP3    H251381   1.471   5.641  16.184 -0.4969  0.6772 -0.0978
 9964TIP3   OH251382   2.527   4.944   2.607 -0.4555 -0.3806 -0.2237
 9964TIP3    H151383   2.473   4.981   2.677  0.4833 -1.4004  1.0834
 9964TIP3    H251384   2.555   4.859   2.641  0.4729 -0.6629 -1.6285
 9965TIP3   OH251385   6.058   4.165   1.368  0.2519  0.1123  0.6293
 9965TIP3    H151386   6.006   4.135   1.294  2.3942 -0.7168 -0.6523
 9965TIP3    H251387   6.104   4.243   1.335 -1.7872  2.2355  2.4576
 9966TIP3   OH251388   2.189   2.596   4.873 -0.4369 -0.5220  0.4346
 9966TIP3    H151389   2.240   2.549   4.808  0.6416  0.2158  0.7185
 9966TIP3    H251390   2.251   2.659   4.911 -1.4879  0.2154  0.9745
 9967TIP3   OH251391   5.873   6.142   6.591  0.4853  0.1840  0.0466
 9967TIP3    H151392   5.808   6.084   6.630  0.3100  0.9863  0.9667
 9967TIP3    H251393   5.949   6.134   6.648 -0.0809  2.0624  1.1252
 9968TIP3   OH251394   1.795   0.330  15.370 -0.0309 -0.1117 -0.5914
 9968TIP3    H151395   1.769   0.330  15.278  0.0395  0.2690 -0.6146
 9968TIP3    H251396   1.721   0.369  15.417 -0.5857 -1.4323 -0.3221
 9969TIP3   OH251397   5.833   2.191  14.571 -0.2250  0.2177 -0.4195
 9969TIP3    H151398   5.894   2.262  14.592 -0.1883  0.5495 -1.5926
 9969TIP3    H251399   5.814   2.203  14.478 -1.3393 -0.4587 -0.2881
 9970TIP3   OH251400   1.027   0.529  13.780 -0.3886 -0.2711  0.4282
 9970TIP3    H151401   0.932   0.523  13.775 -0.3589 -0.4027 -0.1522
 9970TIP3    H251402   1.048   0.518  13.872 -0.9422 -0.1400  0.5723
 9971TIP3   OH251403   3.039   4.871   2.991 -0.0026 -0.2470 -0.2522
 9971TIP3    H151404   2.978   4.806   3.026  2.0353 -2.9643 -1.3323
 9971TIP3    H251405   3.125   4.829   2.997  1.3234  1.9396 -2.0395
 9972TIP3   OH251406   6.575   2.903  12.493  0.1411 -0.2764 -0.2736
 9972TIP3    H151407   6.601   2.990  12.463  0.9941 -0.0149  1.1734
 9972TIP3    H251408   6.529   2.919  12.576 -1.3538 -1.0669 -0.9026
 9973TIP3   OH251409   1.575   0.117   6.263 -0.1596 -0.0813 -0.1284
 9973TIP3    H151410   1.486   0.111   6.228 -0.6178  0.2423  0.9495
 9973TIP3    H251411   1.624   0.164   6.195 -0.2892 -1.9582 -1.6369
 9974TIP3   OH251412   0.354   3.349  10.753 -0.0973 -0.0185  0.2923
 9974TIP3    H151413   0.273   3.303  10.732  0.2034  0.4995 -2.2489
 9974TIP3    H251414   0.333   3.442  10.747  0.8128  0.1266 -1.1182
 9975TIP3   OH251415   6.621   2.214   0.856 -0.0781  0.1201 -0.4546
 9975TIP3    H151416   6.680   2.145   0.887  1.5737  1.7858  0.2697
 9975TIP3    H251417   6.545   2.208   0.914  0.3502 -0.6599  0.0386
 9976TIP3   OH251418   5.110   4.615   6.159 -0.5658 -0.5974 -0.2537
 9976TIP3    H151419   5.116   4.538   6.103  1.0402 -0.5615 -0.1602
 9976TIP3    H251420   5.075   4.582   6.242 -1.1801 -0.9712 -0.6558
 9977TIP3   OH251421   1.273   2.048  13.966 -0.2393 -0.2466  0.0573
 9977TIP3    H151422   1.213   2.048  13.892 -0.3659  0.2779  0.1617
 9977TIP3    H251423   1.357   2.021  13.928 -0.7341 -1.9863  0.0855
 9978TIP3   OH251424   5.252   1.375   2.779 -0.2770 -0.3525  0.2795
 9978TIP3    H151425   5.290   1.287   2.776  0.7073 -0.0284  1.9530
 9978TIP3    H251426   5.183   1.373   2.713 -1.0121 -2.7453  0.9881
 9979TIP3   OH251427   3.768   2.992  15.252  0.1581 -0.0060 -0.0309
 9979TIP3    H151428   3.711   3.067  15.234  1.5464  1.2498  0.5177
 9979TIP3    H251429   3.726   2.918  15.209 -1.5270  0.9849 -0.1700
 9980TIP3   OH251430   4.792   4.212   0.668 -0.2419 -0.6547 -0.0858
 9980TIP3    H151431   4.819   4.302   0.686  0.1830 -1.0407  1.3112
 9980TIP3    H251432   4.717   4.221   0.610 -0.2557  0.6035  0.0942
 9981TIP3   OH251433   4.561   3.571  14.766 -0.4981 -0.0944 -0.0285
 9981TIP3    H151434   4.641   3.604  14.725 -0.5122  1.6920  1.2414
 9981TIP3    H251435   4.554   3.480  14.736  1.1980  0.1490 -1.3282
 9982TIP3   OH251436   1.584   4.662  13.465  0.3414  0.3891  0.2139
 9982TIP3    H151437   1.599   4.705  13.381 -0.6931 -0.6806 -0.5532
 9982TIP3    H251438   1.629   4.717  13.529 -0.9270  2.6433 -0.7042
 9983TIP3   OH251439   3.563   1.457   0.690  0.3312 -0.0500  0.1217
 9983TIP3    H151440   3.636   1.489   0.744  2.2816 -0.7369 -1.9412
 9983TIP3    H251441   3.548   1.527   0.627 -2.5115  1.1199  1.9000
 9984TIP3   OH251442   0.429   5.419  16.802 -0.1666  0.6558  0.1064
 9984TIP3    H151443   0.419   5.349  16.867 -2.6151  1.2246  0.4110
 9984TIP3    H251444   0.521   5.413  16.776  0.7639 -0.0026  3.1233
 9985TIP3   OH251445   5.906   0.165  14.010  0.4746  0.0744  0.5317
 9985TIP3    H151446   5.843   0.095  13.989  2.4761 -1.7137  0.1739
 9985TIP3    H251447   5.949   0.135  14.089  4.3369 -1.3606 -1.8457
 9986TIP3   OH251448   3.501   0.778   6.592  0.0235  0.3171  0.0620
 9986TIP3    H151449   3.433   0.718   6.564  0.5427 -0.1082 -0.3188
 9986TIP3    H251450   3.553   0.727   6.655  0.4286  0.3822 -0.2155
 9987TIP3   OH251451   5.845   4.087  12.022  0.1192  0.2210 -0.0044
 9987TIP3    H151452   5.805   4.160  11.975  0.8051  0.9301  0.4838
 9987TIP3    H251453   5.922   4.065  11.971  1.2239  1.4113  1.0643
 9988TIP3   OH251454   3.326   1.354   4.666  0.1780 -0.2767  0.0178
 9988TIP3    H151455   3.273   1.336   4.744 -0.6931 -0.1090 -0.5227
 9988TIP3    H251456   3.318   1.275   4.613  0.6651 -0.3366  0.0220
 9989TIP3   OH251457   0.746   2.277  15.591  0.0094  0.0186 -0.0061
 9989TIP3    H151458   0.789   2.359  15.614  1.7355 -0.4388 -1.4315
 9989TIP3    H251459   0.709   2.293  15.504  1.2676 -1.0060 -0.7582
 9990TIP3   OH251460   1.877   4.113   4.706  0.1604 -0.3661  0.2345
 9990TIP3    H151461   1.860   4.203   4.680 -0.1187 -0.6326 -0.5281
 9990TIP3    H251462   1.970   4.100   4.689  0.3832  0.0185  1.1096
 9991TIP3   OH251463   3.684   3.356   5.927  0.3579 -0.0066 -0.5317
 9991TIP3    H151464   3.624   3.427   5.952  0.8386  0.3142 -0.2917
 9991TIP3    H251465   3.644   3.319   5.848 -0.9791 -0.8026  0.4752
 9992TIP3   OH251466   4.966   1.682  14.306 -0.0901  0.2632  0.0178
 9992TIP3    H151467   4.961   1.593  14.340 -0.3682  1.0097  2.0208
 9992TIP3    H251468   5.058   1.694  14.283 -0.1457 -0.6910 -0.7423
 9993TIP3   OH251469   1.610   2.311  16.234 -0.1313 -0.9128 -0.1234
 9993TIP3    H151470   1.516   2.318  16.219 -0.0337 -0.6902 -0.6498
 9993TIP3    H251471   1.624   2.355  16.318 -0.4428 -0.6032 -0.2320
 9994TIP3   OH251472   2.071   5.177   0.459  0.2620 -0.2586 -0.3273
 9994TIP3    H151473   2.121   5.234   0.399  0.7936 -1.7608 -1.3763
 9994TIP3    H251474   2.137   5.142   0.519  0.1385 -0.6285 -0.4023
 9995TIP3   OH251475   4.014   2.218  14.012  0.4659 -0.1989  0.1429
 9995TIP3    H151476   4.027   2.259  13.927  1.6462  0.9734  0.8430
 9995TIP3    H251477   4.000   2.126  13.993 -0.3023  0.2071 -1.3680
 9996TIP3   OH251478   6.290   4.429   0.332  0.1121  0.2369 -0.2016
 9996TIP3    H151479   6.360   4.459   0.391 -1.5950  2.3711  0.8899
 9996TIP3    H251480   6.317   4.460   0.245  0.8786  0.3457  0.0668
 9997TIP3   OH251481   1.398   5.468  15.522  0.8394  0.5233 -0.1980
 9997TIP3    H151482   1.478   5.425  15.491 -0.6883 -0.8495 -2.6059
 9997TIP3    H251483   1.384   5.432  15.610  2.3950  0.1309 -0.0816
 9998TIP3   OH251484   2.151   2.331   0.198 -0.3293  0.1078  0.6147
 9998TIP3    H151485   2.116   2.258   0.249 -0.7612 -1.1753 -1.3785
 9998TIP3    H251486   2.243   2.307   0.183 -0.8077 -0.7976 -1.1914
 9999TIP3   OH251487   2.510   5.184  16.839 -0.2443  0.1526  0.4975
 9999TIP3    H151488   2.574   5.145  16.898 -1.1035 -0.4693  1.0368
 9999TIP3    H251489   2.561   5.242  16.783  0.8882 -0.8463  0.4683
10000TIP3   OH251490   0.047   4.463   6.278  0.2141  0.3475 -0.3904
10000TIP3    H151491   0.068   4.465   6.371  2.0122 -0.3989 -0.7223
10000TIP3    H251492   0.011   4.550   6.259  0.8357  0.8863  0.7923
10001TIP3   OH251493   1.734   6.091  11.856  0.0723  0.1618 -0.3995
10001TIP3    H151494   1.664   6.034  11.826 -1.8568  1.0666  1.9899
10001TIP3    H251495   1.689   6.164  11.899  2.4763  0.8596  1.1851
10002TIP3   OH251496   3.149   6.569   0.401 -0.2405 -0.0951 -0.0690
10002TIP3    H151497   3.107   6.579   0.316  1.0425 -0.7206 -0.8090
10002TIP3    H251498   3.082   6.530   0.457 -0.3969 -2.0140 -1.4853
10003TIP3   OH251499   1.106   2.964   0.209 -0.1786 -0.1639 -0.2242
10003TIP3    H151500   1.018   2.997   0.195  0.1385  0.8949  0.2320
10003TIP3    H251501   1.131   2.927   0.124 -1.5246 -1.6524 -0.0188
10004TIP3   OH251502   3.037   3.624   1.463 -0.0332  0.1882  0.3789
10004TIP3    H151503   3.053   3.715   1.488 -1.4976  0.3502  0.7977
10004TIP3    H251504   2.985   3.629   1.383 -0.8462 -0.2614  0.8691
10005TIP3   OH251505   5.385   3.693  12.593 -0.6267 -0.1043  0.3556
10005TIP3    H151506   5.361   3.742  12.515  0.1069  0.1717  0.2973
10005TIP3    H251507   5.310   3.636  12.610  0.1498 -2.0224 -2.0186
10006TIP3   OH251508   0.307   1.514  14.407 -0.5720  0.2265 -0.3762
10006TIP3    H151509   0.237   1.580  14.410 -2.2381 -1.4846  0.6218
10006TIP3    H251510   0.362   1.534  14.483  0.2918  1.7659 -1.3334
10007TIP3   OH251511   2.680   5.583   3.668  0.4002  0.1058 -0.3301
10007TIP3    H151512   2.638   5.570   3.583 -0.5839  0.8977  0.0105
10007TIP3    H251513   2.670   5.498   3.713  0.1213 -0.0422 -0.6687
10008TIP3   OH251514   0.089   2.434   2.404  0.2271  0.5542  0.0057
10008TIP3    H151515   0.035   2.370   2.359  0.4596  0.3431  0.0262
10008TIP3    H251516   0.096   2.402   2.494 -1.3356  1.6525  0.5688
10009TIP3   OH251517   6.509   4.749   4.270 -0.6528  0.8302  0.0642
10009TIP3    H151518   6.520   4.803   4.192  0.7741 -0.4060 -0.6407
10009TIP3    H251519   6.596   4.712   4.286 -1.3652 -0.4715  1.0898
10010TIP3   OH251520   1.198   3.926  11.727  0.1631  0.0880 -0.3575
10010TIP3    H151521   1.232   3.890  11.645 -0.5613  0.1890 -0.7122
10010TIP3    H251522   1.134   3.862  11.758  0.0125  0.3222 -0.1751
10011TIP3   OH251523   2.850   3.700   1.267 -0.2516  0.1970  0.3866
10011TIP3    H151524   2.869   3.765   1.199 -1.5665 -0.8614 -1.0733
10011TIP3    H251525   2.766   3.728   1.303  0.8232  1.2211  2.2383
10012TIP3   OH251526   1.110   0.200  16.082  0.3244 -0.0654 -0.0041
10012TIP3    H151527   1.078   0.251  16.157  1.9441  0.4434  0.3813
10012TIP3    H251528   1.068   0.115  16.091 -1.0400  0.6110  0.3553
10013TIP3   OH251529   5.528   3.447   3.405  0.2150  0.7424  0.3964
10013TIP3    H151530   5.502   3.438   3.496 -0.6619 -0.3950  0.0533
10013TIP3    H251531   5.518   3.540   3.386  0.5556  1.0107  1.4882
10014TIP3   OH251532   1.258   2.641  15.040  0.1236 -0.4939  0.0261
10014TIP3    H151533   1.243   2.593  15.121  0.7963 -0.7702 -0.0060
10014TIP3    H251534   1.208   2.722  15.051  1.6747  0.3292  1.5219
10015TIP3   OH251535   2.017   3.415  15.548 -0.2160 -0.3707 -0.0119
10015TIP3    H151536   1.927   3.447  15.544 -0.4898 -1.2201 -1.3171
10015TIP3    H251537   2.013   3.328  15.508  1.1130 -0.5890  0.2898
10016TIP3   OH251538   2.949   3.260  16.447  0.0718  0.7652  0.5301
10016TIP3    H151539   3.010   3.323  16.484  1.3334 -1.1768  1.9718
10016TIP3    H251540   2.882   3.249  16.515  0.5837 -0.3821  0.8668
10017TIP3   OH251541   5.501   3.422   2.641  0.2136 -0.0747 -0.8271
10017TIP3    H151542   5.417   3.389   2.672 -0.8963  1.2573 -2.2784
10017TIP3    H251543   5.521   3.369   2.564  0.7954 -0.4763 -0.4106
10018TIP3   OH251544   0.271   4.646  16.452 -0.3453 -0.0759  0.1579
10018TIP3    H151545   0.258   4.698  16.373  1.8288  0.1475 -0.1238
10018TIP3    H251546   0.203   4.580  16.449 -0.1221 -0.2679 -2.0842
10019TIP3   OH251547   3.448   1.087  17.319 -0.5501 -0.1026 -0.3507
10019TIP3    H151548   3.497   1.105  17.239 -1.2510  0.7187 -0.6185
10019TIP3    H251549   3.397   1.167  17.334  0.8562  0.4706  1.8745
10020TIP3   OH251550   5.275   0.641  14.224 -0.3448  0.2074  0.4019
10020TIP3    H151551   5.179   0.644  14.219 -0.5018 -2.1328  0.7927
10020TIP3    H251552   5.296   0.549  14.213  1.9406  0.7637 -0.3683
10021TIP3   OH251553   0.599   2.045   1.767  0.4242 -0.2313  0.4358
10021TIP3    H151554   0.638   1.959   1.781 -1.5046 -1.3399 -0.6458
10021TIP3    H251555   0.520   2.045   1.821 -0.0486  0.5129 -0.2330
10022TIP3   OH251556   4.901   5.907  15.702  0.0322 -0.0012 -0.1780
10022TIP3    H151557   4.922   5.835  15.643  0.7509  0.5039 -0.5529
10022TIP3    H251558   4.914   5.986  15.650  0.3425  0.4408  0.5479
10023TIP3   OH251559   6.593   6.568  14.825 -0.3555 -0.2161  0.0069
10023TIP3    H151560   6.526   6.551  14.891 -0.3478  0.4027  0.1852
10023TIP3    H251561   6.650   6.633  14.865  1.8280 -2.4916  0.8225
10024TIP3   OH251562   2.780   2.900  12.251 -0.6070 -0.1782  0.8877
10024TIP3    H151563   2.729   2.825  12.221 -1.5211  0.4447  0.8392
10024TIP3    H251564   2.840   2.919  12.179  0.7320 -1.8009  1.5025
10025TIP3   OH251565   3.709   5.544   0.930  0.0745  0.8963 -0.0465
10025TIP3    H151566   3.650   5.471   0.950  0.7626  0.0840 -0.8263
10025TIP3    H251567   3.653   5.609   0.888 -0.3109  0.1657 -0.7191
10026TIP3   OH251568   4.489   2.139   3.580 -0.0996  0.1485 -0.0594
10026TIP3    H151569   4.407   2.186   3.564  0.2343  0.6159 -0.4426
10026TIP3    H251570   4.483   2.109   3.670 -0.3015  0.9639  0.2003
10027TIP3   OH251571   6.238   6.229   4.729 -0.0078 -0.1183  0.1367
10027TIP3    H151572   6.296   6.265   4.797 -0.0050  2.0584 -0.9382
10027TIP3    H251573   6.150   6.245   4.763 -0.0156  1.3813 -0.5056
10028TIP3   OH251574   4.081   3.537  16.541  0.2791  0.2728  0.1657
10028TIP3    H151575   4.071   3.451  16.500 -3.1075  0.8763 -0.5594
10028TIP3    H251576   4.121   3.518  16.626  3.1186 -1.5096 -1.4017
10029TIP3   OH251577   6.435   1.140  16.439  0.1096 -0.1942  0.5331
10029TIP3    H151578   6.394   1.226  16.433  0.6641  0.0519  0.2193
10029TIP3    H251579   6.519   1.155  16.482  0.5774 -0.4464 -0.2747
10030TIP3   OH251580   1.580   4.627   4.164  0.1563  0.6438 -0.1822
10030TIP3    H151581   1.554   4.535   4.161  0.8388  0.4532 -0.2852
10030TIP3    H251582   1.559   4.655   4.253 -2.1391  1.0208 -0.7664
10031TIP3   OH251583   1.038   3.631   5.688  0.3984  0.3484  0.7647
10031TIP3    H151584   1.025   3.540   5.714 -0.6010  0.4581  0.7070
10031TIP3    H251585   1.061   3.677   5.769  1.7336 -0.0930  0.6502
10032TIP3   OH251586   4.074   2.497   3.730 -0.1127  0.3214 -0.6918
10032TIP3    H151587   4.086   2.418   3.678 -0.1226  0.0712 -0.3111
10032TIP3    H251588   4.143   2.556   3.698 -0.1394  0.1847 -1.0125
10033TIP3   OH251589   0.137   1.553  12.995  0.0789  0.2834  0.6852
10033TIP3    H151590   0.051   1.563  12.954  0.4493  2.1733  0.2611
10033TIP3    H251591   0.123   1.576  13.087 -0.0045 -0.1378  0.7795
10034TIP3   OH251592   6.459   3.714  16.286 -0.2333 -0.5009 -0.0096
10034TIP3    H151593   6.469   3.694  16.379  0.9853 -0.4802 -0.1187
10034TIP3    H251594   6.427   3.632  16.247  0.6952 -0.9890  0.2099
10035TIP3   OH251595   1.993   0.143  12.086  0.5914  0.2133  0.5305
10035TIP3    H151596   2.060   0.173  12.147  0.7545 -0.4191  0.6639
10035TIP3    H251597   2.030   0.063  12.047  0.1777  0.2036  0.1498
10036TIP3   OH251598   1.221   6.469   3.167  0.2284 -0.0887 -0.2486
10036TIP3    H151599   1.311   6.490   3.194 -0.6859 -0.2716  3.5241
10036TIP3    H251600   1.168   6.539   3.204 -1.4435 -1.5697  0.2740
10037TIP3   OH251601   6.007   3.158   3.355 -0.1229  0.7620 -0.0724
10037TIP3    H151602   6.073   3.206   3.404  0.8289 -1.7140  1.2811
10037TIP3    H251603   5.935   3.145   3.418 -0.7010  1.0707 -0.6593
10038TIP3   OH251604   5.162   5.369   3.465 -0.2442 -0.4244 -0.3337
10038TIP3    H151605   5.233   5.324   3.419  0.0373  0.1139 -0.4441
10038TIP3    H251606   5.169   5.338   3.556  0.8657  0.4606 -0.0857
10039TIP3   OH251607   5.482   3.102  16.183  0.2687 -0.6189  0.1006
10039TIP3    H151608   5.572   3.129  16.199 -0.3065  1.0163  0.7366
10039TIP3    H251609   5.483   3.067  16.094  0.9913  2.0517 -1.0288
10040TIP3   OH251610   0.425   5.023   2.855 -0.0956 -0.5672  0.2059
10040TIP3    H151611   0.363   5.091   2.830  0.0010 -0.1450  1.0726
10040TIP3    H251612   0.462   4.992   2.772  0.9830  1.5059 -0.1629
10041TIP3   OH251613   0.213   3.483  12.978  0.2653 -0.4400  0.1962
10041TIP3    H151614   0.169   3.525  12.904  0.5138 -0.5388 -0.0072
10041TIP3    H251615   0.193   3.540  13.052  1.6424  0.7477 -0.2950
10042TIP3   OH251616   0.916   1.273  13.116 -0.3771 -0.3067  0.5101
10042TIP3    H151617   0.934   1.185  13.149  0.4182 -0.2219  0.3363
10042TIP3    H251618   0.918   1.264  13.020  0.7128  0.0748  0.4808
10043TIP3   OH251619   6.269   1.706  11.619  0.0137  0.3752  0.1759
10043TIP3    H151620   6.182   1.667  11.620 -0.3778  1.1320 -1.4224
10043TIP3    H251621   6.263   1.781  11.678 -0.1300 -0.1458  0.8259
10044TIP3   OH251622   0.133   3.936   0.503  0.0024 -0.1721 -0.1323
10044TIP3    H151623   0.159   3.893   0.421 -1.0883  1.0226 -1.1474
10044TIP3    H251624   0.043   3.907   0.518  0.0490 -0.0405  0.4053
10045TIP3   OH251625   4.637   0.929  12.703 -0.2822  0.1918 -0.3717
10045TIP3    H151626   4.669   0.941  12.792 -1.9988  0.6565  0.2308
10045TIP3    H251627   4.659   0.839  12.681  0.2751  0.1145  0.4707
10046TIP3   OH251628   1.849   5.329  11.086  0.0820  0.2306  0.2549
10046TIP3    H151629   1.842   5.370  11.000  0.0016 -0.7596 -0.2209
10046TIP3    H251630   1.797   5.249  11.079 -0.9236  0.7202  1.6017
10047TIP3   OH251631   2.443   4.502   1.629 -0.8520 -0.3586  0.3714
10047TIP3    H151632   2.485   4.537   1.550  1.3536 -1.7834  0.8245
10047TIP3    H251633   2.349   4.506   1.610 -0.4133 -0.1292 -2.0841
10048TIP3   OH251634   1.098   1.693  17.342 -0.1065 -0.0939 -0.3875
10048TIP3    H151635   1.052   1.622  17.386 -0.8710  1.0864  0.7975
10048TIP3    H251636   1.181   1.654  17.314 -0.9940 -1.7568 -0.8540
10049TIP3   OH251637   4.964   2.500  15.927  0.0599  0.2164 -0.0659
10049TIP3    H151638   4.966   2.414  15.969  1.2416 -0.3318 -1.1835
10049TIP3    H251639   4.952   2.562  15.999 -0.8513 -0.8712  0.7530
10050TIP3   OH251640   1.804   5.330   0.562 -0.2821 -0.4887 -0.0694
10050TIP3    H151641   1.738   5.299   0.500  0.7982  0.9020 -2.0331
10050TIP3    H251642   1.888   5.303   0.523  0.5774  2.7274 -0.7527
10051TIP3   OH251643   3.846   6.531   2.036 -0.2007 -0.0987 -0.6195
10051TIP3    H151644   3.929   6.487   2.058  0.8891  1.9830 -0.3271
10051TIP3    H251645   3.827   6.503   1.947  1.6008  0.4703 -1.2184
10052TIP3   OH251646   0.302   6.097  14.790  0.1147 -0.5366 -0.3559
10052TIP3    H151647   0.333   6.074  14.702  0.6049 -1.4697  0.0441
10052TIP3    H251648   0.225   6.042  14.803 -2.2023  2.1780 -1.5694
10053TIP3   OH251649   5.258   2.025   2.903 -0.6186 -0.1225 -0.1868
10053TIP3    H151650   5.246   2.102   2.848 -1.3847 -0.2023 -0.1457
10053TIP3    H251651   5.351   2.006   2.899 -0.5194  0.4585 -0.6651
10054TIP3   OH251652   2.360   4.107   0.560 -0.8552  0.1850  0.3575
10054TIP3    H151653   2.412   4.041   0.605 -0.3015  0.5923  0.3225
10054TIP3    H251654   2.310   4.058   0.495 -0.0873 -0.1441  0.0039
10055TIP3   OH251655   2.966   6.504  16.910 -0.2764 -0.3388 -0.3075
10055TIP3    H151656   2.932   6.585  16.872 -0.3546 -0.6159 -0.8322
10055TIP3    H251657   2.898   6.476  16.972  0.2351  0.5715  0.6920
10056TIP3   OH251658   0.338   3.326  13.384 -0.0986 -0.1778  0.1870
10056TIP3    H151659   0.395   3.272  13.330 -0.2852  1.4027 -1.7046
10056TIP3    H251660   0.381   3.411  13.387 -1.0015  0.2711  1.0558
10057TIP3   OH251661   4.924   1.530   2.695  0.3099 -0.2955 -0.0199
10057TIP3    H151662   4.849   1.524   2.636 -0.1149  0.6359  0.4071
10057TIP3    H251663   4.979   1.598   2.656 -0.2618  0.7565  0.9411
10058TIP3   OH251664   3.646   0.353  15.007 -0.1926  0.3987 -0.3314
10058TIP3    H151665   3.594   0.338  14.928  0.1309  1.9504 -0.8755
10058TIP3    H251666   3.717   0.290  15.001 -2.0216 -1.8835  0.5136
10059TIP3   OH251667   2.052   1.608   2.158  0.0425 -0.3107 -0.6420
10059TIP3    H151668   1.963   1.584   2.183  0.3495 -0.1880  0.6531
10059TIP3    H251669   2.044   1.696   2.120 -0.2208  0.2840  0.7402
10060TIP3   OH251670   0.027   4.861   3.853  0.3126 -0.2165 -0.2409
10060TIP3    H151671   0.054   4.901   3.936  0.3556  0.9348 -0.7866
10060TIP3    H251672  -0.054   4.815   3.874  0.6099 -0.4035  0.5503
10061TIP3   OH251673   1.163   4.100   4.795 -0.1903 -0.2190  0.2546
10061TIP3    H151674   1.220   4.170   4.826  0.8056 -0.5300 -0.8093
10061TIP3    H251675   1.107   4.142   4.730  0.8981 -0.5275 -0.9190
10062TIP3   OH251676   1.826   2.793  17.092 -0.0191  0.5917  0.5374
10062TIP3    H151677   1.745   2.785  17.042 -0.8803 -0.2562  1.9991
10062TIP3    H251678   1.886   2.730  17.052 -1.5698 -2.0561  2.1051
10063TIP3   OH251679   1.559   6.481  12.774  0.1030  0.3084 -0.6612
10063TIP3    H151680   1.634   6.530  12.741 -0.1876  1.3811  0.1851
10063TIP3    H251681   1.506   6.461  12.697  0.0035  1.7628 -1.0044
10064TIP3   OH251682   6.533   3.606  12.757 -0.0478 -0.4715  0.0068
10064TIP3    H151683   6.468   3.651  12.702 -0.7128 -0.1627  1.0214
10064TIP3    H251684   6.566   3.675  12.814  1.7020 -0.4676 -0.9465
10065TIP3   OH251685   3.831   3.411  15.073  0.1491  0.4322 -0.1724
10065TIP3    H151686   3.771   3.344  15.106 -0.7319  1.4269  0.2756
10065TIP3    H251687   3.861   3.457  15.151  0.0841  1.1140 -0.5433
10066TIP3   OH251688   1.355   6.335   4.823  0.0521 -0.2720 -0.4855
10066TIP3    H151689   1.426   6.374   4.772  1.0654 -0.5092  0.7132
10066TIP3    H251690   1.399   6.292   4.896 -1.4634  2.2565  2.1181
10067TIP3   OH251691   0.400   4.979  14.850 -0.0375  0.5721  0.5718
10067TIP3    H151692   0.337   4.950  14.784  0.5719  0.4539  0.0232
10067TIP3    H251693   0.416   4.901  14.904  1.2817 -0.0596 -0.6452
10068TIP3   OH251694   5.513   4.408  15.795  0.0287  0.3635  0.3301
10068TIP3    H151695   5.444   4.348  15.822 -0.4966  0.2862 -1.1490
10068TIP3    H251696   5.587   4.351  15.772 -1.0555  0.0660 -2.8422
10069TIP3   OH251697   5.367   3.488   1.002  0.3808 -0.4252 -0.1616
10069TIP3    H151698   5.418   3.509   1.080  0.2370 -1.1119  0.1191
10069TIP3    H251699   5.319   3.409   1.025 -0.5399  0.0086 -0.5536
10070TIP3   OH251700   6.364   3.772  12.637  0.1515  0.7809 -0.6966
10070TIP3    H151701   6.295   3.824  12.677 -0.1078 -0.4661  0.5241
10070TIP3    H251702   6.402   3.830  12.570  0.5741  2.9117  1.2859
10071TIP3   OH251703   5.469   0.956  16.092 -0.1227  0.2768 -0.4918
10071TIP3    H151704   5.500   1.018  16.158  0.0426 -0.3365  0.0101
10071TIP3    H251705   5.521   0.977  16.014  1.0664 -0.2724  0.1338
10072TIP3   OH251706   6.317   0.990  12.502 -0.2510 -0.2685 -0.2635
10072TIP3    H151707   6.386   1.027  12.447 -1.6664  3.4077  0.1968
10072TIP3    H251708   6.359   0.975  12.586  0.3325  0.5350 -0.4024
10073TIP3   OH251709   1.078   2.245  17.336  0.0316  0.2647 -0.1127
10073TIP3    H151710   1.106   2.268  17.424 -1.0782 -0.2893  0.3996
10073TIP3    H251711   1.109   2.155  17.323 -2.1158 -0.6602  0.7715
10074TIP3   OH251712   6.318   3.442   0.618 -0.1412  0.1685 -0.1387
10074TIP3    H151713   6.300   3.397   0.700  0.4483 -2.4581 -1.3244
10074TIP3    H251714   6.258   3.402   0.555  0.3557  1.1191 -1.2640
10075TIP3   OH251715   3.305   1.490  13.108 -0.4085 -0.4858 -0.1204
10075TIP3    H151716   3.264   1.483  13.021 -0.9759  0.1777  0.0827
10075TIP3    H251717   3.343   1.404  13.123  2.0186  0.1157 -2.1759
10076TIP3   OH251718   1.678   5.243   6.422  0.4316  0.2893 -0.1866
10076TIP3    H151719   1.720   5.190   6.490 -2.0376 -0.4517  0.9266
10076TIP3    H251720   1.645   5.179   6.359 -0.3924  0.6588 -0.1507
10077TIP3   OH251721   4.980   6.360   0.901  0.2771  0.3665  0.1059
10077TIP3    H151722   5.009   6.410   0.978 -0.6346  1.5882 -0.2974
10077TIP3    H251723   4.917   6.297   0.936  0.0880  0.7194  0.4067
10078TIP3   OH251724   1.751   3.024  16.406 -0.3135  0.9378  0.1788
10078TIP3    H151725   1.666   3.016  16.449 -0.1523  1.4817  0.6024
10078TIP3    H251726   1.812   2.977  16.462 -0.4530 -0.0951 -0.5078
10079TIP3   OH251727   1.135   3.928   2.504 -0.0175  0.8514  0.2138
10079TIP3    H151728   1.181   3.993   2.557  0.2493  0.7848  0.0704
10079TIP3    H251729   1.186   3.924   2.423 -0.9660  1.6569 -0.4438
10080TIP3   OH251730   2.702   5.891   5.725  0.0005 -0.0404 -0.0824
10080TIP3    H151731   2.698   5.968   5.668 -0.3649 -0.0891 -0.1279
10080TIP3    H251732   2.678   5.923   5.811  0.7144  0.0646  0.0794
10081TIP3   OH251733   5.493   0.089  14.712  0.4220  0.5033 -0.5078
10081TIP3    H151734   5.427   0.022  14.698  1.0539 -1.1617  3.1966
10081TIP3    H251735   5.443   0.171  14.714 -1.0813 -0.3650 -0.7929
10082TIP3   OH251736   3.501   1.009  12.915  0.1115 -0.1621 -0.1590
10082TIP3    H151737   3.505   0.957  12.834 -1.6974  0.8499 -0.9809
10082TIP3    H251738   3.472   1.095  12.886  1.1054  0.7459  1.4039
10083TIP3   OH251739   1.136   5.771   2.112 -0.1520  0.1288  0.0379
10083TIP3    H151740   1.118   5.768   2.018 -0.3027  1.8495 -0.0191
10083TIP3    H251741   1.186   5.691   2.130  2.3732  1.1208 -2.0504
10084TIP3   OH251742   4.608   5.887   2.620  0.2713  0.1649  0.1352
10084TIP3    H151743   4.525   5.848   2.648  0.7854 -1.4023 -0.4413
10084TIP3    H251744   4.651   5.819   2.568  2.4602  0.5019  1.3735
10085TIP3   OH251745   3.205   5.478   1.571  0.6284  0.5859  0.1598
10085TIP3    H151746   3.190   5.463   1.478 -0.4575 -1.9231  0.6501
10085TIP3    H251747   3.119   5.500   1.606  0.8290  0.5231  0.7053
10086TIP3   OH251748   3.898   0.623  11.962 -0.3698  0.8123 -0.0431
10086TIP3    H151749   3.966   0.690  11.966  0.4888 -0.0923  1.1795
10086TIP3    H251750   3.828   0.656  12.019 -0.3227  1.0710 -0.1353
10087TIP3   OH251751   5.819   5.902   4.927  0.7681 -0.2914  0.0091
10087TIP3    H151752   5.753   5.893   4.858 -0.3544 -2.8724  1.2439
10087TIP3    H251753   5.771   5.942   5.000  0.4607 -2.1815  0.9137
10088TIP3   OH251754   4.382   2.241   5.989  0.2144 -0.1811 -0.4335
10088TIP3    H151755   4.380   2.186   6.067  1.1392 -1.1511 -1.0741
10088TIP3    H251756   4.468   2.225   5.950  0.7850  2.1832 -0.3338
10089TIP3   OH251757   0.880   6.194   4.343 -0.4137  1.0372 -0.1886
10089TIP3    H151758   0.946   6.234   4.287  0.1558  0.9540  0.4009
10089TIP3    H251759   0.841   6.124   4.290  1.4532 -0.3209  0.1341
10090TIP3   OH251760   5.785   4.575  13.898 -0.2199  0.2907  0.4014
10090TIP3    H151761   5.861   4.519  13.881  0.1162  0.4379  1.3393
10090TIP3    H251762   5.812   4.630  13.972 -1.2256  0.3805  0.7187
10091TIP3   OH251763   6.712   3.680  17.025 -0.4873  0.4380  0.2271
10091TIP3    H151764   6.682   3.626  16.952  0.0497  0.8355 -0.3041
10091TIP3    H251765   6.636   3.732  17.049 -0.8101 -0.0608  0.2842
10092TIP3   OH251766   0.155   4.715  14.535 -0.7468 -0.1268 -0.5032
10092TIP3    H151767   0.195   4.694  14.451 -1.0370 -1.8790 -0.2597
10092TIP3    H251768   0.103   4.793  14.518  2.3679  2.0245 -0.9032
10093TIP3   OH251769   4.651   5.814  15.764  0.2460 -0.6453 -0.0927
10093TIP3    H151770   4.732   5.852  15.730 -0.3032  0.0685 -0.6346
10093TIP3    H251771   4.596   5.801  15.687 -0.9286  0.7890  0.4638
10094TIP3   OH251772   1.009   6.698  16.721  0.7113 -0.4350 -0.0883
10094TIP3    H151773   0.962   6.771  16.760 -0.0665 -1.9168  1.9258
10094TIP3    H251774   0.946   6.657  16.662  1.3376  0.7777 -1.6978
10095TIP3   OH251775   2.779   1.537   4.547  0.4321  0.0358 -0.0881
10095TIP3    H151776   2.854   1.485   4.577 -0.4404 -0.8455  0.6661
10095TIP3    H251777   2.725   1.548   4.626  0.1395  1.3086 -0.4530
10096TIP3   OH251778   6.056   2.650  11.605  0.1104 -0.4500 -0.3570
10096TIP3    H151779   5.965   2.666  11.582  0.0589  0.5052  0.4281
10096TIP3    H251780   6.053   2.613  11.693  0.5413  1.3730  0.4667
10097TIP3   OH251781   1.560   3.299  15.998 -0.7516 -0.0470 -0.1242
10097TIP3    H151782   1.494   3.365  16.021 -0.9964 -0.3568  0.0628
10097TIP3    H251783   1.613   3.289  16.077  0.1160  0.8773 -0.5503
10098TIP3   OH251784   6.630   0.401  14.181  0.0014 -0.2850  0.2994
10098TIP3    H151785   6.600   0.451  14.257  1.4623  1.9724 -0.4937
10098TIP3    H251786   6.587   0.442  14.106 -0.1445 -1.4132 -0.2582
10099TIP3   OH251787   0.769   2.726  16.163  0.0850  0.5037 -0.0604
10099TIP3    H151788   0.704   2.773  16.112 -0.1763  0.5947  0.3492
10099TIP3    H251789   0.785   2.645  16.114 -1.2621 -0.1107  0.4603
10100TIP3   OH251790   2.558   6.435   5.125  0.8233  0.5574  0.2824
10100TIP3    H151791   2.600   6.520   5.114  0.0978  0.7462 -1.3443
10100TIP3    H251792   2.518   6.417   5.040  2.0486 -2.0300  0.1522
10101TIP3   OH251793   4.717   2.376  13.025  0.2787 -0.6613  0.1774
10101TIP3    H151794   4.631   2.378  13.066  0.4162  0.0459  0.4471
10101TIP3    H251795   4.744   2.467  13.021  1.0700 -0.8844  0.2151
10102TIP3   OH251796   4.770   3.179  13.320 -0.0600  0.0784 -0.5985
10102TIP3    H151797   4.677   3.158  13.330  0.0645 -0.6621 -0.9274
10102TIP3    H251798   4.780   3.199  13.226  0.1260  0.0924 -0.5765
10103TIP3   OH251799   6.647   1.091  10.523  0.4005 -0.1919 -0.0349
10103TIP3    H151800   6.642   1.117  10.614  2.1467 -2.3599  0.7901
10103TIP3    H251801   6.739   1.101  10.500  0.0559 -0.0157 -1.4544
10104TIP3   OH251802   0.622   3.674  10.566 -0.3114  0.1166 -0.0399
10104TIP3    H151803   0.693   3.687  10.630  0.1993  1.3835 -0.8416
10104TIP3    H251804   0.582   3.591  10.593  0.1715  0.3837  1.6534
10105TIP3   OH251805   0.914   1.312  12.405  0.0873  0.3740  0.5198
10105TIP3    H151806   0.936   1.254  12.332  0.8127  0.4532  0.6745
10105TIP3    H251807   0.961   1.276  12.479 -1.0083  0.0282  1.0673
10106TIP3   OH251808   3.345   3.856   1.677 -0.1481 -0.5412 -0.0487
10106TIP3    H151809   3.259   3.860   1.636  0.4835  1.6624 -1.3456
10106TIP3    H251810   3.374   3.947   1.681  0.4046 -0.7078  4.2570
10107TIP3   OH251811   5.368   4.583   0.700 -0.0609  0.2837 -0.0640
10107TIP3    H151812   5.371   4.678   0.688 -0.0087  0.4715  1.3116
10107TIP3    H251813   5.335   4.549   0.617  2.1720  1.3176 -1.4605
10108TIP3   OH251814   3.046   1.118  11.425 -0.0169 -0.2457  0.0504
10108TIP3    H151815   2.974   1.172  11.459  0.2161 -0.9988  1.8747
10108TIP3    H251816   3.038   1.035  11.473  0.2345 -1.5085 -1.9671
10109TIP3   OH251817   2.434   2.136  11.611  0.1383  0.4222 -0.0206
10109TIP3    H151818   2.387   2.184  11.679  0.3876  1.2525 -0.4099
10109TIP3    H251819   2.473   2.205  11.556  1.4979 -0.2273  0.0805
10110TIP3   OH251820   4.105   2.790   2.884 -0.4249 -0.3433 -0.5916
10110TIP3    H151821   4.187   2.740   2.889 -0.3090 -0.0335  1.4246
10110TIP3    H251822   4.134   2.880   2.871 -0.4432 -0.2713 -0.1525
10111TIP3   OH251823   1.339   4.955   5.714 -0.1879 -0.1503  0.2945
10111TIP3    H151824   1.370   5.044   5.700  0.7986 -0.6726 -1.1657
10111TIP3    H251825   1.341   4.915   5.627 -0.5734 -1.6015  0.9188
10112TIP3   OH251826   1.674   4.139   5.117 -0.0991  0.8499  0.4557
10112TIP3    H151827   1.604   4.115   5.057  1.5606 -2.4595 -0.4182
10112TIP3    H251828   1.749   4.087   5.088  1.8934  2.0235  3.0777
10113TIP3   OH251829   1.083   5.818  15.109 -0.0297  0.3639 -0.7548
10113TIP3    H151830   1.163   5.781  15.070 -1.1374 -1.3221 -1.5748
10113TIP3    H251831   1.018   5.813  15.039 -1.5159 -0.7024  0.6247
10114TIP3   OH251832   3.333   0.865   5.231 -0.2417 -0.1713 -0.1490
10114TIP3    H151833   3.362   0.923   5.161 -1.8453  1.8047  0.7184
10114TIP3    H251834   3.372   0.901   5.311  0.1908 -1.3866  0.2104
10115TIP3   OH251835   3.979   4.365  11.844  0.0266  0.0658 -0.8331
10115TIP3    H151836   3.901   4.351  11.790 -0.9966 -0.5058  0.6968
10115TIP3    H251837   3.983   4.288  11.901  0.8317  0.7931  0.1426
10116TIP3   OH251838   3.766   5.409  12.313 -0.2387  0.1587  0.1358
10116TIP3    H151839   3.709   5.399  12.389  0.3918  0.2640  0.6308
10116TIP3    H251840   3.806   5.322  12.301  0.5626  0.4430  0.6610
10117TIP3   OH251841   1.340   5.429  16.120  0.0618 -0.3713 -0.0543
10117TIP3    H151842   1.362   5.337  16.132 -0.3495 -0.8479 -2.3807
10117TIP3    H251843   1.343   5.467  16.208  0.9682 -2.4232  0.8581
10118TIP3   OH251844   6.091   4.879  14.125  0.1700  0.2951  0.1171
10118TIP3    H151845   6.119   4.961  14.166  0.9198  0.7019 -1.1662
10118TIP3    H251846   6.077   4.901  14.033 -0.3742 -0.8562 -0.0986
10119TIP3   OH251847   1.040   4.748  14.794 -0.0343 -0.0862  0.4438
10119TIP3    H151848   0.998   4.669  14.762  0.0753  0.5700 -1.5067
10119TIP3    H251849   0.976   4.787  14.854 -1.9253  0.4203 -1.7346
10120TIP3   OH251850   2.245   0.475  14.881 -0.1103 -0.4536  0.6633
10120TIP3    H151851   2.329   0.444  14.916 -0.0305  1.0454  1.9414
10120TIP3    H251852   2.188   0.399  14.884  0.7521 -1.0961  1.3001
10121TIP3   OH251853   5.361   2.164  14.166  0.2607 -0.3754  0.2459
10121TIP3    H151854   5.383   2.244  14.214  0.4559 -0.3877  0.1751
10121TIP3    H251855   5.439   2.109  14.173  0.1911 -0.4885  0.1412
10122TIP3   OH251856   3.372   1.390  13.549 -0.7174  0.2410 -0.4013
10122TIP3    H151857   3.343   1.300  13.558  0.7940 -0.1769  0.7400
10122TIP3    H251858   3.313   1.440  13.606  0.0846 -0.4514  1.1234
10123TIP3   OH251859   5.602   1.192   1.640  0.1260  0.3309 -0.2225
10123TIP3    H151860   5.689   1.228   1.655  0.0343  1.4375 -2.0325
10123TIP3    H251861   5.543   1.266   1.657 -0.2887  0.2075 -1.0897
10124TIP3   OH251862   6.262   4.159   0.311 -0.3370 -0.0168 -0.0605
10124TIP3    H151863   6.257   4.254   0.313  0.3080  0.0766 -1.6364
10124TIP3    H251864   6.269   4.137   0.218 -2.9261 -1.7376  0.0290
10125TIP3   OH251865   0.514   3.752   1.192 -0.1296  0.3022  0.1408
10125TIP3    H151866   0.552   3.697   1.261  0.0694  0.3207  0.0449
10125TIP3    H251867   0.526   3.842   1.223 -2.0840  0.2609  1.1707
10126TIP3   OH251868   4.792   0.196  14.511  0.1862  0.2395 -0.3659
10126TIP3    H151869   4.769   0.164  14.423 -1.1538  0.8098 -0.2418
10126TIP3    H251870   4.778   0.120  14.568 -0.2618  0.2458 -0.4624
10127TIP3   OH251871   2.773   3.102  17.133 -0.3196  0.0030 -0.3430
10127TIP3    H151872   2.843   3.055  17.087 -0.6665 -2.0873  1.1568
10127TIP3    H251873   2.806   3.191  17.140  1.3610 -0.4796 -1.3310
10128TIP3   OH251874   1.858   5.724  16.331 -0.0071  0.1573 -0.1796
10128TIP3    H151875   1.819   5.658  16.273 -0.0315  1.0011 -1.1533
10128TIP3    H251876   1.909   5.673  16.394  1.2281 -0.7417 -1.8249
10129TIP3   OH251877   5.737   2.545  13.237  0.1011  0.2945 -0.0599
10129TIP3    H151878   5.698   2.501  13.312 -0.1892 -1.4499 -1.1805
10129TIP3    H251879   5.673   2.611  13.211 -2.6151 -2.8113 -2.1782
10130TIP3   OH251880   4.226   4.475  11.905 -0.2398 -0.3237  0.0677
10130TIP3    H151881   4.133   4.450  11.898 -0.3321 -0.6105  1.9415
10130TIP3    H251882   4.245   4.470  11.998  1.0807  1.8866 -0.0234
10131TIP3   OH251883   3.833   6.568   3.634  0.1370  0.3766 -0.5081
10131TIP3    H151884   3.828   6.662   3.614 -0.0267  0.5766  0.4346
10131TIP3    H251885   3.921   6.557   3.671 -0.7742  0.7145  1.9848
10132TIP3   OH251886   3.323   3.760  17.094  0.4396  0.3523 -0.8208
10132TIP3    H151887   3.267   3.836  17.081 -0.6819 -0.2601  0.1806
10132TIP3    H251888   3.332   3.721  17.008  0.4522  1.2176 -1.2194
10133TIP3   OH251889   5.785   6.647   5.066 -0.0811  0.2991  0.1116
10133TIP3    H151890   5.868   6.670   5.107 -0.3654  3.2796 -0.7211
10133TIP3    H251891   5.789   6.687   4.980 -1.4264 -1.6609 -0.9250
10134TIP3   OH251892   1.050   3.190  16.263 -0.9676  0.3049  0.1967
10134TIP3    H151893   1.070   3.235  16.181 -1.1839 -2.3684 -1.4257
10134TIP3    H251894   1.118   3.124  16.272 -1.1275  0.3270  2.0551
10135TIP3   OH251895   2.276   1.291  16.937 -0.3175 -0.8095 -0.5851
10135TIP3    H151896   2.319   1.242  16.867  0.1442 -0.4598 -0.5467
10135TIP3    H251897   2.270   1.228  17.009  0.3051 -0.8033 -0.5241
10136TIP3   OH251898   2.368   3.185   4.919 -0.1775  0.4003  0.2030
10136TIP3    H151899   2.455   3.154   4.947 -0.2824 -0.8862 -0.8047
10136TIP3    H251900   2.364   3.275   4.950  2.1867  1.0459 -1.1242
10137TIP3   OH251901   5.741   3.096  13.756  0.0354 -0.0497 -0.3632
10137TIP3    H151902   5.727   3.144  13.837 -0.2757  0.8815 -0.9609
10137TIP3    H251903   5.780   3.160  13.696  0.2502 -0.7204 -0.9605
10138TIP3   OH251904   4.318   6.503  16.919  0.3301  0.1856 -0.0744
10138TIP3    H151905   4.318   6.550  17.002 -2.6012  1.0311 -0.4458
10138TIP3    H251906   4.225   6.487  16.900  0.7778  1.0676 -3.7522
10139TIP3   OH251907   2.881   1.503   5.739  0.2855  0.3437  0.4285
10139TIP3    H151908   2.899   1.421   5.694  0.1656  0.9343 -0.7316
10139TIP3    H251909   2.833   1.477   5.818 -3.0963 -0.5086 -1.7039
10140TIP3   OH251910   0.235   4.343  13.779  0.1192  0.1132  0.0266
10140TIP3    H151911   0.295   4.380  13.714 -0.3987 -1.5757 -1.4882
10140TIP3    H251912   0.288   4.336  13.859  0.6994  2.4552 -0.0637
10141TIP3   OH251913   4.155   3.709  15.145 -0.4561 -0.3693 -0.0659
10141TIP3    H151914   4.107   3.724  15.063 -1.7934 -0.6429  0.6403
10141TIP3    H251915   4.202   3.627  15.130 -0.2878 -0.1684 -0.7169
10142TIP3   OH251916   4.638   4.908  14.279 -0.5193  0.2487  0.0863
10142TIP3    H151917   4.607   4.937  14.193 -2.0051  3.0456  1.4717
10142TIP3    H251918   4.563   4.864  14.318 -0.7499  1.4530  1.0156
10143TIP3   OH251919   5.148   1.153   0.114 -0.6789 -0.0559  0.1244
10143TIP3    H151920   5.180   1.073   0.155  1.3229 -0.1097 -1.4015
10143TIP3    H251921   5.203   1.223   0.149  0.8654 -0.0609 -2.1032
10144TIP3   OH251922   1.762   3.942   4.907  0.4161 -0.1805  0.2189
10144TIP3    H151923   1.787   3.851   4.890  0.2122 -0.2940  0.5312
10144TIP3    H251924   1.841   3.993   4.886  0.5414 -0.4306  0.0789
10145TIP3   OH251925   2.007   1.000   2.784 -0.2945  0.0559 -0.8218
10145TIP3    H151926   2.059   1.005   2.704 -0.8323  1.3549 -1.1255
10145TIP3    H251927   2.022   0.912   2.817 -1.8673 -1.3582 -3.5572
10146TIP3   OH251928   1.082   1.398   1.141 -0.2639 -0.3801 -0.3582
10146TIP3    H151929   1.049   1.449   1.067  1.7854 -0.6925 -1.5768
10146TIP3    H251930   1.134   1.460   1.192  1.4178 -0.9330 -1.3031
10147TIP3   OH251931   3.383   1.397  11.511  0.0533 -0.3694 -0.2564
10147TIP3    H151932   3.471   1.433  11.500 -1.7078  4.4557 -0.9455
10147TIP3    H251933   3.347   1.394  11.422 -0.3838 -2.8229 -0.0550
10148TIP3   OH251934   0.684   1.682  12.212 -0.1786 -0.2781  0.0667
10148TIP3    H151935   0.683   1.667  12.117  2.0616 -1.2703  0.1357
10148TIP3    H251936   0.619   1.620  12.247 -1.9740  0.9824 -0.8529
10149TIP3   OH251937   6.312   6.128  12.702  0.1377 -0.4535  0.4924
10149TIP3    H151938   6.342   6.105  12.790  2.7204 -1.4337 -0.5340
10149TIP3    H251939   6.222   6.095  12.697 -0.2932  0.2097  2.9386
10150TIP3   OH251940   4.748   0.180   3.611  0.4015 -0.2343 -0.2844
10150TIP3    H151941   4.816   0.186   3.545 -0.1817 -1.2091 -1.0033
10150TIP3    H251942   4.699   0.101   3.588 -2.2016  1.4503 -0.9848
10151TIP3   OH251943   1.101   3.267   3.285 -0.0107  0.0755  0.0900
10151TIP3    H151944   1.077   3.312   3.366 -1.9733 -0.6843 -0.0070
10151TIP3    H251945   1.082   3.175   3.302 -0.1229 -0.1415 -1.1198
10152TIP3   OH251946   2.227   5.639   2.676 -0.4934  0.0940  0.3674
10152TIP3    H151947   2.192   5.595   2.599 -0.3526 -0.8667  0.8450
10152TIP3    H251948   2.319   5.653   2.655 -0.6161  0.4927  0.0743
10153TIP3   OH251949   6.621   3.715   2.307 -0.1178 -0.1914 -0.0354
10153TIP3    H151950   6.692   3.672   2.259  0.7773 -0.5901  1.5736
10153TIP3    H251951   6.542   3.669   2.280  0.0255  0.9129 -2.6461
10154TIP3   OH251952   2.041   2.863  10.920 -0.6477 -0.4450 -0.0137
10154TIP3    H151953   1.949   2.838  10.914 -1.0451  0.3708  2.0076
10154TIP3    H251954   2.047   2.914  11.001  1.5828 -0.4601 -0.1098
10155TIP3   OH251955   6.525   1.975  15.349 -0.4400  0.0978 -0.1477
10155TIP3    H151956   6.574   2.044  15.393  0.7129  0.2205 -1.5579
10155TIP3    H251957   6.462   2.022  15.294  2.1789  0.2800 -3.2836
10156TIP3   OH251958   5.535   1.314   3.962  0.2390  0.1811  0.4400
10156TIP3    H151959   5.457   1.320   3.908 -0.8717 -1.4012  1.7675
10156TIP3    H251960   5.598   1.266   3.907  0.5778  2.0307 -0.8759
10157TIP3   OH251961   0.701   4.398   3.754 -0.5062  0.1674 -0.2205
10157TIP3    H151962   0.619   4.419   3.710 -0.9212 -1.7615 -0.4151
10157TIP3    H251963   0.760   4.371   3.683  0.4764  1.9351 -0.1373
10158TIP3   OH251964   1.079   0.962   5.333 -0.2584  0.0447 -0.1530
10158TIP3    H151965   1.157   0.971   5.388 -0.9219  0.0665  0.7964
10158TIP3    H251966   1.113   0.937   5.247  0.6494 -2.8213  0.9351
10159TIP3   OH251967   4.869   0.578   4.195 -0.2560 -0.2700  0.0364
10159TIP3    H151968   4.794   0.613   4.148 -0.1790  1.1815  0.9265
10159TIP3    H251969   4.835   0.555   4.281 -0.1677 -1.8829 -0.3248
10160TIP3   OH251970   0.654   1.653   6.007  0.2240 -0.0541  0.3745
10160TIP3    H151971   0.726   1.706   6.041 -0.6328  1.2331  0.2605
10160TIP3    H251972   0.642   1.583   6.072  1.8538 -0.5646  0.1615
10161TIP3   OH251973   5.127   1.277  12.842  0.4194 -0.0005  0.1144
10161TIP3    H151974   5.077   1.359  12.846  1.7766  0.8353  0.6134
10161TIP3    H251975   5.061   1.209  12.855 -0.8986  0.9283 -1.2614
10162TIP3   OH251976   0.575   4.434   4.679 -0.1825 -0.3163 -0.8555
10162TIP3    H151977   0.613   4.449   4.593  1.5210 -0.6099 -0.2085
10162TIP3    H251978   0.606   4.347   4.704  0.4508  0.2943  0.5797
10163TIP3   OH251979   5.975   2.502  16.816 -0.1335 -0.2421 -0.3923
10163TIP3    H151980   5.996   2.578  16.870  1.6062 -0.2813 -0.9562
10163TIP3    H251981   5.895   2.465  16.855 -1.3683  2.1762 -0.4502
10164TIP3   OH251982   6.630   1.384   2.300  0.8320 -0.4984  0.6434
10164TIP3    H151983   6.720   1.362   2.274  0.0286 -2.1792 -1.0145
10164TIP3    H251984   6.584   1.300   2.300 -0.3807  0.0842  3.1801
10165TIP3   OH251985   4.852   0.930  11.727 -0.4200 -0.0411 -0.3124
10165TIP3    H151986   4.846   0.845  11.769  1.5464 -0.4633 -0.7861
10165TIP3    H251987   4.797   0.987  11.780 -1.0728 -1.4020  0.5186
10166TIP3   OH251988   5.615   1.371  15.095  0.6697 -0.0560 -0.1676
10166TIP3    H151989   5.557   1.342  15.165  0.5602 -2.2561 -1.0976
10166TIP3    H251990   5.617   1.298  15.033  1.0614  1.6644 -2.2940
10167TIP3   OH251991   4.740   0.012  17.234 -0.2078  0.1010 -0.6398
10167TIP3    H151992   4.785  -0.047  17.173  0.0209 -0.1109 -0.2677
10167TIP3    H251993   4.652   0.022  17.196  0.6549  1.9294 -2.3370
10168TIP3   OH251994   6.107   0.696  13.657  0.4481  0.9207  0.2522
10168TIP3    H151995   6.197   0.709  13.687  1.0816  0.2198 -1.2690
10168TIP3    H251996   6.068   0.783  13.660  2.3770  2.0338 -2.7411
10169TIP3   OH251997   6.236   6.379   4.497 -0.3711  0.1675 -0.1244
10169TIP3    H151998   6.260   6.302   4.549  0.6510  0.1158 -0.6556
10169TIP3    H251999   6.319   6.418   4.471 -0.8695  1.4784  0.1475
10170TIP3   OH252000   0.886   1.373  15.827  0.5468 -0.2446  0.0917
10170TIP3    H152001   0.809   1.349  15.776  0.4633  2.0980 -1.0120
10170TIP3    H252002   0.863   1.350  15.917 -2.2053  1.9183  0.0627
10171TIP3   OH252003   4.666   3.426   4.305 -0.1298 -0.5069  0.9353
10171TIP3    H152004   4.756   3.456   4.316 -0.3066  0.9719 -0.9906
10171TIP3    H252005   4.671   3.331   4.313  1.7087 -0.5036  0.3328
10172TIP3   OH252006   5.041   5.733  14.423 -0.1360 -0.9538  0.4670
10172TIP3    H152007   5.070   5.642  14.429  0.1264 -0.8608  0.6430
10172TIP3    H252008   5.109   5.777  14.371  0.2156 -0.6680  1.1518
10173TIP3   OH252009   5.918   0.954  12.142  0.3280  0.1284 -0.3950
10173TIP3    H152010   5.832   0.930  12.175 -0.2005  0.1740 -1.6961
10173TIP3    H252011   5.955   1.009  12.211 -1.1092  0.9948 -0.2801
10174TIP3   OH252012   5.179   3.792   0.722 -0.5889  0.2794 -0.1571
10174TIP3    H152013   5.230   3.868   0.695  0.5779 -0.0428  1.0411
10174TIP3    H252014   5.242   3.735   0.767 -1.4402 -1.3837 -0.9721
10175TIP3   OH252015   0.972   1.291   5.196 -0.2027  0.1839  0.0305
10175TIP3    H152016   1.038   1.240   5.244  0.2779  0.2985 -0.5014
10175TIP3    H252017   0.892   1.279   5.247 -0.1898 -1.3923 -0.2643
10176TIP3   OH252018   3.301   4.183   5.401  0.8721  0.1752 -0.0559
10176TIP3    H152019   3.316   4.277   5.396 -0.0683  0.3905  0.8449
10176TIP3    H252020   3.258   4.170   5.486  1.2270 -1.0956 -0.0507
10177TIP3   OH252021   6.344   5.832  13.062  0.1179  0.2833  0.0555
10177TIP3    H152022   6.391   5.916  13.056 -0.1905  0.4437 -0.1387
10177TIP3    H252023   6.361   5.790  12.978  0.9534 -0.2160  0.4614
10178TIP3   OH252024   4.614   2.072  17.499  0.2393 -0.1877  0.1278
10178TIP3    H152025   4.523   2.064  17.471 -0.0692 -0.2221  1.1199
10178TIP3    H252026   4.654   1.988  17.475 -0.0235 -0.2373 -0.1501
10179TIP3   OH252027   2.070   5.540  12.757 -0.0631 -0.0744 -0.1560
10179TIP3    H152028   2.040   5.469  12.701 -0.0221  0.2535 -0.6025
10179TIP3    H252029   2.126   5.593  12.700  0.3290  0.0263  0.3138
10180TIP3   OH252030   5.069   5.714  16.263 -0.5660  0.4729  0.2804
10180TIP3    H152031   4.993   5.657  16.263 -0.0699 -0.2175 -0.9445
10180TIP3    H252032   5.143   5.656  16.280  0.0728  0.5164 -2.1112
10181TIP3   OH252033   4.223   2.076  11.334 -0.6899  0.4978  0.1827
10181TIP3    H152034   4.161   2.076  11.262 -0.1873  1.1326 -0.2634
10181TIP3    H252035   4.241   2.169  11.351  1.4179  0.3368 -0.8534
10182TIP3   OH252036   2.360   5.308   5.079  0.4458 -0.1403 -0.2985
10182TIP3    H152037   2.433   5.363   5.052  1.3083 -0.2932  1.5743
10182TIP3    H252038   2.401   5.229   5.116 -0.6702 -0.4452  0.3421
10183TIP3   OH252039   0.404   3.535  14.180  0.5087 -0.3318 -0.1690
10183TIP3    H152040   0.370   3.459  14.227  0.7244 -0.8950 -0.8970
10183TIP3    H252041   0.349   3.541  14.102  2.0445 -1.3040 -1.4138
10184TIP3   OH252042   2.781   1.910   3.638  0.6007  0.0450  0.3436
10184TIP3    H152043   2.757   1.823   3.604  0.2290  0.3868 -0.3034
10184TIP3    H252044   2.853   1.894   3.698 -0.4392 -0.8836  1.3755
10185TIP3   OH252045   5.406   4.419  13.126  0.0185  0.9308  0.1414
10185TIP3    H152046   5.363   4.353  13.072  1.4496 -1.1814  1.4288
10185TIP3    H252047   5.336   4.481  13.149 -1.2578  0.1763 -1.5320
10186TIP3   OH252048   3.381   0.150  15.066  0.3329 -0.0904 -0.0662
10186TIP3    H152049   3.360   0.109  14.983  0.0411 -0.5764  0.2462
10186TIP3    H252050   3.301   0.195  15.093  0.1861 -0.5729  0.3206
10187TIP3   OH252051   1.548   3.640  13.890  0.8168  0.0376 -0.0531
10187TIP3    H152052   1.512   3.678  13.970  2.8257  1.4984  0.2172
10187TIP3    H252053   1.628   3.689  13.873 -0.3952  1.0624 -3.9729
10188TIP3   OH252054   4.730   3.871  11.902 -0.0780 -0.6386 -0.5945
10188TIP3    H152055   4.771   3.954  11.924  1.1022 -1.2691 -0.2736
10188TIP3    H252056   4.662   3.858  11.968 -1.3723  0.7996 -1.5939
10189TIP3   OH252057   0.745   1.982  11.161  0.2889 -0.7750  0.4859
10189TIP3    H152058   0.801   2.001  11.086  0.6706  1.0710  1.1939
10189TIP3    H252059   0.686   2.057  11.166 -0.6802 -1.5612  1.1944
10190TIP3   OH252060   2.954   5.276   3.228 -0.1135 -0.1980 -0.9106
10190TIP3    H152061   2.904   5.355   3.211  1.6900  1.0251 -0.7857
10190TIP3    H252062   2.888   5.207   3.238 -1.6671  0.7763 -3.4738
10191TIP3   OH252063   5.184   3.034   4.460 -0.0860 -0.3898 -0.0549
10191TIP3    H152064   5.114   3.073   4.406 -1.7762 -0.1039  2.1760
10191TIP3    H252065   5.258   3.025   4.400 -1.1479  1.8368 -1.8855
10192TIP3   OH252066   4.346   0.210  11.368  0.1270  0.3437  0.1225
10192TIP3    H152067   4.274   0.239  11.425 -0.2560 -2.8350  1.4156
10192TIP3    H252068   4.305   0.147  11.308  1.5047 -0.1853 -0.2888
10193TIP3   OH252069   4.849   6.746   2.861 -0.2476  0.4967  0.0634
10193TIP3    H152070   4.784   6.687   2.898  0.3290 -0.7834 -0.8836
10193TIP3    H252071   4.829   6.831   2.900 -1.4688 -0.1896  1.0156
10194TIP3   OH252072   3.306   1.118  13.529 -0.2966 -0.1825  0.2030
10194TIP3    H152073   3.341   1.029  13.520  1.2257  0.4680 -0.7211
10194TIP3    H252074   3.227   1.118  13.474 -2.1081 -1.7744  2.5886
10195TIP3   OH252075   1.128   4.672   3.794 -0.3021  0.4118 -0.2883
10195TIP3    H152076   1.033   4.675   3.786 -0.4393 -1.4364  0.1065
10195TIP3    H252077   1.144   4.662   3.888  0.2332 -0.0877 -0.4239
10196TIP3   OH252078   1.632   5.230   4.657 -0.4069 -0.0419  0.1292
10196TIP3    H152079   1.710   5.250   4.709  1.1095  0.8979 -2.3633
10196TIP3    H252080   1.659   5.159   4.599 -0.8777  1.2633 -1.7824
10197TIP3   OH252081   3.772   4.243  11.744  0.2265 -0.1023 -0.1102
10197TIP3    H152082   3.785   4.148  11.743  0.9233 -0.0632  1.7572
10197TIP3    H252083   3.680   4.255  11.770  0.4089 -0.2669  0.6256
10198TIP3   OH252084   0.427   0.042   2.543 -0.1415 -0.1310 -0.3351
10198TIP3    H152085   0.453   0.022   2.633 -1.8457  1.7977  0.6797
10198TIP3    H252086   0.332   0.026   2.542 -0.5866  2.2321 -1.0151
10199TIP3   OH252087   5.416   6.297  13.050 -0.0502 -0.0282  0.0089
10199TIP3    H152088   5.320   6.298  13.045 -0.0382  0.8625 -0.2858
10199TIP3    H252089   5.435   6.276  13.142 -0.4802 -2.2265 -0.3597
10200TIP3   OH252090   6.061   0.768   0.684  0.4725  0.5948 -0.5670
10200TIP3    H152091   6.008   0.691   0.664  0.2193  0.5381  0.2677
10200TIP3    H252092   6.147   0.732   0.706  0.5922  0.6158 -0.9962
10201TIP3   OH252093   2.277   3.602   2.527 -0.3843  0.8187 -0.0387
10201TIP3    H152094   2.299   3.692   2.553 -1.2814  2.0516 -3.0444
10201TIP3    H252095   2.303   3.597   2.435 -0.6833 -1.9231 -0.0411
10202TIP3   OH252096   5.384   4.780   6.336  0.2855  0.8967 -0.0026
10202TIP3    H152097   5.309   4.809   6.284 -0.6978  0.5512  1.1658
10202TIP3    H252098   5.416   4.702   6.291 -0.9648  0.2079  0.2573
10203TIP3   OH252099   5.956   3.551  14.501  0.2798  0.1292  0.2715
10203TIP3    H152100   5.968   3.588  14.413  2.5813  1.8727  1.2281
10203TIP3    H252101   5.914   3.621  14.551  0.9728 -0.0275  1.0896
10204TIP3   OH252102   0.440   1.271   5.036  0.1901 -0.1158  0.2997
10204TIP3    H152103   0.364   1.323   5.064  1.3266  2.0564 -0.3816
10204TIP3    H252104   0.410   1.180   5.041 -2.0949  0.5943  1.0566
10205TIP3   OH252105   4.732   2.983  14.696 -0.7252  0.1474  0.0063
10205TIP3    H152106   4.738   3.008  14.604 -0.6167  0.3643  0.0721
10205TIP3    H252107   4.643   2.948  14.705  0.2346 -2.7331 -0.8780
10206TIP3   OH252108   6.488   6.538  11.694  0.0027 -0.2706  0.7438
10206TIP3    H152109   6.472   6.572  11.782 -0.9531  0.8640  0.1684
10206TIP3    H252110   6.554   6.597  11.657  0.1636 -0.5433  0.5990
10207TIP3   OH252111   2.342   4.096   6.607  0.0542 -0.0212 -0.1604
10207TIP3    H152112   2.303   4.107   6.694  1.8124 -0.5070  0.7405
10207TIP3    H252113   2.314   4.010   6.578  1.2121 -0.8094  0.9357
10208TIP3   OH252114   3.285   4.608  12.331  0.5023  0.4268 -0.1585
10208TIP3    H152115   3.294   4.552  12.409  0.2377 -0.2594 -0.6118
10208TIP3    H252116   3.235   4.555  12.270 -0.2367  1.3866 -0.3971
10209TIP3   OH252117   3.909   4.765   4.006 -0.2893  0.1092 -0.5202
10209TIP3    H152118   3.970   4.723   4.067 -0.5331 -0.2639 -0.5302
10209TIP3    H252119   3.880   4.695   3.948 -0.6033  0.3172 -0.6197
10210TIP3   OH252120   2.241   4.592   3.461 -0.2496  0.3231 -0.0812
10210TIP3    H152121   2.244   4.496   3.466 -1.5860  0.2883  0.4406
10210TIP3    H252122   2.279   4.612   3.375 -1.6060 -0.8067 -1.0113
10211TIP3   OH252123   5.959   1.910  13.147 -0.2973  0.4915  0.1148
10211TIP3    H152124   6.014   1.899  13.224  0.0076 -2.0246 -0.3425
10211TIP3    H252125   5.883   1.854  13.164  0.3623 -1.1299 -1.8357
10212TIP3   OH252126   5.893   0.195  10.922  0.1975  0.1044 -0.3686
10212TIP3    H152127   5.892   0.281  10.965  3.4346  0.8938 -1.5779
10212TIP3    H252128   5.895   0.133  10.995  1.2966  1.2155  0.6085
10213TIP3   OH252129   0.632   1.035   4.722  0.4457  0.0426 -0.3965
10213TIP3    H152130   0.662   0.984   4.647  2.3491 -0.5637  0.6949
10213TIP3    H252131   0.707   1.035   4.782  0.1285  3.1819  0.1536
10214TIP3   OH252132   1.331   6.076   0.184  0.0897 -0.1173  0.4921
10214TIP3    H152133   1.318   6.068   0.090 -0.3088  0.2022  0.5190
10214TIP3    H252134   1.426   6.067   0.196  0.1371 -0.1885  0.0649
10215TIP3   OH252135   2.108   0.530  12.083 -0.6516 -0.4092 -0.1042
10215TIP3    H152136   2.192   0.487  12.070  1.5153  3.5142 -0.7306
10215TIP3    H252137   2.043   0.464  12.059  2.2464 -3.2837 -0.7058
10216TIP3   OH252138   0.783   2.504  12.887  0.3775  0.3353  0.1969
10216TIP3    H152139   0.831   2.466  12.814 -3.6161 -3.5002 -0.8016
10216TIP3    H252140   0.804   2.448  12.961 -1.0900 -0.3038  0.1572
10217TIP3   OH252141   3.119   5.593  14.020 -0.3970 -0.3893  0.1962
10217TIP3    H152142   3.167   5.574  14.101 -0.6401 -0.8646  0.2360
10217TIP3    H252143   3.181   5.574  13.950 -0.6126 -1.3059  0.2384
10218TIP3   OH252144   6.185   6.194  13.260  0.2062 -0.1874  0.5564
10218TIP3    H152145   6.277   6.168  13.266  0.0394 -0.6944  1.1077
10218TIP3    H252146   6.143   6.123  13.212 -0.2145 -0.8859  1.8843
10219TIP3   OH252147   1.160   3.141   2.009 -0.2255  0.1162 -0.0607
10219TIP3    H152148   1.215   3.172   2.081 -0.6697  0.2610  0.2138
10219TIP3    H252149   1.093   3.209   1.999 -0.5415 -0.2137 -0.1927
10220TIP3   OH252150   4.394   0.922  17.056  0.2470 -0.1298 -0.0555
10220TIP3    H152151   4.481   0.919  17.016  0.3889 -1.0608  0.2918
10220TIP3    H252152   4.377   0.831  17.083  0.1541  0.4461  1.9888
10221TIP3   OH252153   0.461   5.748   1.308  0.0448 -0.2647  0.4374
10221TIP3    H152154   0.441   5.669   1.357 -1.7518 -0.2843 -0.2170
10221TIP3    H252155   0.414   5.737   1.225  0.0578  1.3090  0.1843
10222TIP3   OH252156   5.248   3.801   6.092  0.1193  0.1552  0.2629
10222TIP3    H152157   5.268   3.877   6.147  0.6005 -0.1337  0.4958
10222TIP3    H252158   5.266   3.831   6.003  1.5048 -0.0359  0.4450
10223TIP3   OH252159   3.741   3.114   5.552  0.1036 -0.5319  0.4385
10223TIP3    H152160   3.732   3.200   5.511 -0.9792 -0.6298  0.4437
10223TIP3    H252161   3.830   3.113   5.587  0.9578 -0.2949 -1.5651
10224TIP3   OH252162   1.336   4.096   3.509  0.2509  0.3514  0.1776
10224TIP3    H152163   1.311   4.113   3.418  3.3297 -0.1037 -0.8555
10224TIP3    H252164   1.430   4.110   3.511  0.3880 -0.3906  3.1646
10225TIP3   OH252165   4.473   4.346   3.047 -0.4113  0.0508 -0.2367
10225TIP3    H152166   4.445   4.429   3.083 -0.3304  0.2394 -0.6055
10225TIP3    H252167   4.446   4.348   2.955 -1.9375 -1.0338  0.1549
10226TIP3   OH252168   1.161   5.511  14.783 -0.2118  0.5081 -0.0554
10226TIP3    H152169   1.156   5.422  14.748  2.2677  1.3132 -2.9529
10226TIP3    H252170   1.087   5.557  14.742 -0.8238  0.0907  0.5536
10227TIP3   OH252171   2.053   5.812   6.116 -0.4944 -0.8455  0.2535
10227TIP3    H152172   2.020   5.868   6.046 -1.6490 -0.3491  1.1630
10227TIP3    H252173   2.025   5.724   6.091  0.2541 -0.8636 -0.5597
10228TIP3   OH252174   3.232   4.155   1.869 -0.3377 -0.4677 -0.2421
10228TIP3    H152175   3.174   4.111   1.933  0.2951 -2.5804 -1.0209
10228TIP3    H252176   3.314   4.105   1.874 -0.4551 -1.0728 -3.0689
10229TIP3   OH252177   3.808   6.218  13.375  0.5037 -0.6783 -0.2809
10229TIP3    H152178   3.822   6.203  13.469  0.1325  0.5448 -0.0025
10229TIP3    H252179   3.782   6.310  13.370 -0.1233 -0.9111 -1.5253
10230TIP3   OH252180   6.728   1.720  13.455 -0.4478  0.3024  0.0120
10230TIP3    H152181   6.693   1.712  13.366  1.4554  0.0173 -0.7807
10230TIP3    H252182   6.711   1.810  13.480 -2.3091 -0.0096 -0.0374
10231TIP3   OH252183   6.511   1.002  14.556  0.4983 -0.0700  0.4742
10231TIP3    H152184   6.602   0.973  14.545  0.1686 -0.6705 -0.8319
10231TIP3    H252185   6.516   1.068  14.625  2.1896  1.0857 -0.6665
10232TIP3   OH252186   6.432   1.326  11.775  0.2071 -0.3313 -0.4450
10232TIP3    H152187   6.385   1.267  11.834  0.3911 -0.1008 -0.0653
10232TIP3    H252188   6.399   1.413  11.798 -1.0344 -0.3742 -1.8831
10233TIP3   OH252189   3.902   2.044   4.258 -0.0195 -0.1195 -0.1419
10233TIP3    H152190   3.834   1.978   4.274 -1.9459  1.7897  0.1340
10233TIP3    H252191   3.887   2.072   4.168  2.1804 -1.4961 -1.0106
10234TIP3   OH252192   0.763   4.848   6.517  0.0888 -0.1639  0.0158
10234TIP3    H152193   0.721   4.825   6.600  1.0536  0.2256  0.6261
10234TIP3    H252194   0.705   4.914   6.479 -0.9537 -1.1545 -0.1826
10235TIP3   OH252195   3.594   0.770  17.230  0.6786 -0.5698  0.6459
10235TIP3    H152196   3.557   0.706  17.170 -0.0008 -0.5533  1.0357
10235TIP3    H252197   3.548   0.755  17.313  0.9288  0.0301  0.9006
10236TIP3   OH252198   1.488   5.566   0.992  0.0571 -0.3879 -0.3058
10236TIP3    H152199   1.470   5.533   0.904  1.2191 -0.5713 -0.4905
10236TIP3    H252200   1.472   5.660   0.986  0.4676 -0.3453 -0.8136
10237TIP3   OH252201   1.263   1.339  12.762 -0.0579 -0.1477  0.3651
10237TIP3    H152202   1.279   1.247  12.782 -0.9464 -0.9243 -2.1005
10237TIP3    H252203   1.350   1.378  12.754  0.3426 -0.9922  0.5263
10238TIP3   OH252204   4.401   3.011  17.497 -0.5286 -0.3610  0.0932
10238TIP3    H152205   4.339   2.955  17.451 -0.9988  1.8122 -2.0724
10238TIP3    H252206   4.484   2.996  17.452 -0.8678  1.3389 -1.1811
10239TIP3   OH252207   5.590   2.029  11.861 -0.5704 -0.3737  0.4188
10239TIP3    H152208   5.642   1.956  11.828  0.7071  0.5540  0.2699
10239TIP3    H252209   5.572   2.007  11.952 -1.3386 -1.4606  0.0268
10240TIP3   OH252210   0.224   2.637  17.170  0.7174 -0.2326 -0.1482
10240TIP3    H152211   0.210   2.570  17.237  1.3710 -1.5493 -1.2647
10240TIP3    H252212   0.152   2.624  17.108  0.6543  0.3443 -0.2005
10241TIP3   OH252213   4.309   5.610   3.837  0.5980 -0.0170  0.4327
10241TIP3    H152214   4.255   5.532   3.846  0.5054 -0.0021  0.0392
10241TIP3    H252215   4.248   5.678   3.807  0.9495 -0.1670 -0.6769
10242TIP3   OH252216   4.978   2.094   0.469  0.0469 -0.0733  0.1607
10242TIP3    H152217   5.000   2.024   0.408 -0.7558  0.0280 -0.2589
10242TIP3    H252218   4.975   2.173   0.415  0.6433  0.2394  0.5772
10243TIP3   OH252219   1.992   0.010   2.541 -0.0961  0.3275  0.0820
10243TIP3    H152220   1.950  -0.008   2.625 -0.3871 -0.5207 -0.2378
10243TIP3    H252221   1.943  -0.042   2.478 -0.5626  1.7731 -0.7944
10244TIP3   OH252222   2.260   3.073   0.446  0.0112 -0.0606  0.1479
10244TIP3    H152223   2.320   3.001   0.431  0.2357  0.3689 -1.1560
10244TIP3    H252224   2.199   3.069   0.372 -2.0573 -0.9395  1.7961
10245TIP3   OH252225   1.895   2.359  13.196  0.1576  0.3854  0.4628
10245TIP3    H152226   1.836   2.284  13.192  1.3186 -0.5611  0.5394
10245TIP3    H252227   1.938   2.352  13.281  1.0362  0.5366  0.0436
10246TIP3   OH252228   3.890   3.707   4.461 -0.7576 -0.5080 -0.1145
10246TIP3    H152229   3.935   3.738   4.539 -2.0909 -0.7956  0.8093
10246TIP3    H252230   3.957   3.657   4.413 -0.0620 -0.8366  1.1413
10247TIP3   OH252231   2.945   1.449  14.079  0.2760 -0.1237  0.0276
10247TIP3    H152232   2.972   1.433  14.169  1.3572 -1.5522 -0.5027
10247TIP3    H252233   2.949   1.544  14.068  0.4960  0.0300  1.3642
10248TIP3   OH252234   6.386   5.865   1.195  0.2938  0.0952  0.0721
10248TIP3    H152235   6.381   5.819   1.279  0.6875  0.0776  0.0909
10248TIP3    H252236   6.296   5.889   1.175  0.3324  1.2411  1.1390
10249TIP3   OH252237   0.333   1.459   3.336  0.2942 -0.8753  0.0944
10249TIP3    H152238   0.265   1.479   3.400 -0.0020 -1.5677  0.0135
10249TIP3    H252239   0.380   1.384   3.373  0.7206 -0.6911 -0.0663
10250TIP3   OH252240   0.832   6.148  15.029  0.0141  0.3239  0.5348
10250TIP3    H152241   0.801   6.219  14.974  0.4917 -0.0368 -0.2223
10250TIP3    H252242   0.759   6.129  15.088 -0.7122  0.3661 -0.3274
10251TIP3   OH252243   1.530   0.440  10.855  0.6093 -0.1184  0.2000
10251TIP3    H152244   1.569   0.527  10.852 -0.4990  0.3850  0.1817
10251TIP3    H252245   1.474   0.435  10.777  0.2819 -0.6570  0.4629
10252TIP3   OH252246   5.718   4.740   2.711 -0.1811  0.1168  0.4777
10252TIP3    H152247   5.762   4.655   2.703  0.8775  0.8243 -2.2833
10252TIP3    H252248   5.647   4.737   2.648  0.0160  1.3305  0.1688
10253TIP3   OH252249   4.241   5.892  17.078  0.2233 -0.0108  0.0076
10253TIP3    H152250   4.172   5.908  17.142  0.2329  1.0102 -0.2169
10253TIP3    H252251   4.321   5.884  17.131 -0.0625 -1.3142  0.2744
10254TIP3   OH252252   1.304   2.308   3.523  0.0383 -0.0809  0.0422
10254TIP3    H152253   1.333   2.340   3.609  0.3915 -0.9840  0.2660
10254TIP3    H252254   1.257   2.227   3.542 -1.2216  0.5164 -0.4799
10255TIP3   OH252255   6.046   3.450  11.803  0.5955 -0.0185 -0.1551
10255TIP3    H152256   5.981   3.517  11.783 -0.0029 -0.8945 -1.2828
10255TIP3    H252257   5.998   3.368  11.797  1.5961 -0.6301 -0.0578
10256TIP3   OH252258   5.989   0.241   5.148  0.1090 -0.2965  0.9747
10256TIP3    H152259   5.963   0.330   5.171 -1.0178 -0.4864  0.5153
10256TIP3    H252260   5.939   0.221   5.068  1.9960 -0.5591 -0.1952
10257TIP3   OH252261   2.315   2.884  10.924 -0.1839 -0.0009  0.0899
10257TIP3    H152262   2.220   2.886  10.939 -0.1211  1.1175  0.4229
10257TIP3    H252263   2.337   2.791  10.927 -1.1690 -0.2374  0.6946
10258TIP3   OH252264   2.612   4.792   1.014  0.2166  0.0589 -0.5029
10258TIP3    H152265   2.574   4.711   0.980  0.1259  0.4907 -1.4668
10258TIP3    H252266   2.538   4.838   1.055 -0.1161  0.4410 -1.4964
10259TIP3   OH252267   1.712   1.500  13.156 -0.0680 -0.0047  0.1382
10259TIP3    H152268   1.649   1.474  13.223  1.6579 -1.0468  1.4204
10259TIP3    H252269   1.789   1.446  13.173  1.5031  1.8189 -0.8303
10260TIP3   OH252270   2.088   6.489  12.242  0.1459 -0.6079 -0.6446
10260TIP3    H152271   2.169   6.493  12.192 -0.4791  0.9613 -1.6151
10260TIP3    H252272   2.110   6.532  12.325  0.0528  0.8307 -1.3358
10261TIP3   OH252273   0.365   1.996  14.157  0.1105 -0.4316  0.0504
10261TIP3    H152274   0.382   2.013  14.249 -3.3484 -0.5459  0.8492
10261TIP3    H252275   0.412   2.066  14.111  0.3044  0.8378  2.0393
10262TIP3   OH252276   5.826   2.652   1.340  0.2119  0.3376  0.7522
10262TIP3    H152277   5.795   2.591   1.273  2.4042 -0.3184  0.2513
10262TIP3    H252278   5.822   2.738   1.298  0.2575  0.1022  0.2510
10263TIP3   OH252279   3.972   2.535   1.561 -0.6172 -0.0150 -0.3565
10263TIP3    H152280   3.913   2.557   1.634 -0.9401 -0.4235 -0.4924
10263TIP3    H252281   4.030   2.611   1.555 -0.8571  0.2111  0.0535
10264TIP3   OH252282   4.524   3.964  12.413 -0.3516  0.3077 -0.6992
10264TIP3    H152283   4.469   3.892  12.383  1.7279 -1.9775  0.5240
10264TIP3    H252284   4.503   3.974  12.506  0.1867  0.4367 -0.5819
10265TIP3   OH252285   4.867   1.576  12.467 -0.3095 -0.2858 -0.2046
10265TIP3    H152286   4.920   1.612  12.538 -2.9119 -0.4837  2.0434
10265TIP3    H252287   4.903   1.489  12.451  2.3602  0.9628 -1.5350
10266TIP3   OH252288   5.873   4.361  15.576  0.1076 -0.2217  0.3210
10266TIP3    H152289   5.823   4.292  15.621  0.6855 -0.4270  0.6649
10266TIP3    H252290   5.962   4.324  15.569  0.6206  0.7864  1.2108
10267TIP3   OH252291   2.791   2.324  17.086 -0.1647  0.4621  0.3160
10267TIP3    H152292   2.862   2.382  17.057  0.5107 -0.8707 -0.8185
10267TIP3    H252293   2.804   2.244  17.036 -2.3010  0.0602  0.3282
10268TIP3   OH252294   1.884   3.879   5.537  0.1403 -0.3304 -0.5864
10268TIP3    H152295   1.842   3.960   5.566 -0.7346 -0.2597 -1.9388
10268TIP3    H252296   1.972   3.884   5.573  0.0023  1.0639 -0.3555
10269TIP3   OH252297   2.156   5.542  12.332 -0.3994 -0.0320  0.4162
10269TIP3    H152298   2.189   5.563  12.419  1.3201  1.4990 -0.5411
10269TIP3    H252299   2.100   5.616  12.308  0.5744  0.4334 -0.4718
10270TIP3   OH252300   3.471   0.651   0.343  0.1334  0.1770  0.1191
10270TIP3    H152301   3.456   0.575   0.399  1.8598 -0.5961 -0.3808
10270TIP3    H252302   3.405   0.644   0.275  1.5139 -2.1714 -1.1353
10271TIP3   OH252303   6.744   3.741   4.300 -0.0612  0.3364  0.4373
10271TIP3    H152304   6.742   3.823   4.251 -2.1893  0.3195  0.4361
10271TIP3    H252305   6.773   3.766   4.388  1.0126  0.7882 -0.0251
10272TIP3   OH252306   3.071   3.762  12.880 -0.9350  0.0675  0.1748
10272TIP3    H152307   3.069   3.852  12.849  2.8236  0.2183 -0.0035
10272TIP3    H252308   2.990   3.752  12.931 -3.7803  2.0247 -3.4672
10273TIP3   OH252309   4.293   2.223  15.289  0.0369  0.2537  0.0102
10273TIP3    H152310   4.242   2.280  15.232  0.4923 -0.4925 -1.1725
10273TIP3    H252311   4.376   2.211  15.243 -0.4240 -2.2047 -0.3222
10274TIP3   OH252312   0.291   4.691  14.283  0.1049  0.4239  0.0732
10274TIP3    H152313   0.382   4.665  14.272  0.1181  0.3031  0.4534
10274TIP3    H252314   0.274   4.751  14.211 -0.2108 -1.3575 -1.4045
10275TIP3   OH252315   1.695   1.917  12.167  0.4570 -0.5783 -0.6657
10275TIP3    H152316   1.746   1.916  12.248 -1.5824  1.2563  0.7453
10275TIP3    H252317   1.651   1.832  12.166 -0.0509 -0.3497  0.5569
10276TIP3   OH252318   6.522   4.363  11.290 -0.0342 -0.6196 -0.4894
10276TIP3    H152319   6.428   4.367  11.271 -0.2281 -0.4710  0.4254
10276TIP3    H252320   6.530   4.403  11.377  0.8783 -0.6379 -0.5549
10277TIP3   OH252321   6.095   6.679  14.994  0.1064  0.4749  0.4458
10277TIP3    H152322   6.178   6.633  14.980 -0.3741 -0.5166  0.7695
10277TIP3    H252323   6.116   6.772  14.980  0.8819  0.0869 -1.2852
10278TIP3   OH252324   1.754   2.767  11.365  0.4246  0.4565 -0.4340
10278TIP3    H152325   1.781   2.718  11.287  0.1846  0.2863 -0.4119
10278TIP3    H252326   1.702   2.705  11.415  0.2028  0.7049 -0.3545
10279TIP3   OH252327   1.019   3.230  12.779 -0.1288  0.4457 -0.5414
10279TIP3    H152328   0.980   3.229  12.692 -3.4493 -0.7805  0.7894
10279TIP3    H252329   1.031   3.323  12.799 -2.3320  0.9152 -1.1489
10280TIP3   OH252330   4.731   5.517  15.771 -0.5857 -0.2657 -0.1981
10280TIP3    H152331   4.672   5.592  15.782 -0.8432 -0.4127 -0.5642
10280TIP3    H252332   4.721   5.467  15.852 -0.6222 -0.0495 -0.0682
10281TIP3   OH252333   0.118   0.552   6.536  0.0908  0.0353 -0.1124
10281TIP3    H152334   0.145   0.643   6.548  1.2427 -0.5030  1.7783
10281TIP3    H252335   0.181   0.517   6.473  2.1097 -0.4099  2.0301
10282TIP3   OH252336   4.288   5.180   4.953  0.2797 -0.0955 -0.0901
10282TIP3    H152337   4.337   5.241   5.008 -0.0081  0.1376 -0.0915
10282TIP3    H252338   4.199   5.181   4.988  0.3764 -0.8624  0.1997
10283TIP3   OH252339   6.526   0.656  15.545 -0.0308 -0.1754 -0.0980
10283TIP3    H152340   6.453   0.604  15.579  1.3867 -1.0445  1.8233
10283TIP3    H252341   6.511   0.743  15.582 -1.2561  0.2758 -1.5626
10284TIP3   OH252342   3.181   1.476  16.654 -0.2299 -0.1982  0.0845
10284TIP3    H152343   3.220   1.430  16.728  0.9634 -1.0890 -1.0453
10284TIP3    H252344   3.091   1.444  16.650 -0.1143 -0.6284  0.7545
10285TIP3   OH252345   6.397   2.585  15.282 -0.2967  0.2736  0.3557
10285TIP3    H152346   6.302   2.598  15.286 -0.4561 -0.5375 -0.5519
10285TIP3    H252347   6.423   2.619  15.197  0.1702  0.1516  0.4473
10286TIP3   OH252348   1.920   6.653   2.298 -0.1923  0.2778  0.4491
10286TIP3    H152349   2.003   6.637   2.254  0.2889 -0.7386  1.6614
10286TIP3    H252350   1.884   6.731   2.255  1.6838  1.1085  0.2994
10287TIP3   OH252351   0.556   4.318   5.985  0.2781  0.3036 -0.1881
10287TIP3    H152352   0.647   4.299   6.012  0.1412  0.0534  0.1067
10287TIP3    H252353   0.552   4.413   5.979  0.7734  0.2830 -0.9554
10288TIP3   OH252354   6.634   5.093   4.550 -0.0609  0.1564  0.1491
10288TIP3    H152355   6.662   5.016   4.600  1.2436  1.7340  2.0302
10288TIP3    H252356   6.540   5.100   4.567 -0.2507 -1.1322 -0.2659
10289TIP3   OH252357   1.385   5.588   2.097  0.5428  0.6641  0.6734
10289TIP3    H152358   1.377   5.493   2.099  0.4063  0.6735  0.6349
10289TIP3    H252359   1.367   5.612   2.006  0.6646  0.7181  0.6644
10290TIP3   OH252360   5.584   4.414  15.132 -0.2966  0.4631  0.0324
10290TIP3    H152361   5.598   4.458  15.216 -0.5420  1.0049 -0.2058
10290TIP3    H252362   5.489   4.418  15.119 -0.8872 -3.2435  1.6834
10291TIP3   OH252363   2.299   6.331  13.886  0.1239 -0.0288 -0.6470
10291TIP3    H152364   2.272   6.418  13.858  1.0831  0.3826 -0.3362
10291TIP3    H252365   2.234   6.305  13.951  0.5194  0.9939  0.1847
10292TIP3   OH252366   2.538   0.199  14.737  0.2122  0.1073  0.7562
10292TIP3    H152367   2.573   0.287  14.722  0.7713 -0.1238  0.6772
10292TIP3    H252368   2.448   0.204  14.704  1.5922 -0.6338 -3.8938
10293TIP3   OH252369   1.324   0.777   3.972  0.0316  0.5421  0.2109
10293TIP3    H152370   1.329   0.758   4.066 -0.8054  1.9458  0.5598
10293TIP3    H252371   1.231   0.793   3.955 -0.1042 -1.3328 -1.2245
10294TIP3   OH252372   2.277   3.507   2.037  0.4841 -0.8508 -0.8038
10294TIP3    H152373   2.284   3.576   1.971 -0.6715 -0.0257 -0.0997
10294TIP3    H252374   2.208   3.449   2.004 -0.7523  0.0673  0.0764
10295TIP3   OH252375   5.629   2.481   1.193 -1.0487 -0.1669  0.4172
10295TIP3    H152376   5.569   2.407   1.185 -1.1330 -0.0863  0.2949
10295TIP3    H252377   5.598   2.544   1.129  0.9747 -1.3474 -1.8788
10296TIP3   OH252378   0.140   5.640  14.651 -0.8505  0.4430  0.2196
10296TIP3    H152379   0.067   5.703  14.650 -1.3971 -0.1765 -0.8334
10296TIP3    H252380   0.104   5.561  14.609  0.2070 -0.1296  0.3539
10297TIP3   OH252381   0.348   5.387   4.947 -0.7275  0.3643  0.9873
10297TIP3    H152382   0.273   5.333   4.922 -1.1302  0.3357  2.1853
10297TIP3    H252383   0.310   5.462   4.993 -0.0795  0.8588  0.7395
10298TIP3   OH252384   4.711   1.150   2.543  0.2483 -0.5093 -0.1032
10298TIP3    H152385   4.633   1.141   2.598 -1.7699  0.3487 -2.6030
10298TIP3    H252386   4.761   1.221   2.583  0.3342 -1.7315  2.1106
10299TIP3   OH252387   2.251   4.761  13.175  0.1611 -0.1197 -0.1618
10299TIP3    H152388   2.245   4.666  13.184  1.8297 -0.1916  0.4876
10299TIP3    H252389   2.344   4.779  13.161 -0.0955  1.4336 -0.0917
10300TIP3   OH252390   6.297   3.052   0.661  0.0303  0.2525 -0.2291
10300TIP3    H152391   6.378   3.103   0.655  0.6310 -0.6939 -0.2938
10300TIP3    H252392   6.306   3.001   0.741 -0.3154 -0.1835 -0.4668
10301TIP3   OH252393   0.584   0.010  17.411  0.2142 -0.0465 -0.4320
10301TIP3    H152394   0.505  -0.043  17.410  1.1760 -1.5411 -0.8552
10301TIP3    H252395   0.644  -0.035  17.351  1.5468  0.7742  0.2216
10302TIP3   OH252396   1.820   5.560  16.116  0.3139  0.2153  0.2728
10302TIP3    H152397   1.787   5.473  16.139  0.1528  0.5012  1.1608
10302TIP3    H252398   1.841   5.553  16.023  0.0511 -0.6947  0.2650
10303TIP3   OH252399   1.793   2.863   5.408 -0.1176 -0.4903  0.0340
10303TIP3    H152400   1.725   2.929   5.406  0.0776 -0.2479  0.8690
10303TIP3    H252401   1.762   2.799   5.472 -0.0158 -0.8902 -0.3096
10304TIP3   OH252402   1.213   5.808  11.489  0.3635  0.1030  0.3673
10304TIP3    H152403   1.138   5.748  11.493  0.1322  0.3923  0.4327
10304TIP3    H252404   1.267   5.784  11.564 -0.2386  0.6323  0.9934
10305TIP3   OH252405   1.611   6.719  17.393 -0.4264  0.0758 -0.4023
10305TIP3    H152406   1.661   6.650  17.436  1.2778  1.2628 -0.3747
10305TIP3    H252407   1.599   6.785  17.461 -2.5525 -0.3896 -0.2590
10306TIP3   OH252408   3.827   2.758   5.281  0.1282 -0.3159 -0.1445
10306TIP3    H152409   3.768   2.706   5.335 -0.8820 -0.0456 -0.9689
10306TIP3    H252410   3.899   2.782   5.340  0.5853 -2.5311  0.3068
10307TIP3   OH252411   3.559   2.110  17.115  0.4525 -0.2148 -0.4916
10307TIP3    H152412   3.511   2.116  17.198 -1.9800 -0.0208 -1.8232
10307TIP3    H252413   3.651   2.104  17.141 -0.1503  0.7229  2.1748
10308TIP3   OH252414   0.792   1.996   1.986  0.1532 -0.2470 -0.2582
10308TIP3    H152415   0.777   1.912   1.943  0.4227 -0.5169  0.1633
10308TIP3    H252416   0.851   1.976   2.059 -0.2281  0.2041  0.1885
10309TIP3   OH252417   0.730   0.595  16.840  0.9645 -0.0068 -0.3127
10309TIP3    H152418   0.741   0.670  16.899 -0.1187  0.6436 -0.8976
10309TIP3    H252419   0.637   0.574  16.845  1.1507 -0.9445 -0.6088
10310TIP3   OH252420   6.024   1.790  15.320  0.2135  0.3177  0.2411
10310TIP3    H152421   6.063   1.873  15.295 -0.6766  1.7169  3.0133
10310TIP3    H252422   5.930   1.804  15.308 -0.3887  1.4350  4.5815
10311TIP3   OH252423   1.909   0.265   4.498  0.4963 -0.1897  0.1159
10311TIP3    H152424   1.909   0.184   4.447  0.2164 -0.3912  0.4282
10311TIP3    H252425   1.974   0.321   4.455 -0.7107  0.1864 -1.2997
10312TIP3   OH252426   2.388   2.886  15.256  0.3209  0.3296  0.0885
10312TIP3    H152427   2.313   2.943  15.240  0.5615  0.2299 -1.4933
10312TIP3    H252428   2.349   2.799  15.267  0.1204  0.4743  0.5944
10313TIP3   OH252429   1.954   2.888   6.359  0.5495  0.2056 -0.1010
10313TIP3    H152430   1.905   2.816   6.398 -0.4292 -0.2201 -1.9574
10313TIP3    H252431   1.914   2.967   6.396  0.6797 -0.1702  0.8715
10314TIP3   OH252432   4.367   2.752   4.176 -0.2073  0.0163  0.0716
10314TIP3    H152433   4.446   2.723   4.131 -0.9722 -1.9919 -0.0663
10314TIP3    H252434   4.330   2.819   4.118  1.8030  1.6559  0.5728
10315TIP3   OH252435   2.290   4.843   0.495 -0.6402 -0.0049  0.1915
10315TIP3    H152436   2.266   4.883   0.412  1.1527  0.1980 -0.2876
10315TIP3    H252437   2.250   4.756   0.493 -1.8259  0.5375 -0.2230
10316TIP3   OH252438   4.851   3.153  13.043 -0.1574  0.3919 -0.4971
10316TIP3    H152439   4.832   3.192  12.958  0.9381  0.3523 -0.7824
10316TIP3    H252440   4.941   3.120  13.035  0.0147  0.4973  0.7165
10317TIP3   OH252441   0.816   4.827   5.761 -0.5788 -0.2228 -0.0657
10317TIP3    H152442   0.814   4.852   5.853 -0.5001 -3.7835  1.0479
10317TIP3    H252443   0.901   4.782   5.750 -0.8623 -0.4381 -1.6961
10318TIP3   OH252444   4.256   0.766   4.959 -0.5257  0.4675 -0.4162
10318TIP3    H152445   4.326   0.754   4.895 -0.8390  0.7680 -0.8264
10318TIP3    H252446   4.300   0.800   5.037 -0.0252 -0.6908 -0.1834
10319TIP3   OH252447   4.295   6.567  13.996  0.2122 -0.4769  0.0711
10319TIP3    H152448   4.243   6.630  14.046 -0.0204 -1.1552  0.6974
10319TIP3    H252449   4.230   6.511  13.953  0.4087 -1.4677  1.0303
10320TIP3   OH252450   2.727   0.906  14.836  0.3807  0.6193 -0.0835
10320TIP3    H152451   2.663   0.894  14.907  0.5128  0.5949  0.0312
10320TIP3    H252452   2.769   0.990  14.856 -0.3252  1.1388 -0.7178
10321TIP3   OH252453   4.767   5.167   6.126  0.2528 -0.1259  0.1288
10321TIP3    H152454   4.768   5.073   6.113  0.1495  0.1256 -2.0448
10321TIP3    H252455   4.859   5.192   6.135  0.5030 -0.1996 -1.7454
10322TIP3   OH252456   1.072   1.377  17.332 -0.3078 -0.2872  0.2942
10322TIP3    H152457   1.018   1.302  17.306 -0.1138  0.3712 -2.3326
10322TIP3    H252458   1.021   1.421  17.400 -0.8821 -2.2260  1.1709
10323TIP3   OH252459   3.707   0.566  15.431 -0.9257 -0.0712  0.3295
10323TIP3    H152460   3.682   0.513  15.355 -1.0961 -1.2202  1.1699
10323TIP3    H252461   3.626   0.609  15.458 -1.5352 -1.8325  1.5142
10324TIP3   OH252462   6.612   1.969  12.864  0.2921 -0.6381  0.0870
10324TIP3    H152463   6.678   2.022  12.819  0.3856 -1.1909 -0.4442
10324TIP3    H252464   6.551   1.944  12.794  0.4219 -1.4811  0.2721
10325TIP3   OH252465   4.203   6.084   0.600  0.1418 -0.1111  0.4588
10325TIP3    H152466   4.142   6.018   0.567  0.8769 -0.9715  0.7801
10325TIP3    H252467   4.289   6.057   0.566  0.2269  1.7314 -0.9928
10326TIP3   OH252468   4.099   2.555   0.105 -0.0143  0.4020 -0.0831
10326TIP3    H152469   4.174   2.528   0.157  0.5131  0.7846 -0.6246
10326TIP3    H252470   4.079   2.643   0.136  0.0866  0.4974 -0.2856
10327TIP3   OH252471   1.030   4.956   2.830  0.6026  0.5515 -0.0485
10327TIP3    H152472   1.018   5.050   2.820  2.4490  0.9148  0.8011
10327TIP3    H252473   1.024   4.940   2.924 -2.4786 -0.6704 -0.3242
10328TIP3   OH252474   4.933   6.773   1.460 -0.1265  0.2161 -0.3815
10328TIP3    H152475   4.916   6.795   1.551  1.2002  0.4791 -0.1785
10328TIP3    H252476   5.006   6.830   1.435 -2.2116  2.2278 -2.4661
10329TIP3   OH252477   5.494   5.633   4.992 -0.4823  0.1404 -0.4749
10329TIP3    H152478   5.575   5.657   4.947 -0.0852  0.3311  0.3384
10329TIP3    H252479   5.472   5.709   5.045  0.0342 -0.7515  1.0640
10330TIP3   OH252480   1.727   2.981   5.777 -0.1456 -0.3080 -0.7727
10330TIP3    H152481   1.714   2.930   5.698  1.0370 -1.3446 -0.3286
10330TIP3    H252482   1.649   3.038   5.782 -2.5167 -3.3212 -0.3050
10331TIP3   OH252483   2.713   0.638  13.091  0.1478  0.4734 -0.6338
10331TIP3    H152484   2.713   0.639  12.995  0.2461 -0.3344 -0.6489
10331TIP3    H252485   2.801   0.610  13.115 -0.1568 -0.2445 -0.3272
10332TIP3   OH252486   5.632   0.252  14.285  0.1386  0.3143  0.3554
10332TIP3    H152487   5.643   0.160  14.308 -1.1512  0.2699  0.9392
10332TIP3    H252488   5.706   0.297  14.325 -0.6232 -0.1372  2.4126
10333TIP3   OH252489   0.063   1.195   0.610  0.0857 -0.3995  0.0887
10333TIP3    H152490   0.032   1.273   0.656  1.3158  0.2849 -0.2207
10333TIP3    H252491  -0.015   1.140   0.603 -0.8950  0.9464 -0.0056
10334TIP3   OH252492   2.120   3.334  14.827 -0.1888  0.2285  0.0287
10334TIP3    H152493   2.062   3.409  14.816 -1.8700 -1.0337 -0.0757
10334TIP3    H252494   2.200   3.358  14.781 -0.8588  1.7749 -0.3650
10335TIP3   OH252495   5.469   2.311  15.146 -0.2418 -0.5771  0.1384
10335TIP3    H152496   5.428   2.389  15.108 -0.1062  0.3415  1.7431
10335TIP3    H252497   5.443   2.239  15.089 -0.7267  0.5769 -1.1556
10336TIP3   OH252498   1.799   4.816  15.681  0.3523  0.6041  0.0709
10336TIP3    H152499   1.842   4.731  15.683 -0.3847  0.2042 -0.3955
10336TIP3    H252500   1.792   4.837  15.587  0.6236  1.2305  0.1854
10337TIP3   OH252501   5.140   0.286  16.359 -0.0687  0.1640 -0.2202
10337TIP3    H152502   5.194   0.254  16.431  1.1455  3.0107  0.2845
10337TIP3    H252503   5.130   0.380  16.376 -1.4022  0.5802 -2.7419
10338TIP3   OH252504   2.443   0.519  16.146 -0.5616 -0.6042 -0.4165
10338TIP3    H152505   2.463   0.559  16.062  1.7764 -0.0833  0.3012
10338TIP3    H252506   2.426   0.427  16.126  0.5892 -0.6199 -1.4272
10339TIP3   OH252507   5.618   1.016  13.320  0.1046 -0.0252  0.5389
10339TIP3    H152508   5.572   0.936  13.294 -1.9622  1.0637  0.7108
10339TIP3    H252509   5.673   1.038  13.245 -2.1502  0.4491 -1.0439
10340TIP3   OH252510   1.957   2.599  16.967  0.4865  0.0312 -0.0474
10340TIP3    H152511   2.046   2.612  16.934  0.2625  0.6921 -0.3985
10340TIP3    H252512   1.960   2.513  17.011  1.1962 -0.1176 -0.3765
10341TIP3   OH252513   4.024   3.475  11.496 -0.2302 -0.6075  0.1259
10341TIP3    H152514   4.097   3.536  11.492  0.8329 -1.8916 -0.8031
10341TIP3    H252515   4.001   3.458  11.405 -1.4402 -0.5461  0.3929
10342TIP3   OH252516   4.927   0.135  14.230  0.5324  0.3870  0.2010
10342TIP3    H152517   4.867   0.062  14.215  0.5988  0.7095 -1.9440
10342TIP3    H252518   4.871   0.213  14.225  0.9649  0.6505 -1.1680
10343TIP3   OH252519   5.567   3.909  12.375  0.3611  0.3426 -0.0837
10343TIP3    H152520   5.476   3.934  12.390  0.6223  1.2211  0.1189
10343TIP3    H252521   5.583   3.928  12.283  0.6143  1.1576  0.1144
10344TIP3   OH252522   3.343   4.543  15.385  0.3743 -0.5263 -0.1602
10344TIP3    H152523   3.382   4.492  15.456 -1.4429 -2.8412 -0.7024
10344TIP3    H252524   3.375   4.501  15.305 -0.2152 -0.0547 -0.6514
10345TIP3   OH252525   0.903   4.270   4.965 -0.7139  0.2129 -0.2718
10345TIP3    H152526   0.863   4.355   4.982  0.9336  1.1719 -0.9790
10345TIP3    H252527   0.975   4.265   5.028 -0.1543 -0.1958 -0.9360
10346TIP3   OH252528   5.361   3.544  12.190  0.4665  0.2782  0.3226
10346TIP3    H152529   5.328   3.473  12.246  1.0360  0.4915  0.9443
10346TIP3    H252530   5.341   3.624  12.239 -2.3938  0.7931 -1.4494
10347TIP3   OH252531   3.610   3.843  17.071 -0.2053  1.2200 -0.0531
10347TIP3    H152532   3.660   3.855  17.152  1.0949  1.1644 -0.8106
10347TIP3    H252533   3.523   3.814  17.100  1.5008 -3.5557  1.2525
10348TIP3   OH252534   3.488   1.641   5.553  0.1370 -0.2973 -0.2840
10348TIP3    H152535   3.465   1.732   5.531 -4.5065 -1.2606 -0.4309
10348TIP3    H252536   3.489   1.641   5.649 -0.9493 -0.2490 -0.2583
10349TIP3   OH252537   2.274   5.092   5.541  0.6634 -0.1841  0.4065
10349TIP3    H152538   2.357   5.139   5.533  0.2634  0.5509  0.5042
10349TIP3    H252539   2.290   5.025   5.607  0.9098  0.5644  1.1110
10350TIP3   OH252540   0.794   6.555  16.147  0.3184  0.2237  0.2063
10350TIP3    H152541   0.868   6.616  16.151  0.7662 -0.0132 -2.4698
10350TIP3    H252542   0.788   6.518  16.235  2.8213  0.8960  0.7352
10351TIP3   OH252543   4.206   2.544   1.788 -0.0727 -0.1543 -0.0110
10351TIP3    H152544   4.214   2.569   1.696  2.5867  1.9684  0.6477
10351TIP3    H252545   4.287   2.497   1.807 -0.0145  0.4804  1.4855
10352TIP3   OH252546   3.520   3.618   1.597 -0.6367 -0.0646 -0.0077
10352TIP3    H152547   3.446   3.559   1.584 -1.0840  0.8838 -2.0873
10352TIP3    H252548   3.482   3.698   1.634 -0.5365  0.1203 -0.2983
10353TIP3   OH252549   0.076   1.456  15.170 -0.2786  0.6313  0.4502
10353TIP3    H152550   0.011   1.511  15.216  0.2979  1.1389  0.6677
10353TIP3    H252551   0.137   1.519  15.132  0.1182  0.1476  0.2886
10354TIP3   OH252552   2.477   6.339   0.844 -0.5514 -0.2842  0.6584
10354TIP3    H152553   2.523   6.277   0.901  0.4336 -0.6948 -0.5319
10354TIP3    H252554   2.385   6.332   0.869 -0.3294 -1.5569  1.1758
10355TIP3   OH252555   3.703   4.942  13.259  0.5043  0.7922  0.6820
10355TIP3    H152556   3.766   4.933  13.187 -0.7001  0.2709 -0.3525
10355TIP3    H252557   3.711   4.860  13.307  1.8070  1.4193  1.5985
10356TIP3   OH252558   0.615   0.434   3.528 -0.6208 -0.5946 -0.6250
10356TIP3    H152559   0.543   0.403   3.472 -2.7808 -1.7868  2.4997
10356TIP3    H252560   0.571   0.471   3.604  2.1187  0.1041  0.7295
10357TIP3   OH252561   4.089   1.546  17.316 -0.0804  0.4807  0.0184
10357TIP3    H152562   4.014   1.555  17.258 -0.4449 -0.8437  0.2590
10357TIP3    H252563   4.075   1.463  17.362 -0.4727  2.0668  3.0036
10358TIP3   OH252564   6.338   2.567   5.376 -0.1372 -0.4494 -0.2566
10358TIP3    H152565   6.336   2.475   5.404 -1.3274  0.0917  1.5932
10358TIP3    H252566   6.332   2.562   5.280 -3.7567 -2.2864 -0.1243
10359TIP3   OH252567   5.494   3.054   6.060 -0.1983  0.1776  0.5852
10359TIP3    H152568   5.521   3.040   6.150 -2.0002 -1.7742  0.9019
10359TIP3    H252569   5.471   2.967   6.028  2.0139  0.5114 -2.3620
10360TIP3   OH252570   1.788   5.817  12.537  0.8656  0.0210  0.0730
10360TIP3    H152571   1.869   5.868  12.541 -0.2739  1.9038  0.1549
10360TIP3    H252572   1.754   5.819  12.626 -0.9327  2.1545 -0.5836
10361TIP3   OH252573   4.949   6.661   0.320 -0.3144 -0.0713  0.2301
10361TIP3    H152574   4.932   6.722   0.392 -0.3044  1.3660 -0.9296
10361TIP3    H252575   4.945   6.716   0.241 -0.4385 -1.6113 -0.8783
10362TIP3   OH252576   0.858   4.345  13.612  0.7981 -0.0030  0.0839
10362TIP3    H152577   0.808   4.364  13.692 -1.0307  0.8336 -1.1880
10362TIP3    H252578   0.822   4.263  13.579  2.3971 -1.0061  0.7160
10363TIP3   OH252579   4.164   0.949   5.893  0.0461  0.4371 -0.2127
10363TIP3    H152580   4.110   1.019   5.858 -0.2481  0.1788 -0.2864
10363TIP3    H252581   4.250   0.961   5.852  1.1322  2.9213  2.4378
10364TIP3   OH252582   5.829   0.937  15.035 -0.1986 -0.0226  0.1638
10364TIP3    H152583   5.917   0.907  15.016 -0.0455  0.0598  0.7349
10364TIP3    H252584   5.781   0.924  14.953 -0.1712 -1.9344  0.4056
10365TIP3   OH252585   1.301   2.142  12.157  0.3582 -0.1736 -0.3989
10365TIP3    H152586   1.233   2.203  12.187 -1.0730 -1.5219 -0.7997
10365TIP3    H252587   1.355   2.195  12.097  0.0833  1.1014  0.4406
10366TIP3   OH252588   0.828   1.938   1.180 -0.2762  1.0556  0.0544
10366TIP3    H152589   0.747   1.988   1.191 -0.6860  0.2216  1.0428
10366TIP3    H252590   0.898   2.002   1.191 -0.7906  1.4583  1.1528
10367TIP3   OH252591   1.116   4.542   0.385 -0.1412 -0.4843 -0.1735
10367TIP3    H152592   1.186   4.568   0.324  0.4899  0.5501  0.9525
10367TIP3    H252593   1.140   4.454   0.413  1.2241  0.1771  0.8543
10368TIP3   OH252594   3.741   2.434  17.110  0.1896  0.3772  0.4081
10368TIP3    H152595   3.736   2.346  17.147 -1.5673  1.0393  1.8580
10368TIP3    H252596   3.655   2.473  17.127  1.1588  2.6418  0.4950
10369TIP3   OH252597   6.569   2.116  17.465 -0.2710 -0.0199 -0.3108
10369TIP3    H152598   6.483   2.121  17.424 -0.8868 -1.1879  0.7832
10369TIP3    H252599   6.557   2.150  17.553  0.1666 -1.0568  0.1625
10370TIP3   OH252600   6.201   1.992  15.915 -0.3850 -0.1319 -0.2164
10370TIP3    H152601   6.247   2.074  15.931  0.9147 -0.5146 -1.7560
10370TIP3    H252602   6.188   1.990  15.820  0.9616 -2.3491 -0.4300
10371TIP3   OH252603   4.842   1.557  13.289 -0.5168  0.4871  0.3298
10371TIP3    H152604   4.816   1.496  13.220 -0.2335  0.3785  0.3208
10371TIP3    H252605   4.835   1.507  13.370  0.0447  0.3407  0.2906
10372TIP3   OH252606   1.188   2.081  11.076  0.3326 -0.2577 -0.6110
10372TIP3    H152607   1.271   2.090  11.122  0.3306 -0.1734 -0.6249
10372TIP3    H252608   1.211   2.090  10.983  0.1648  0.7606 -0.5585
10373TIP3   OH252609   5.249   4.533   5.428 -0.8502  0.3308  0.3496
10373TIP3    H152610   5.154   4.547   5.436 -0.8901  0.1685  0.1494
10373TIP3    H252611   5.257   4.446   5.390 -0.5773 -0.9316  3.0572
10374TIP3   OH252612   1.589   5.596  13.346  0.1818 -0.3848  0.5784
10374TIP3    H152613   1.678   5.622  13.320  0.0943 -1.3405 -0.8183
10374TIP3    H252614   1.602   5.516  13.397  0.1291 -0.6211  0.2272
10375TIP3   OH252615   6.316   3.100   3.081 -0.2746 -0.9898 -0.0569
10375TIP3    H152616   6.321   3.175   3.140 -0.2857 -0.6711 -0.4606
10375TIP3    H252617   6.363   3.030   3.128 -2.2402 -1.4422  1.3739
10376TIP3   OH252618   5.906   2.323   2.056 -0.3685 -0.6547 -0.7002
10376TIP3    H152619   5.855   2.275   2.121 -1.0313 -1.4782 -1.7947
10376TIP3    H252620   5.966   2.258   2.020  0.5173 -0.0213 -0.4113
10377TIP3   OH252621   4.349   2.854  16.647 -0.2098 -0.0923 -0.8877
10377TIP3    H152622   4.321   2.915  16.579 -0.4856  1.3846  0.5103
10377TIP3    H252623   4.344   2.904  16.729  2.2734 -1.1263 -0.0204
10378TIP3   OH252624   4.274   3.160  13.486 -0.5555  0.0777 -0.1199
10378TIP3    H152625   4.221   3.225  13.441 -0.2323 -0.9576 -2.1389
10378TIP3    H252626   4.214   3.087  13.503  0.2418 -1.4838 -3.2414
10379TIP3   OH252627   3.541   5.429   5.250  0.3091 -0.0698 -0.4051
10379TIP3    H152628   3.540   5.376   5.329  0.2562  0.3185 -0.1447
10379TIP3    H252629   3.634   5.446   5.234  0.2470  1.0828  0.4031
10380TIP3   OH252630   3.368   3.313   0.740  0.1276 -0.0567  0.2146
10380TIP3    H152631   3.410   3.335   0.823  1.1214 -3.7582  0.8679
10380TIP3    H252632   3.429   3.345   0.673  1.2298 -0.3897  1.0336
10381TIP3   OH252633   5.458   2.317   4.037  0.3076  0.1323 -0.0810
10381TIP3    H152634   5.513   2.312   3.958 -1.5974 -1.5151 -1.4350
10381TIP3    H252635   5.380   2.366   4.008 -0.2644 -0.2014  0.8557
10382TIP3   OH252636   3.461   5.980  14.508  0.0200  0.2549  0.2566
10382TIP3    H152637   3.424   5.917  14.570  1.5705 -0.0614  0.9097
10382TIP3    H252638   3.453   5.939  14.423  0.5191 -0.6140  0.6169
10383TIP3   OH252639   2.850   4.847  13.124  0.4753  0.1292 -0.6427
10383TIP3    H152640   2.898   4.764  13.121  1.1463  0.5160 -0.8064
10383TIP3    H252641   2.759   4.822  13.137  0.7119 -0.6246 -0.4049
10384TIP3   OH252642   0.698   6.285   2.365  0.2556 -0.1360  0.1459
10384TIP3    H152643   0.650   6.348   2.419  0.4754  1.9639 -1.9325
10384TIP3    H252644   0.778   6.331   2.341 -0.2015 -0.5956 -2.5732
10385TIP3   OH252645   2.659   2.906  14.195  0.0359  0.4478 -0.4210
10385TIP3    H152646   2.724   2.973  14.216  1.8757 -1.2690 -0.3141
10385TIP3    H252647   2.617   2.937  14.115  3.2635  0.2252 -2.3765
10386TIP3   OH252648   4.054   1.663   6.855  0.6659  0.1202 -0.5604
10386TIP3    H152649   4.031   1.587   6.909 -0.1039  0.4835 -0.3681
10386TIP3    H252650   4.144   1.646   6.827  0.0403 -1.5924 -1.7407
10387TIP3   OH252651   6.440   0.752  14.984  0.8476  0.7097 -0.0041
10387TIP3    H152652   6.460   0.844  15.007  2.1685  0.5370 -0.3500
10387TIP3    H252653   6.471   0.743  14.894 -0.0060  0.1293 -0.2401
10388TIP3   OH252654   0.900   1.896   2.709 -0.5792  0.0717  0.4099
10388TIP3    H152655   0.892   1.914   2.802 -0.4880 -1.0861  0.6560
10388TIP3    H252656   0.927   1.805   2.704  2.2239  0.8331 -0.6611
10389TIP3   OH252657   0.094   4.427   1.832 -0.2926  0.0543  0.3369
10389TIP3    H152658   0.110   4.490   1.902 -0.0307 -0.9628  1.2272
10389TIP3    H252659   0.180   4.390   1.812 -0.3320  0.4773 -0.6858
10390TIP3   OH252660   4.956   4.781  14.412 -0.8335  0.1852 -0.0753
10390TIP3    H152661   4.921   4.861  14.451 -0.9242  0.0745  0.0701
10390TIP3    H252662   4.880   4.739  14.371 -0.8981 -0.1322  0.3718
10391TIP3   OH252663   5.362   2.982   3.416  0.0045 -0.3069  0.0672
10391TIP3    H152664   5.456   3.001   3.414  0.0634 -0.3350  1.3110
10391TIP3    H252665   5.328   3.036   3.488 -0.6587 -1.3676  0.5894
10392TIP3   OH252666   5.380   1.317  11.319  0.2361 -0.2535 -0.3161
10392TIP3    H152667   5.289   1.346  11.331  0.3200 -0.2120  0.2199
10392TIP3    H252668   5.374   1.244  11.257 -0.0793  0.2641 -0.9125
10393TIP3   OH252669   3.384   2.213  13.916  0.7520 -0.8883  0.1179
10393TIP3    H152670   3.478   2.207  13.899  0.2814 -0.4521 -3.4744
10393TIP3    H252671   3.376   2.282  13.982  2.8868  0.8252 -1.2721
10394TIP3   OH252672   3.290   2.162   2.610 -0.7969  0.1790  0.3905
10394TIP3    H152673   3.355   2.152   2.679 -1.1322  0.7224  0.7987
10394TIP3    H252674   3.314   2.244   2.567 -0.4787 -0.2500 -0.2687
10395TIP3   OH252675   0.694   5.367   2.445 -0.0049 -0.2711 -0.5064
10395TIP3    H152676   0.651   5.308   2.506  1.2579  0.1106  0.7957
10395TIP3    H252677   0.703   5.449   2.493  1.1664 -0.0156 -1.1292
10396TIP3   OH252678   1.190   3.568   3.771  0.4418  0.4716  0.3985
10396TIP3    H152679   1.155   3.655   3.793  1.0963  0.7591  0.3251
10396TIP3    H252680   1.285   3.582   3.763  0.3169  0.3616 -2.2824
10397TIP3   OH252681   4.336   1.770  12.831 -0.2541  0.2335  0.3307
10397TIP3    H152682   4.335   1.835  12.760  0.7748  0.8585  0.8613
10397TIP3    H252683   4.266   1.708  12.808 -0.9004  1.2263 -0.4690
10398TIP3   OH252684   2.973   0.493   6.727  0.1664 -0.0144 -0.0755
10398TIP3    H152685   2.999   0.555   6.659 -1.4066  0.1412 -0.5785
10398TIP3    H252686   2.934   0.547   6.795 -1.3895 -0.4302 -0.6019
10399TIP3   OH252687   0.798   2.026   4.484 -0.6854  0.1763 -0.2409
10399TIP3    H152688   0.776   1.969   4.557  1.3579  1.0411  1.1562
10399TIP3    H252689   0.789   1.971   4.407  0.6293 -1.9148  0.9900
10400TIP3   OH252690   1.357   6.656   4.164 -0.1961 -0.5197 -0.1181
10400TIP3    H152691   1.411   6.584   4.196  2.3037  0.5368 -1.6510
10400TIP3    H252692   1.319   6.694   4.243 -0.3486 -2.5259  0.8481
10401TIP3   OH252693   5.721   3.187   0.089 -0.0083  0.0409 -0.2478
10401TIP3    H152694   5.626   3.188   0.086 -0.0110 -0.4637 -0.3068
10401TIP3    H252695   5.747   3.250   0.021 -0.2925 -0.0238 -0.4167
10402TIP3   OH252696   3.241   1.348  14.544  0.1536  0.3430  0.3564
10402TIP3    H152697   3.196   1.268  14.571  0.3081  0.1757  0.1266
10402TIP3    H252698   3.248   1.400  14.624 -1.5285  0.9167  0.1673
10403TIP3   OH252699   3.044   5.012   0.528 -0.4995  0.1944 -0.0842
10403TIP3    H152700   3.111   5.039   0.590 -1.5509  0.7317  0.8627
10403TIP3    H252701   3.002   5.093   0.500 -0.6513 -0.1145 -0.8000
10404TIP3   OH252702   1.830   5.781  13.558  0.4616 -0.6533  0.1933
10404TIP3    H152703   1.741   5.815  13.563  0.9294  0.5302  0.7317
10404TIP3    H252704   1.882   5.842  13.610  1.2967 -2.3169  1.4123
10405TIP3   OH252705   1.390   5.288   3.942 -0.3529  0.0948  0.4013
10405TIP3    H152706   1.457   5.232   3.980  0.1354  0.0140 -0.5577
10405TIP3    H252707   1.320   5.228   3.915  0.9033 -0.3001 -2.1941
10406TIP3   OH252708   0.989   1.135   4.833 -0.5618 -0.0565 -0.3479
10406TIP3    H152709   0.921   1.069   4.840 -0.2540 -0.1482  3.9932
10406TIP3    H252710   1.060   1.103   4.889  0.2674  3.1166  0.6406
10407TIP3   OH252711   6.767   4.885   6.026 -0.7545 -0.0997 -0.1624
10407TIP3    H152712   6.763   4.824   6.099 -0.4468  0.7223  0.5456
10407TIP3    H252713   6.698   4.855   5.967  1.0304 -2.7399 -1.1222
10408TIP3   OH252714   3.696   1.783  12.239  0.3046  0.5610  0.3007
10408TIP3    H152715   3.759   1.828  12.183  0.6386 -0.7957 -0.4336
10408TIP3    H252716   3.657   1.716  12.184 -1.1038  0.7286  1.0172
10409TIP3   OH252717   4.665   6.356   2.026 -0.2554 -0.0867 -0.1708
10409TIP3    H152718   4.571   6.353   2.040 -0.1817  0.8727  0.6690
10409TIP3    H252719   4.701   6.301   2.095 -0.0903  1.6618  1.2142
10410TIP3   OH252720   0.042   3.466   4.502  0.2810  0.9153 -0.6937
10410TIP3    H152721   0.070   3.494   4.415  0.0484  0.0478 -1.0614
10410TIP3    H252722   0.120   3.424   4.540  0.7742  2.3963  0.0422
10411TIP3   OH252723   0.653   3.828   5.040 -0.1845 -0.4352 -0.1011
10411TIP3    H152724   0.624   3.780   5.117 -1.9963  0.9424  0.1432
10411TIP3    H252725   0.716   3.892   5.074 -0.9296  0.1254  0.2328
10412TIP3   OH252726   2.653   5.922   0.875 -1.2094  0.3137  0.3289
10412TIP3    H152727   2.604   5.935   0.794  0.5058  1.2189 -0.6066
10412TIP3    H252728   2.608   5.976   0.940 -3.6123 -1.6866  0.5039
10413TIP3   OH252729   3.009   3.771  14.416 -0.0772 -0.2336 -0.3645
10413TIP3    H152730   3.077   3.793  14.353  0.0856  0.9747  0.2027
10413TIP3    H252731   3.047   3.702  14.470  1.2460  1.3669  0.8142
10414TIP3   OH252732   5.301   2.879  13.116  0.4408  0.2832 -0.6288
10414TIP3    H152733   5.334   2.943  13.179 -0.1628  0.8151 -0.8407
10414TIP3    H252734   5.379   2.841  13.077  0.8153  0.1288  0.2612
10415TIP3   OH252735   5.183   1.756  17.290 -0.7572  0.7919 -0.1144
10415TIP3    H152736   5.211   1.676  17.246  0.3064  2.0052 -1.7639
10415TIP3    H252737   5.088   1.752  17.289 -0.7475  0.3267 -1.6880
10416TIP3   OH252738   1.853   0.692   4.446 -0.0643  0.5383 -0.2332
10416TIP3    H152739   1.864   0.629   4.374 -1.8347  0.1367 -0.1819
10416TIP3    H252740   1.923   0.756   4.432  1.8994 -1.4608 -0.2306
10417TIP3   OH252741   0.724   5.298   4.572  0.2931  0.3215 -0.1280
10417TIP3    H152742   0.801   5.255   4.610 -0.2208 -0.3341  0.1976
10417TIP3    H252743   0.650   5.260   4.620 -0.4010 -0.6934 -1.8952
10418TIP3   OH252744   2.354   0.445  12.173 -0.0758 -0.0768  0.0843
10418TIP3    H152745   2.446   0.440  12.149 -0.3270  0.0181 -0.9632
10418TIP3    H252746   2.345   0.529  12.218  0.1016  0.5430 -0.9975
10419TIP3   OH252747   5.978   3.404   2.655 -0.4570 -0.2863 -0.3789
10419TIP3    H152748   5.909   3.358   2.702 -1.4446  0.2133 -1.2934
10419TIP3    H252749   5.953   3.397   2.563 -0.4813  1.7992 -0.5697
10420TIP3   OH252750   6.365   4.653   5.565  0.2240  0.6359  0.4607
10420TIP3    H152751   6.339   4.742   5.544 -2.2010 -0.0076  0.4575
10420TIP3    H252752   6.377   4.653   5.660  0.9580  1.1127  0.3748
10421TIP3   OH252753   3.395   0.189  16.376  0.1041  0.1572  0.0992
10421TIP3    H152754   3.432   0.101  16.364  1.6361  0.7993 -0.1733
10421TIP3    H252755   3.420   0.236  16.297 -2.2602  0.3651 -0.5778
10422TIP3   OH252756   2.643   6.307   4.496 -0.2550  0.2756  0.3808
10422TIP3    H152757   2.697   6.233   4.526 -0.4153  0.0194  0.0349
10422TIP3    H252758   2.689   6.385   4.530  0.2136  0.0483  0.2807
10423TIP3   OH252759   4.866   6.558  12.196  0.5874  0.2435 -0.2869
10423TIP3    H152760   4.950   6.580  12.155 -0.6973  2.5152 -1.9070
10423TIP3    H252761   4.826   6.642  12.216 -0.2028 -0.7630  3.0414
10424TIP3   OH252762   3.487   1.839  15.973 -0.8060 -0.3308  0.3028
10424TIP3    H152763   3.542   1.768  16.008  2.2775  1.3751 -0.7064
10424TIP3    H252764   3.435   1.798  15.905  0.1603 -1.8265  0.4214
10425TIP3   OH252765   4.944   3.894   3.723  0.1534 -0.1406  0.0824
10425TIP3    H152766   4.904   3.867   3.640  1.2953  0.6595 -0.7565
10425TIP3    H252767   4.988   3.815   3.755 -1.5335 -0.8814  0.7381
10426TIP3   OH252768   0.168   0.132  13.082  0.3135 -0.3150 -0.6214
10426TIP3    H152769   0.247   0.080  13.071 -0.4000 -1.3818 -0.9056
10426TIP3    H252770   0.165   0.187  13.004 -0.1932 -1.6424 -1.5876
10427TIP3   OH252771   5.952   6.615  13.411 -0.0589  0.3869  0.0266
10427TIP3    H152772   5.986   6.533  13.448 -0.6584 -0.5088 -1.3212
10427TIP3    H252773   6.025   6.650  13.360  0.2617  0.8164  0.7580
10428TIP3   OH252774   2.938   5.364   0.755  0.0974 -0.0782 -0.4445
10428TIP3    H152775   2.854   5.399   0.784  0.0545  0.8431 -1.6206
10428TIP3    H252776   2.973   5.319   0.832 -0.3474  1.6167  0.8040
10429TIP3   OH252777   0.994   3.578  15.512  0.0522  1.1649  0.7155
10429TIP3    H152778   1.004   3.673  15.514 -2.2233  1.4582  0.1611
10429TIP3    H252779   0.922   3.560  15.571  1.4228 -0.4252  2.0198
10430TIP3   OH252780   0.107   2.358  14.419 -0.3320  0.3712 -0.2301
10430TIP3    H152781   0.130   2.326  14.331 -2.2997 -0.9670 -0.3211
10430TIP3    H252782   0.053   2.436  14.403  0.6443  1.0892 -0.1289
10431TIP3   OH252783   2.511   3.041  16.880 -0.6283  0.0795 -0.0641
10431TIP3    H152784   2.431   3.048  16.933  0.1910 -2.3847  1.6876
10431TIP3    H252785   2.571   3.105  16.917 -1.7459  2.0857 -1.5138
10432TIP3   OH252786   5.742   5.532   2.957  0.5441 -0.1908 -0.0731
10432TIP3    H152787   5.744   5.441   2.927  0.1549  0.0584 -0.8884
10432TIP3    H252788   5.663   5.568   2.917  0.8023  0.5596  0.0857
10433TIP3   OH252789   2.951   3.511   0.860 -0.1738  0.2234  0.2144
10433TIP3    H152790   3.041   3.528   0.833  0.1234 -0.1587  0.9362
10433TIP3    H252791   2.923   3.439   0.805  0.0513  0.1671  0.1708
10434TIP3   OH252792   0.526   3.670  11.041  0.1377 -0.2286  0.2767
10434TIP3    H152793   0.435   3.690  11.019  0.5086 -0.2231 -1.3311
10434TIP3    H252794   0.528   3.575  11.053 -0.5140 -0.0091  2.5843
10435TIP3   OH252795   2.841   1.319  16.821 -0.5126 -0.2120  0.0234
10435TIP3    H152796   2.835   1.398  16.874  1.0272 -1.4254  2.1534
10435TIP3    H252797   2.751   1.286  16.816 -0.9754  0.9972  0.1414
10436TIP3   OH252798   6.328   0.218   2.732  0.1055  0.6963 -0.3658
10436TIP3    H152799   6.380   0.297   2.723 -0.9507  1.5975  0.9809
10436TIP3    H252800   6.264   0.239   2.801 -1.5454 -0.5944 -1.4202
10437TIP3   OH252801   4.193   4.706  12.731 -0.9612  0.5487  0.0053
10437TIP3    H152802   4.261   4.773  12.730 -0.3426 -0.0618  0.7179
10437TIP3    H252803   4.226   4.638  12.672 -0.2354 -0.4309  1.4985
10438TIP3   OH252804   3.317   6.486  13.596 -0.0103  0.1838  0.1186
10438TIP3    H152805   3.249   6.553  13.587  0.5089  0.6501 -0.4347
10438TIP3    H252806   3.273   6.413  13.641 -0.7533  0.6405  0.1581
10439TIP3   OH252807   6.462   5.397  10.645  0.5052  0.1986 -0.9403
10439TIP3    H152808   6.441   5.336  10.717  1.1711  1.2168  0.1504
10439TIP3    H252809   6.543   5.362  10.608 -0.2476 -0.7709 -1.7366
10440TIP3   OH252810   6.069   0.330  17.130 -0.3556  0.1056 -0.2057
10440TIP3    H152811   6.097   0.418  17.103 -1.7110  0.5878 -0.1488
10440TIP3    H252812   6.041   0.288  17.049 -1.3459  0.3774 -0.0254
10441TIP3   OH252813   6.678   3.272   2.653  0.6464  0.2271  0.0188
10441TIP3    H152814   6.720   3.353   2.624  0.6239 -0.1701 -1.1578
10441TIP3    H252815   6.724   3.202   2.606  0.4627 -0.4256  0.7791
10442TIP3   OH252816   5.552   4.947  13.121  0.0785 -0.8079  0.2449
10442TIP3    H152817   5.476   5.005  13.117 -1.6114 -2.9368 -0.8860
10442TIP3    H252818   5.590   4.952  13.033  0.7465 -0.4368  0.5450
10443TIP3   OH252819   1.804   0.300  15.788 -0.2299  0.0483 -0.2816
10443TIP3    H152820   1.891   0.267  15.808 -1.1767 -1.1590  2.2143
10443TIP3    H252821   1.813   0.396  15.793  0.9650 -0.0523 -0.3000
10444TIP3   OH252822   0.800   3.778   2.530 -0.1292 -0.2954 -0.3911
10444TIP3    H152823   0.811   3.714   2.460 -2.3058 -0.7388 -0.3922
10444TIP3    H252824   0.823   3.731   2.610  0.5842 -0.3365 -0.6126
10445TIP3   OH252825   6.666   4.739  15.622  0.9250 -0.2955 -0.3531
10445TIP3    H152826   6.683   4.728  15.715 -0.2335 -0.5491 -0.1568
10445TIP3    H252827   6.579   4.701  15.608  1.1344 -0.3841 -1.5631
10446TIP3   OH252828   6.615   0.310  15.392 -0.2821 -0.0233  0.4233
10446TIP3    H152829   6.663   0.326  15.310  0.7458 -0.9504  0.8156
10446TIP3    H252830   6.633   0.387  15.446 -0.5861  0.3803 -0.0454
10447TIP3   OH252831   3.738   4.767   1.671  0.1807 -0.4108 -0.0422
10447TIP3    H152832   3.690   4.686   1.688  1.9338 -1.6778 -0.8149
10447TIP3    H252833   3.823   4.754   1.713  0.5031  1.0179 -0.2024
10448TIP3   OH252834   1.580   2.854   6.189 -0.3930 -0.1341  0.2186
10448TIP3    H152835   1.577   2.813   6.102  0.6502  0.1974  0.0107
10448TIP3    H252836   1.519   2.928   6.182 -0.9477 -0.6013  0.0397
10449TIP3   OH252837   6.069   3.675   6.499  0.1370 -0.3551  0.0527
10449TIP3    H152838   6.116   3.639   6.575  0.8094 -0.4867 -0.4165
10449TIP3    H252839   5.980   3.641   6.508 -0.3110  1.0676  1.7558
10450TIP3   OH252840   1.002   4.054  14.050  0.1470 -0.0654 -0.3066
10450TIP3    H152841   1.066   4.004  13.999 -1.1176 -1.9863 -0.1224
10450TIP3    H252842   1.024   4.036  14.141 -0.9536 -1.2022 -0.2414
10451TIP3   OH252843   2.535   0.874   3.180  0.7863 -0.6763  0.4567
10451TIP3    H152844   2.565   0.861   3.270  0.8726  1.0029  0.7139
10451TIP3    H252845   2.601   0.932   3.141  0.0300 -0.2830 -0.2609
10452TIP3   OH252846   5.173   2.627  15.814  0.7392  0.7677 -0.2365
10452TIP3    H152847   5.157   2.701  15.872  0.6810  0.3446  0.2959
10452TIP3    H252848   5.107   2.562  15.839  0.8563  0.4938 -0.6222
10453TIP3   OH252849   0.644   1.852   4.681 -0.0653 -0.0305  0.0454
10453TIP3    H152850   0.560   1.828   4.720  0.3941 -0.2190  0.9505
10453TIP3    H252851   0.663   1.938   4.719  0.1751 -0.0153 -0.1105
10454TIP3   OH252852   6.507   3.223  13.152 -0.0648  0.2768  0.1859
10454TIP3    H152853   6.468   3.214  13.239  1.1794  0.4988  0.8003
10454TIP3    H252854   6.536   3.135  13.130 -0.7142  0.1521 -0.1710
10455TIP3   OH252855   3.725   1.749  15.583 -0.2560 -0.6554 -0.3550
10455TIP3    H152856   3.741   1.655  15.593 -1.3065 -0.7609  0.4750
10455TIP3    H252857   3.791   1.790  15.640 -0.2669 -0.9207 -0.1467
10456TIP3   OH252858   0.473   2.173  13.988 -0.6632  0.3888 -0.0531
10456TIP3    H152859   0.527   2.252  14.001  2.3439 -1.6885  1.1630
10456TIP3    H252860   0.434   2.186  13.902  0.0324  3.0235 -0.0838
10457TIP3   OH252861   4.007   0.151   0.410 -0.3404  0.5652 -0.0391
10457TIP3    H152862   4.088   0.165   0.458  0.9288  1.9206 -2.4153
10457TIP3    H252863   3.959   0.233   0.420 -0.8503  0.2381  0.2651
10458TIP3   OH252864   5.146   1.917  12.471  0.2444 -0.2082  0.9529
10458TIP3    H152865   5.099   1.962  12.401 -0.3616  1.0497  2.1137
10458TIP3    H252866   5.235   1.954  12.468  0.4908 -0.8396  0.2738
10459TIP3   OH252867   2.935   0.832  12.480  0.2485  0.2944  0.0312
10459TIP3    H152868   2.951   0.925  12.463 -0.2966  0.7089  1.5546
10459TIP3    H252869   2.840   0.823  12.473  0.2385  0.0030  0.4820
10460TIP3   OH252870   6.370   4.707   1.427 -0.0685  0.3237 -0.2620
10460TIP3    H152871   6.406   4.708   1.338  2.0289  0.9345  0.5231
10460TIP3    H252872   6.448   4.709   1.483 -1.3596  0.2839  1.5869
10461TIP3   OH252873   3.889   4.334   3.371  0.3358  0.2988  0.2273
10461TIP3    H152874   3.963   4.354   3.429  0.0440 -1.0121  1.0839
10461TIP3    H252875   3.812   4.358   3.421  0.0243 -1.8501  0.8874
10462TIP3   OH252876   2.318   2.006  11.419  0.2161 -0.1641  0.0552
10462TIP3    H152877   2.287   1.922  11.452  2.3607 -1.0474 -0.0569
10462TIP3    H252878   2.367   2.044  11.493  1.1039 -0.0224 -0.5977
10463TIP3   OH252879   0.800   5.759  13.120  0.0062 -0.2619  0.4439
10463TIP3    H152880   0.818   5.804  13.202 -0.5936  0.1364  0.3558
10463TIP3    H252881   0.710   5.782  13.098  0.3732  0.1719 -0.6643
10464TIP3   OH252882   4.284   5.800   1.937 -0.3972  0.4604  0.1308
10464TIP3    H152883   4.330   5.777   1.857  1.3233 -2.2460  1.7136
10464TIP3    H252884   4.317   5.887   1.960  2.2131 -0.4160 -0.0383
10465TIP3   OH252885   1.858   2.581   1.761 -0.0484  0.1487 -0.4681
10465TIP3    H152886   1.792   2.598   1.695  1.5755  1.2842 -1.9052
10465TIP3    H252887   1.897   2.667   1.779  1.5015 -0.5539 -0.2437
10466TIP3   OH252888   0.098   1.462   6.406 -0.2436 -0.0225 -0.0183
10466TIP3    H152889   0.146   1.406   6.467 -0.7585 -1.0573 -0.5379
10466TIP3    H252890   0.052   1.525   6.462  1.3027  0.6961  0.5142
10467TIP3   OH252891   3.763   5.776  12.505  0.3049 -0.7514 -0.1819
10467TIP3    H152892   3.690   5.801  12.449 -0.1974 -1.3519  0.1914
10467TIP3    H252893   3.747   5.684  12.526  0.0489 -0.3321  1.5891
10468TIP3   OH252894   5.057   3.950   2.676  0.0559  0.2719  0.4719
10468TIP3    H152895   4.967   3.921   2.660  0.8563 -1.2580 -1.6808
10468TIP3    H252896   5.048   4.042   2.702 -2.0692  0.4395 -0.6288
10469TIP3   OH252897   2.543   4.953  13.596  0.1575  0.4620  0.0147
10469TIP3    H152898   2.596   4.983  13.522  0.9604  0.1717  0.4591
10469TIP3    H252899   2.546   4.857  13.590 -0.3104  0.4425  0.0536
10470TIP3   OH252900   5.345   3.535   0.277  0.1027 -0.2662  0.2491
10470TIP3    H152901   5.437   3.510   0.286 -0.1096 -0.9188  0.6361
10470TIP3    H252902   5.347   3.630   0.264  0.8555 -0.3333 -0.1567
10471TIP3   OH252903   1.323   6.177  16.462  0.7610 -0.0569 -0.4019
10471TIP3    H152904   1.256   6.116  16.491  2.1281 -1.3990  0.0329
10471TIP3    H252905   1.277   6.238  16.404 -1.1508  0.0770  1.1672
10472TIP3   OH252906   3.716   4.052  13.740 -0.4426 -0.0096  0.4985
10472TIP3    H152907   3.702   3.985  13.808 -0.5494 -2.6229 -1.9238
10472TIP3    H252908   3.808   4.076  13.749 -0.0224 -1.5141  0.6008
10473TIP3   OH252909   2.969   4.729  17.408 -0.1882 -0.1190  0.4600
10473TIP3    H152910   2.951   4.816  17.444  2.3151  0.0871  1.3681
10473TIP3    H252911   2.997   4.746  17.318  0.6952  0.0813  0.7632
10474TIP3   OH252912   1.490   4.147  16.921 -0.8590 -0.1458 -0.3467
10474TIP3    H152913   1.552   4.178  16.854  0.5609  0.1755  1.0615
10474TIP3    H252914   1.471   4.056  16.895  0.0438 -0.1879 -0.9258
10475TIP3   OH252915   1.822   5.940   1.375 -0.4014 -0.1988  0.3272
10475TIP3    H152916   1.874   5.917   1.452 -1.8817 -2.6468  0.7042
10475TIP3    H252917   1.759   6.006   1.407  0.1510  0.1356  0.7379
10476TIP3   OH252918   3.204   6.076   1.384 -0.6478  0.3571 -0.5413
10476TIP3    H152919   3.230   6.017   1.313  1.9159  0.3869  0.2671
10476TIP3    H252920   3.244   6.160   1.361  0.9143  0.1752  1.2273
10477TIP3   OH252921   3.652   1.956  14.696 -0.7045  0.6939 -0.7393
10477TIP3    H152922   3.673   2.018  14.766 -0.5013  1.5536 -1.5364
10477TIP3    H252923   3.710   1.981  14.624  0.1875 -1.1549 -0.7155
10478TIP3   OH252924   1.244   2.965  14.091  0.6679  0.6699  0.0974
10478TIP3    H152925   1.220   2.943  14.001  1.2431 -1.1527  0.3522
10478TIP3    H252926   1.334   2.998  14.085  0.4569  1.2327 -0.0634
10479TIP3   OH252927   4.413   5.437   3.375 -0.0961  0.1817 -0.1239
10479TIP3    H152928   4.365   5.378   3.317  0.1983  1.0193 -1.2653
10479TIP3    H252929   4.431   5.385   3.454 -0.0910 -1.1479 -0.9724
10480TIP3   OH252930   1.550   2.219   2.855 -0.2759 -0.5535  0.1306
10480TIP3    H152931   1.638   2.225   2.892  0.0632  1.7725 -0.8717
10480TIP3    H252932   1.493   2.260   2.921 -0.5112 -1.3613  0.4397
10481TIP3   OH252933   1.889   3.263  16.822  0.2750  0.2525  0.3097
10481TIP3    H152934   1.828   3.332  16.796 -1.5392 -0.9724  1.1235
10481TIP3    H252935   1.859   3.236  16.909 -0.2057 -2.7362 -0.6790
10482TIP3   OH252936   0.859   4.374  12.743  0.1510 -0.2403  0.1934
10482TIP3    H152937   0.939   4.410  12.781  1.3291 -1.7531 -0.7139
10482TIP3    H252938   0.887   4.340  12.658 -1.6459 -0.1057 -0.4950
10483TIP3   OH252939   5.309   5.708   5.198 -0.0445 -0.7113  0.6366
10483TIP3    H152940   5.252   5.785   5.196 -0.7134 -1.2032  0.6020
10483TIP3    H252941   5.252   5.635   5.173  0.4440 -1.3053  1.2160
10484TIP3   OH252942   6.208   4.797   5.184  0.1692  0.1521 -0.0877
10484TIP3    H152943   6.176   4.709   5.161  0.3255  0.3518 -1.1119
10484TIP3    H252944   6.210   4.844   5.101 -1.3662  1.6212  0.6603
10485TIP3   OH252945   1.488   6.393  17.471 -0.7174  0.1257 -0.4723
10485TIP3    H152946   1.420   6.455  17.447 -0.6609 -0.3951 -2.1244
10485TIP3    H252947   1.562   6.448  17.498 -1.4672  0.7019  0.4890
10486TIP3   OH252948   1.422   6.107  11.636  0.2465 -0.0056  0.3328
10486TIP3    H152949   1.334   6.127  11.667  0.7248 -0.9124  2.4054
10486TIP3    H252950   1.478   6.173  11.676  0.7572 -0.6166  0.6407
10487TIP3   OH252951   4.290   2.485   5.068 -0.4676 -0.0656  0.4453
10487TIP3    H152952   4.208   2.498   5.022  0.3871  0.7294 -0.9037
10487TIP3    H252953   4.330   2.409   5.024  0.4166  0.7847 -0.2569
10488TIP3   OH252954   0.971   2.524   2.802  0.4613  0.0571  0.2519
10488TIP3    H152955   0.940   2.510   2.713  1.7817 -0.8669 -0.0845
10488TIP3    H252956   0.964   2.439   2.844 -0.3476  0.5262  1.1240
10489TIP3   OH252957   3.644   2.228   6.363 -0.3551  0.3145  0.1743
10489TIP3    H152958   3.694   2.149   6.386 -0.0066  0.2303 -0.8407
10489TIP3    H252959   3.685   2.259   6.282 -0.7403  1.3236  0.3654
10490TIP3   OH252960   3.820   6.357  17.502  1.0326  0.0164 -0.0373
10490TIP3    H152961   3.915   6.350  17.512  0.9692  1.0722  1.9548
10490TIP3    H252962   3.789   6.267  17.510  1.8100 -0.2490  0.1270
10491TIP3   OH252963   4.623   1.180  11.351 -0.5550  0.1970  0.8395
10491TIP3    H152964   4.605   1.262  11.305 -0.9327  0.9123  2.2034
10491TIP3    H252965   4.650   1.207  11.438  0.7901 -1.0991  0.8642
10492TIP3   OH252966   4.245   1.624   2.129  0.4087 -0.1200  0.0426
10492TIP3    H152967   4.192   1.699   2.100 -0.1748  0.2348  1.8739
10492TIP3    H252968   4.316   1.619   2.066 -0.6208  0.7594 -1.2414
10493TIP3   OH252969   1.386   5.249  14.658  0.6107 -0.0638  0.5715
10493TIP3    H152970   1.346   5.187  14.596  1.6457 -0.1839 -0.0063
10493TIP3    H252971   1.382   5.205  14.742 -0.0458 -0.2585  0.4490
10494TIP3   OH252972   3.838   0.729   1.815 -0.2850 -0.6031 -0.3010
10494TIP3    H152973   3.798   0.732   1.728  0.5065  2.1330 -0.6541
10494TIP3    H252974   3.793   0.797   1.864  1.6699  0.3411  0.2873
10495TIP3   OH252975   6.744   3.203   5.109  0.4608  0.2984  0.3574
10495TIP3    H152976   6.686   3.154   5.168 -0.2200  1.1554  0.4093
10495TIP3    H252977   6.778   3.136   5.048  0.4431 -0.4310  1.1299
10496TIP3   OH252978   5.515   1.849  13.513  0.3220 -0.0832  0.7062
10496TIP3    H152979   5.565   1.798  13.577  0.0488 -2.2957 -0.7430
10496TIP3    H252980   5.454   1.786  13.474 -1.4788  1.8371  0.2345
10497TIP3   OH252981   2.088   0.058  15.500 -0.7199  0.6606  0.1244
10497TIP3    H152982   2.057   0.008  15.575  0.9075  0.0899  0.4505
10497TIP3    H252983   2.050   0.145  15.512  0.6241  1.0175  2.4003
10498TIP3   OH252984   4.110   2.508  17.302  0.3117 -0.8499  0.1954
10498TIP3    H152985   4.144   2.545  17.384  1.5160  1.8162 -1.3717
10498TIP3    H252986   4.093   2.584  17.247  1.3596 -2.5753 -2.7117
10499TIP3   OH252987   2.780   2.797   1.366  0.3403  0.2885  0.0571
10499TIP3    H152988   2.863   2.752   1.353  1.7826  3.0343 -1.0199
10499TIP3    H252989   2.803   2.890   1.371 -2.4357  1.0127  2.1944
10500TIP3   OH252990   0.368   4.067  15.189  0.1972  0.0053  0.2050
10500TIP3    H152991   0.332   4.148  15.152  2.3628  1.9723  2.1117
10500TIP3    H252992   0.317   4.054  15.269 -0.6830 -1.0399 -0.4969
10501TIP3   OH252993   2.996   3.823   3.449 -0.0396 -0.2915  0.4819
10501TIP3    H152994   2.994   3.883   3.523 -0.8311  0.4570 -0.1249
10501TIP3    H252995   3.070   3.853   3.395 -1.0633  0.8351 -0.3535
10502TIP3   OH252996   5.730   0.294  15.394  0.0697  0.1068  0.0373
10502TIP3    H152997   5.779   0.376  15.390  3.1099 -1.4911  1.2959
10502TIP3    H252998   5.759   0.246  15.316  0.4458 -0.8308  0.7462
10503TIP3   OH252999   4.314   1.836   6.514  0.1608 -0.2672 -0.6032
10503TIP3    H153000   4.245   1.837   6.581 -0.2606 -2.2839 -0.9494
10503TIP3    H253001   4.328   1.928   6.494  0.7727  0.4971  2.7047
10504TIP3   OH253002   2.850   1.052  11.943 -0.0528 -0.1189  0.0108
10504TIP3    H153003   2.826   1.046  12.035  1.0478  0.0811  0.3303
10504TIP3    H253004   2.768   1.072  11.897 -0.5910 -0.1456  0.9484
10505TIP3   OH253005   1.438   3.149   0.901  0.0434 -0.4900  0.5753
10505TIP3    H153006   1.396   3.235   0.903  1.1194  0.0873  3.7282
10505TIP3    H253007   1.365   3.087   0.902 -0.7313  0.3785  0.0178
10506TIP3   OH253008   2.368   6.502   3.410  0.1432 -0.2814 -0.3199
10506TIP3    H153009   2.306   6.556   3.460  0.2827 -0.2711 -0.1592
10506TIP3    H253010   2.446   6.555   3.402  0.9503 -1.1430  1.4086
10507TIP3   OH253011   5.961   3.324  15.622  0.2779 -0.5765  0.0509
10507TIP3    H153012   6.020   3.393  15.653  1.2841 -1.4292  0.1232
10507TIP3    H253013   5.999   3.297  15.538  0.0841 -1.2437  0.1731
10508TIP3   OH253014   3.620   6.450   2.188 -0.5259  0.5984  0.4131
10508TIP3    H153015   3.642   6.357   2.190 -0.9974  0.4824  0.5295
10508TIP3    H253016   3.695   6.492   2.147 -0.6650  0.0661 -0.4125
10509TIP3   OH253017   6.079   6.001   4.562 -0.2883 -0.2122  0.3212
10509TIP3    H153018   6.114   6.017   4.474  1.1893  0.5410  1.0203
10509TIP3    H253019   6.123   6.065   4.617 -2.0740  0.1236  1.4404
10510TIP3   OH253020   1.510   5.401  12.219 -0.3958 -0.3136  0.2513
10510TIP3    H153021   1.550   5.331  12.168 -0.6134 -0.1636 -0.1294
10510TIP3    H253022   1.556   5.481  12.192  1.0796 -0.5139  1.9619
10511TIP3   OH253023   0.876   2.146   0.171 -0.0183 -0.3528  0.2444
10511TIP3    H153024   0.791   2.184   0.192 -0.1984 -0.1438 -0.8172
10511TIP3    H253025   0.867   2.053   0.188 -0.3025 -0.2577  0.6085
10512TIP3   OH253026   0.291   3.411   1.939 -0.2428 -0.0096  0.0657
10512TIP3    H153027   0.285   3.506   1.950 -0.8881  0.2325 -2.0011
10512TIP3    H253028   0.242   3.393   1.859 -0.0100 -2.0886  0.3400
10513TIP3   OH253029   3.836   4.143  15.895 -0.0880 -0.0286 -0.3078
10513TIP3    H153030   3.903   4.211  15.907 -0.1564 -0.2668  1.8170
10513TIP3    H253031   3.848   4.113  15.804  3.0511 -0.4153  0.1179
10514TIP3   OH253032   0.383   3.475  15.467 -0.1531  0.3470 -0.5919
10514TIP3    H153033   0.389   3.510  15.379 -1.7404  1.0938 -0.4259
10514TIP3    H253034   0.453   3.410  15.472 -0.7392 -0.5106 -2.7620
10515TIP3   OH253035   0.715   2.119  16.043 -1.2029  0.6211 -0.3033
10515TIP3    H153036   0.676   2.073  16.116 -1.2806  0.2895 -0.5513
10515TIP3    H253037   0.787   2.169  16.081 -1.1322  0.3120 -0.0317
10516TIP3   OH253038   0.271   5.479   5.258 -0.4318  0.4948 -0.3137
10516TIP3    H153039   0.328   5.405   5.235  0.5174  1.7251 -2.1749
10516TIP3    H253040   0.300   5.506   5.345 -1.1262 -1.5819  0.6262
10517TIP3   OH253041   2.631   6.767   5.206 -0.4274  0.1404  0.7970
10517TIP3    H153042   2.587   6.807   5.281 -0.0093  2.0081  0.1050
10517TIP3    H253043   2.724   6.785   5.220 -0.1385 -1.2410  0.7998
10518TIP3   OH253044   4.093   2.269   3.262  0.3611 -0.4122  0.0222
10518TIP3    H153045   4.107   2.350   3.311  0.9784 -1.9229  2.5435
10518TIP3    H253046   3.998   2.264   3.253  0.3769  1.7605 -2.4583
10519TIP3   OH253047   0.397   5.191  11.187  0.2158 -0.1244  0.5515
10519TIP3    H153048   0.367   5.106  11.153  2.2090 -0.8650  0.4883
10519TIP3    H253049   0.319   5.230  11.226 -0.6407 -2.2648  1.1307
10520TIP3   OH253050   2.752   2.477  13.509 -0.7306  0.2003  0.2063
10520TIP3    H153051   2.714   2.564  13.495  0.1017  0.6272  0.5423
10520TIP3    H253052   2.846   2.489  13.494 -0.5664 -0.5696  0.5676
10521TIP3   OH253053   0.570   3.644  17.437  0.1745 -0.5407 -0.5919
10521TIP3    H153054   0.514   3.702  17.384 -0.0493 -0.5242 -0.3377
10521TIP3    H253055   0.519   3.627  17.516  0.0717 -1.4039 -0.8282
10522TIP3   OH253056   1.388   4.675  12.166 -0.4484  0.0843  0.0956
10522TIP3    H153057   1.317   4.734  12.189 -0.8856 -0.2813 -0.2862
10522TIP3    H253058   1.407   4.627  12.246  0.4294  1.2654  0.6144
10523TIP3   OH253059   3.982   4.384  17.226  0.0714  0.3740 -0.3436
10523TIP3    H153060   3.937   4.356  17.306  1.4283 -1.6341 -0.2450
10523TIP3    H253061   3.990   4.305  17.174  1.1582  1.2265 -1.5158
10524TIP3   OH253062   4.531   3.766  16.341  0.3634  0.0462 -0.0245
10524TIP3    H153063   4.507   3.838  16.400 -0.4583 -0.9498  0.9115
10524TIP3    H253064   4.504   3.687  16.388 -0.0102 -0.8110 -1.6080
10525TIP3   OH253065   6.211   4.605  17.307  0.2743 -0.4346 -0.0738
10525TIP3    H153066   6.170   4.688  17.281  0.4983 -0.5077 -0.6801
10525TIP3    H253067   6.299   4.609  17.271  0.5882 -0.5556  0.6726
10526TIP3   OH253068   1.356   4.355   3.682 -0.5082  0.0662 -0.1778
10526TIP3    H153069   1.424   4.330   3.620 -0.0609 -0.8191  0.6427
10526TIP3    H253070   1.293   4.282   3.679  0.3053 -0.7614  1.5204
10527TIP3   OH253071   5.807   6.619   2.642  0.3068 -0.2107  0.0531
10527TIP3    H153072   5.809   6.563   2.564 -2.2050  0.6744 -0.7509
10527TIP3    H253073   5.791   6.557   2.714  1.0546 -0.8778 -0.3374
10528TIP3   OH253074   2.289   3.323  11.547 -0.0176  0.0358 -0.1844
10528TIP3    H153075   2.310   3.259  11.479 -1.4706  0.2321 -0.8639
10528TIP3    H253076   2.373   3.363  11.570  0.7531 -1.3328 -0.5314
10529TIP3   OH253077   5.152   2.416  15.272  0.1846 -0.1147  0.1763
10529TIP3    H153078   5.230   2.472  15.268  0.1442 -0.1128 -1.0633
10529TIP3    H253079   5.154   2.368  15.189 -0.9592 -0.3434  0.2781
10530TIP3   OH253080   6.625   4.527   6.727  0.5831 -0.3167  0.9272
10530TIP3    H153081   6.626   4.458   6.793  0.7297 -0.7659  0.4612
10530TIP3    H253082   6.556   4.500   6.666  0.5436  0.0234  0.8196
10531TIP3   OH253083   6.091   2.165   4.790 -0.1984  0.0460  0.5000
10531TIP3    H153084   6.044   2.248   4.784 -0.2668 -0.0489 -0.6524
10531TIP3    H253085   6.167   2.177   4.732 -0.0980 -0.6159  0.4888
10532TIP3   OH253086   4.163   0.751  14.383 -0.4161  0.1344  0.4501
10532TIP3    H153087   4.074   0.786  14.396 -0.4348  0.6913 -1.0495
10532TIP3    H253088   4.186   0.777  14.294  0.9576 -0.6872  0.5488
10533TIP3   OH253089   5.775   3.909  15.919  0.2195  0.1561 -0.0864
10533TIP3    H153090   5.819   3.846  15.976 -1.3959 -1.1605 -0.2077
10533TIP3    H253091   5.845   3.945  15.865  1.3784 -0.6284  0.8412
10534TIP3   OH253092   2.204   0.647  14.670 -0.2475 -0.2551 -0.0369
10534TIP3    H153093   2.235   0.596  14.745  0.1520 -0.2366 -0.1862
10534TIP3    H253094   2.115   0.615  14.655 -1.0078  0.9627  1.5493
10535TIP3   OH253095   0.405   5.558   2.879  0.2193 -0.1642 -0.2150
10535TIP3    H153096   0.405   5.595   2.790 -1.4099 -0.7634 -0.5142
10535TIP3    H253097   0.314   5.568   2.908  0.5872 -0.5875  1.1284
10536TIP3   OH253098   6.346   3.926  14.594 -0.0139 -0.0399 -0.5083
10536TIP3    H153099   6.434   3.891  14.579 -0.7486 -1.6629 -1.3844
10536TIP3    H253100   6.341   4.004  14.540  0.9145  0.1011 -0.3969
10537TIP3   OH253101   5.095   5.936  17.028 -0.0905  0.0031  0.3628
10537TIP3    H153102   5.038   5.984  16.969  0.4516  1.0023  0.6295
10537TIP3    H253103   5.149   5.882  16.971 -0.3640  0.0912  0.0213
10538TIP3   OH253104   6.132   4.084   6.751  0.2226 -0.0920 -0.7905
10538TIP3    H153105   6.145   4.017   6.684 -2.2369 -0.7014 -0.7613
10538TIP3    H253106   6.077   4.151   6.709 -0.0565  0.2811  0.1371
10539TIP3   OH253107   0.533   0.381   1.150 -0.3767 -0.8032 -0.2119
10539TIP3    H153108   0.505   0.305   1.201  0.7552 -0.4969  0.9114
10539TIP3    H253109   0.623   0.361   1.124 -0.3920 -0.2552 -0.7149
10540TIP3   OH253110   3.184   1.400  14.275  0.0622  0.7217 -0.5937
10540TIP3    H153111   3.192   1.364  14.363 -1.6450 -0.0230 -0.7072
10540TIP3    H253112   3.165   1.493  14.288 -0.0236  0.6465 -0.1879
10541TIP3   OH253113   1.115   0.665   1.383  0.0829  0.2404  0.1076
10541TIP3    H153114   1.162   0.669   1.299 -1.5555  2.8065 -0.8133
10541TIP3    H253115   1.145   0.742   1.431 -1.0504  0.3222  0.7105
10542TIP3   OH253116   5.292   4.755  10.908 -0.0792  0.1131 -0.2356
10542TIP3    H153117   5.367   4.731  10.853 -0.2543  0.6999 -0.7387
10542TIP3    H253118   5.308   4.710  10.991  0.0439 -1.0298 -0.8526
10543TIP3   OH253119   2.839   0.945  15.967 -0.1763 -1.2305  0.2766
10543TIP3    H153120   2.827   0.903  16.052 -0.6308  1.5067  1.6981
10543TIP3    H253121   2.934   0.951  15.957 -0.1089 -0.6087  1.1538
10544TIP3   OH253122   6.462   2.708   2.262  0.1910  0.6275 -0.1417
10544TIP3    H153123   6.478   2.616   2.284 -0.2749  0.6603  0.3497
10544TIP3    H253124   6.480   2.714   2.168 -2.7419 -0.6430 -0.8935
10545TIP3   OH253125   1.418   0.619   3.340  0.1859 -0.0044 -0.4703
10545TIP3    H153126   1.490   0.669   3.379  1.3691 -0.8227 -1.5527
10545TIP3    H253127   1.388   0.562   3.411  3.1477 -2.3848 -0.9329
10546TIP3   OH253128   4.865   3.608   3.034 -0.3359 -0.0901  0.1547
10546TIP3    H153129   4.881   3.655   3.115 -1.2725 -0.4794  0.5707
10546TIP3    H253130   4.922   3.531   3.039  0.2289  0.3099  0.0516
10547TIP3   OH253131   5.094   4.386   5.137 -0.3944  0.3509 -0.1807
10547TIP3    H153132   5.037   4.448   5.184 -0.4865  0.5170 -0.5089
10547TIP3    H253133   5.044   4.305   5.133 -0.1902  0.1838  0.4373
10548TIP3   OH253134   0.544   2.249   5.989 -0.8058 -0.0208 -0.0292
10548TIP3    H153135   0.489   2.261   6.066 -2.0333 -1.8537 -0.5403
10548TIP3    H253136   0.612   2.188   6.017 -0.6588  0.1001 -0.1235
10549TIP3   OH253137   6.763   2.819   0.027 -0.1749 -0.1530  0.6735
10549TIP3    H153138   6.798   2.843  -0.059 -0.7199 -1.1641  0.1405
10549TIP3    H253139   6.676   2.860   0.030  0.1122  0.4413  1.0340
10550TIP3   OH253140   3.974   2.820   4.796 -0.0744 -0.1249  0.6440
10550TIP3    H153141   4.051   2.781   4.838  0.4949 -0.1616 -0.3940
10550TIP3    H253142   4.005   2.846   4.709 -1.0562  0.5214  0.4711
10551TIP3   OH253143   6.361   0.984  10.476 -0.0765  0.2907  0.2802
10551TIP3    H153144   6.286   1.043  10.476  0.5479  1.1340 -1.3374
10551TIP3    H253145   6.437   1.040  10.487  0.5198 -0.1789 -1.1357
10552TIP3   OH253146   5.124   4.832   4.634 -0.1427 -0.3797  0.3456
10552TIP3    H153147   5.173   4.838   4.716  1.3311  1.2252 -0.5723
10552TIP3    H253148   5.174   4.886   4.573 -1.1588 -1.5710 -1.6352
10553TIP3   OH253149   1.125   6.231  15.943 -0.0461 -0.5435  0.4821
10553TIP3    H153150   1.069   6.154  15.936 -0.5154 -0.0819 -1.8089
10553TIP3    H253151   1.065   6.305  15.934  0.5947  0.0406  0.9560
10554TIP3   OH253152   5.612   4.785   0.436  0.4005  0.1832 -0.3542
10554TIP3    H153153   5.527   4.822   0.417  0.2828  0.6338  0.9518
10554TIP3    H253154   5.674   4.858   0.427  0.7144 -0.2001 -1.5684
10555TIP3   OH253155   2.974   4.536   5.718  0.7981 -0.4667 -0.0136
10555TIP3    H153156   2.987   4.461   5.776  2.1585  0.4500  0.9373
10555TIP3    H253157   2.880   4.553   5.720  0.9722  0.9041  3.7745
10556TIP3   OH253158   3.285   0.888  17.346 -0.1752 -0.1623  0.1340
10556TIP3    H153159   3.282   0.854  17.435 -0.2955 -1.9361 -0.5029
10556TIP3    H253160   3.356   0.952  17.347  0.0922 -0.4517  1.4029
10557TIP3   OH253161   0.431   6.709  13.333  0.1596  0.5751 -0.0707
10557TIP3    H153162   0.397   6.705  13.244 -0.8326 -2.5421  0.3270
10557TIP3    H253163   0.521   6.676  13.326  0.3725  1.1240 -0.0033
10558TIP3   OH253164   1.449   1.204   6.060 -0.1240  0.0140 -0.0900
10558TIP3    H153165   1.434   1.155   5.979 -0.9561 -0.0135  0.0768
10558TIP3    H253166   1.478   1.138   6.123 -1.6307 -0.3613  0.2479
10559TIP3   OH253167   4.188   2.530  15.878  0.1387 -0.4446 -0.2307
10559TIP3    H153168   4.269   2.486  15.852  1.6960  0.6885  2.2354
10559TIP3    H253169   4.176   2.505  15.970 -1.2814  0.8694 -0.0119
10560TIP3   OH253170   3.913   1.476   1.096  0.3255 -0.1642  0.5564
10560TIP3    H153171   3.971   1.537   1.050  1.7164 -1.1553  0.9260
10560TIP3    H253172   3.855   1.532   1.147  1.3225  0.8699  0.5939
10561TIP3   OH253173   5.978   0.996   1.894  0.2358 -0.2623  0.4459
10561TIP3    H153174   5.991   0.935   1.821 -1.1583  0.3474 -0.3601
10561TIP3    H253175   5.977   0.940   1.972  1.5675 -0.9522  0.0103
10562TIP3   OH253176   5.182   0.665   4.775 -0.2113  0.0497 -0.2910
10562TIP3    H153177   5.222   0.740   4.730  0.5797 -0.0723  0.1862
10562TIP3    H253178   5.255   0.619   4.815 -0.5634 -1.6349 -1.4997
10563TIP3   OH253179   1.440   1.025  14.429  0.1396  0.5513 -0.5328
10563TIP3    H153180   1.349   1.057  14.430  0.2051  0.7711  1.4309
10563TIP3    H253181   1.460   1.008  14.521  2.7139  2.2932 -0.6803
10564TIP3   OH253182   2.464   5.376   0.451 -0.1565 -0.4305  0.4050
10564TIP3    H153183   2.553   5.412   0.459 -0.8772  1.2514  1.3067
10564TIP3    H253184   2.478   5.283   0.432  1.7943  0.0355 -0.7997
10565TIP3   OH253185   4.276   1.567   4.893 -0.1938 -0.4901 -0.3393
10565TIP3    H153186   4.347   1.592   4.952 -1.1847  0.2774  0.5740
10565TIP3    H253187   4.266   1.473   4.906 -1.5981 -0.1054  2.2092
10566TIP3   OH253188   3.012   5.521   6.311  0.3116 -0.1964  0.2695
10566TIP3    H153189   2.983   5.612   6.312  0.6843 -0.0437 -1.0546
10566TIP3    H253190   3.045   5.505   6.399 -0.6592  0.6407  0.8080
10567TIP3   OH253191   3.478   0.049   3.389 -0.3122 -0.5855  0.8128
10567TIP3    H153192   3.395   0.057   3.436 -1.9445 -0.9744 -1.7983
10567TIP3    H253193   3.460   0.085   3.302  2.1053 -1.2371 -0.0348
10568TIP3   OH253194   2.613   5.320  14.518  0.2157 -0.6554 -0.5404
10568TIP3    H153195   2.628   5.257  14.448 -0.3925 -1.1286 -0.2566
10568TIP3    H253196   2.603   5.266  14.597 -2.2584 -0.3796 -0.5900
10569TIP3   OH253197   6.169   5.896  17.397  0.1869 -0.3693 -0.0674
10569TIP3    H153198   6.134   5.816  17.357 -0.7774  0.5280 -1.0435
10569TIP3    H253199   6.230   5.930  17.333 -2.4229  1.8569 -1.5720
10570TIP3   OH253200   4.107   2.345  11.521  0.8067  0.6933 -0.0989
10570TIP3    H153201   4.079   2.284  11.452  0.8507 -0.2339  0.6692
10570TIP3    H253202   4.131   2.425  11.475 -0.3069  0.5102 -1.0490
10571TIP3   OH253203   3.903   0.734  14.158 -0.3473 -0.0497  0.0819
10571TIP3    H153204   3.890   0.640  14.174 -0.0010 -0.5067 -1.9662
10571TIP3    H253205   3.991   0.741  14.123 -1.2633  0.6046 -2.3296
10572TIP3   OH253206   5.428   3.495   1.905 -0.0778 -0.1661  0.3686
10572TIP3    H153207   5.383   3.499   1.989  0.4642  1.0116  0.6246
10572TIP3    H253208   5.428   3.402   1.882  1.1461 -0.7438  2.4389
10573TIP3   OH253209   4.635   0.568  16.836 -0.0355 -0.2236  0.1378
10573TIP3    H153210   4.632   0.526  16.750 -0.2242  0.2167 -0.0745
10573TIP3    H253211   4.690   0.645  16.823 -2.8142  1.7723 -0.4580
10574TIP3   OH253212   4.241   0.393  15.966  0.1516  0.0163 -0.1087
10574TIP3    H153213   4.319   0.413  16.018  0.3945  1.1617 -0.8821
10574TIP3    H253214   4.273   0.388  15.876 -0.5868 -0.0463 -0.3772
10575TIP3   OH253215   5.976   6.768   6.628  0.3552  0.3785 -0.1855
10575TIP3    H153216   6.053   6.742   6.579 -0.2879 -0.2947 -0.8675
10575TIP3    H253217   5.960   6.696   6.689  1.1722  1.2251  1.0687
10576TIP3   OH253218   6.654   3.668   2.938  0.3384  0.5280  0.1017
10576TIP3    H153219   6.632   3.667   3.031  0.6336  1.3582  0.1962
10576TIP3    H253220   6.641   3.578   2.908 -1.0237  0.5177  0.6497
10577TIP3   OH253221   2.833   2.834  11.552  0.6889 -0.7855  0.0938
10577TIP3    H153222   2.741   2.834  11.526  0.4905 -0.8250  0.7759
10577TIP3    H253223   2.840   2.764  11.616  0.7168  0.5793  1.6496
10578TIP3   OH253224   4.347   2.807   3.238 -0.2195  0.1512 -0.0765
10578TIP3    H153225   4.378   2.805   3.329 -0.0699 -0.4020 -0.1411
10578TIP3    H253226   4.421   2.775   3.187 -0.8522 -1.0687 -0.2454
10579TIP3   OH253227   3.667   5.799  13.225  0.2649  0.7687  0.2848
10579TIP3    H153228   3.712   5.810  13.309 -0.2681 -1.2993  0.9050
10579TIP3    H253229   3.589   5.854  13.231 -1.3294 -1.4807  2.4269
10580TIP3   OH253230   2.889   5.224   0.417  0.8113  0.6079  0.1911
10580TIP3    H153231   2.803   5.265   0.427  0.2623 -0.6892  1.0066
10580TIP3    H253232   2.911   5.238   0.325  0.1148  1.6822  0.1666
10581TIP3   OH253233   3.721   1.820  12.678 -0.4148 -0.7778 -0.4649
10581TIP3    H153234   3.644   1.851  12.631 -1.2914  0.2315  1.5305
10581TIP3    H253235   3.686   1.769  12.751  0.8729 -1.6996 -0.4551
10582TIP3   OH253236   4.360   6.609  16.245 -0.7467 -0.8461 -0.1132
10582TIP3    H153237   4.344   6.652  16.329 -1.2665 -1.9227  0.3531
10582TIP3    H253238   4.422   6.666  16.200 -1.3301  0.3236  0.5342
10583TIP3   OH253239   2.244   4.853  14.215  0.2909 -0.2310 -0.0651
10583TIP3    H153240   2.187   4.930  14.216 -0.8717 -1.0213 -1.6517
10583TIP3    H253241   2.205   4.795  14.281 -0.4859 -0.5727 -0.8079
10584TIP3   OH253242   6.243   6.679  15.630  0.1268 -0.4230 -0.0237
10584TIP3    H153243   6.218   6.587  15.641  0.0500 -0.4069 -0.0619
10584TIP3    H253244   6.338   6.679  15.637  0.1758 -0.5960 -0.6453
10585TIP3   OH253245   1.759   0.323   1.828  0.3433  0.2923 -0.6668
10585TIP3    H153246   1.729   0.335   1.918 -0.4399 -2.2435 -0.5260
10585TIP3    H253247   1.680   0.325   1.775  0.6110  0.0851 -1.0819
10586TIP3   OH253248   2.345   6.701   0.700 -0.0249  0.4370  0.2514
10586TIP3    H153249   2.299   6.785   0.690  0.9616  0.7969 -1.8034
10586TIP3    H253250   2.276   6.635   0.697 -0.6702  1.0947  0.3010
10587TIP3   OH253251   2.236   5.526  11.612  0.6058 -0.4201 -0.3978
10587TIP3    H153252   2.331   5.542  11.606  0.6874 -0.7750 -0.0692
10587TIP3    H253253   2.228   5.432  11.600  0.3274 -0.4464 -0.0074
10588TIP3   OH253254   0.998   2.362  17.090 -0.1372  0.7147 -0.3018
10588TIP3    H153255   0.951   2.445  17.094  0.2417  0.8864  0.8687
10588TIP3    H253256   1.001   2.332  17.181  1.3102  0.3016 -0.4630
10589TIP3   OH253257   4.685   0.892   4.421  0.4588  0.0981  0.3773
10589TIP3    H153258   4.711   0.981   4.443  1.3963 -0.3455  1.1666
10589TIP3    H253259   4.768   0.847   4.402  0.3714 -1.3937  3.0596
10590TIP3   OH253260   4.712   4.799   3.626  0.0217  0.4112  0.6827
10590TIP3    H153261   4.671   4.777   3.710 -0.6992 -1.0171 -0.0223
10590TIP3    H253262   4.801   4.765   3.633 -0.5172 -1.1243  0.2988
10591TIP3   OH253263   2.865   4.628   5.129 -0.4353  0.0235 -0.0191
10591TIP3    H153264   2.889   4.636   5.037 -0.6040  0.0031 -0.0645
10591TIP3    H253265   2.942   4.589   5.171 -0.0716  0.7265 -0.0186
10592TIP3   OH253266   1.117   0.241   4.395  0.1719 -0.5362  0.3123
10592TIP3    H153267   1.096   0.254   4.302  1.6627  0.8556  0.1255
10592TIP3    H253268   1.113   0.328   4.433 -0.6972 -1.1247  1.6585
10593TIP3   OH253269   1.138   4.689  16.987  0.0779 -0.1671  0.3160
10593TIP3    H153270   1.071   4.733  16.934  0.5768 -1.3846 -1.4150
10593TIP3    H253271   1.106   4.599  16.996  1.3991 -0.7580 -0.4970
10594TIP3   OH253272   1.682   2.966  14.119 -0.4768 -0.2699 -0.1411
10594TIP3    H153273   1.604   3.020  14.101 -0.3062  0.5141  1.3372
10594TIP3    H253274   1.679   2.950  14.213  1.3517  0.0920  0.0093
10595TIP3   OH253275   1.877   2.410  12.049 -0.5115 -0.3597 -0.1136
10595TIP3    H153276   1.867   2.344  11.979  1.4449 -0.0961 -0.6996
10595TIP3    H253277   1.965   2.395  12.083 -0.8215  0.6200  1.1741
10596TIP3   OH253278   0.218   0.649  12.823  0.0421  0.3086  0.1909
10596TIP3    H153279   0.167   0.727  12.847  0.1183  0.2783  0.4470
10596TIP3    H253280   0.209   0.590  12.897 -0.0281  0.0631 -0.0093
10597TIP3   OH253281   3.117   0.689  11.706 -0.4626 -0.0338 -0.6105
10597TIP3    H153282   3.044   0.629  11.698  0.2042 -1.0157  0.3219
10597TIP3    H253283   3.095   0.744  11.781  0.0914 -0.8617  0.1798
10598TIP3   OH253284   6.357   5.930   5.879 -0.5839  0.4555  0.0419
10598TIP3    H153285   6.277   5.919   5.931 -1.5506 -1.1660 -1.6663
10598TIP3    H253286   6.360   6.024   5.860 -1.2621  0.7683  1.3558
10599TIP3   OH253287   1.179   1.192  14.850  0.2941  0.5037  0.0546
10599TIP3    H153288   1.124   1.270  14.841  1.1514  1.2306  1.0235
10599TIP3    H253289   1.268   1.225  14.862  0.5875 -0.5918  1.1370
10600TIP3   OH253290   5.086   4.759   0.709 -0.7479 -0.3292  0.0249
10600TIP3    H153291   5.063   4.790   0.621 -1.0186  0.3007  0.3098
10600TIP3    H253292   5.173   4.794   0.725 -1.0746  0.3475  0.3675
10601TIP3   OH253293   5.395   4.746  12.232  0.3987 -0.0461  0.1309
10601TIP3    H153294   5.312   4.775  12.270 -0.3017 -1.9715  0.2209
10601TIP3    H253295   5.380   4.751  12.137 -0.0471 -0.8810  0.1427
10602TIP3   OH253296   6.632   5.688  16.023  0.2408 -0.1090  0.1498
10602TIP3    H153297   6.636   5.719  15.933 -1.6849  3.2378  1.0181
10602TIP3    H253298   6.542   5.703  16.050  0.4004 -2.3623  2.2552
10603TIP3   OH253299   3.044   4.279   5.853  0.0307  0.9381  0.4256
10603TIP3    H153300   3.107   4.223   5.900  0.2590  0.8254 -0.0145
10603TIP3    H253301   2.971   4.221   5.833  0.5273  0.6298 -0.5652
10604TIP3   OH253302   5.780   2.247   4.959  0.1532 -0.3340  0.8859
10604TIP3    H153303   5.772   2.258   4.864 -0.4404  0.2861  0.9980
10604TIP3    H253304   5.771   2.152   4.972  0.1479 -0.4163  0.3297
10605TIP3   OH253305   3.482   0.950   6.377 -0.1627  0.2085  0.6043
10605TIP3    H153306   3.506   0.902   6.456 -2.3188  0.2296  1.3244
10605TIP3    H253307   3.496   1.042   6.400  0.3598  0.1482  0.5347
10606TIP3   OH253308   4.973   5.691   0.326 -0.3963 -0.1269  0.3512
10606TIP3    H153309   5.031   5.665   0.254  0.5792 -2.1475  1.7572
10606TIP3    H253310   4.888   5.701   0.285  0.8854  3.3056 -1.8561
10607TIP3   OH253311   3.946   6.702   5.713 -0.0649  0.0690  0.1216
10607TIP3    H153312   3.922   6.772   5.652 -2.0490 -0.8988 -0.2972
10607TIP3    H253313   4.012   6.651   5.666  0.2186  0.7531 -0.2243
10608TIP3   OH253314   5.818   4.212   3.501 -0.2860  0.1260  0.6481
10608TIP3    H153315   5.868   4.170   3.571  0.9766  0.8754  0.2545
10608TIP3    H253316   5.737   4.162   3.495  1.1360 -2.2852  0.1582
10609TIP3   OH253317   3.060   2.226  15.544 -0.0415  0.1974 -0.2349
10609TIP3    H153318   3.025   2.196  15.461  2.5045  1.6534 -1.9658
10609TIP3    H253319   3.135   2.281  15.521  1.3174 -0.0166  3.0423
10610TIP3   OH253320   4.724   4.977   1.994  0.1470  0.1677 -0.2412
10610TIP3    H153321   4.651   5.035   2.017 -0.2621 -0.4287  0.0017
10610TIP3    H253322   4.712   4.959   1.901 -1.8241 -2.3374  0.3827
10611TIP3   OH253323   0.166   2.189  14.875  0.1017  0.5840  0.2511
10611TIP3    H153324   0.084   2.198  14.924 -2.3130  1.7357 -3.5127
10611TIP3    H253325   0.149   2.234  14.792  3.9502 -0.7660 -1.5201
10612TIP3   OH253326   3.316   5.120  14.951 -0.2420  0.6082  0.1881
10612TIP3    H153327   3.276   5.033  14.957  0.8789 -0.3615 -3.6068
10612TIP3    H253328   3.242   5.181  14.950 -1.1631 -0.4700  0.6898
10613TIP3   OH253329   0.357   5.824  14.707 -0.4331  0.3769 -0.7569
10613TIP3    H153330   0.284   5.776  14.667 -0.2247  1.2781 -2.2732
10613TIP3    H253331   0.339   5.820  14.801 -1.5736 -0.7883 -0.9960
10614TIP3   OH253332   4.846   0.395   0.846  0.0980  0.1539  0.0265
10614TIP3    H153333   4.803   0.411   0.929 -0.7828 -0.5323 -0.2776
10614TIP3    H253334   4.774   0.392   0.782  0.6243 -0.5805 -0.5538
10615TIP3   OH253335   5.234   4.946   2.513  0.0692 -0.5789  0.5870
10615TIP3    H153336   5.323   4.979   2.500 -0.3519 -0.3045 -2.3636
10615TIP3    H253337   5.180   5.024   2.521 -0.1211 -0.6905  0.4083
10616TIP3   OH253338   4.007   0.798  11.727  0.1924  0.2316 -0.6098
10616TIP3    H153339   3.919   0.836  11.722 -0.3924 -0.6132  1.8393
10616TIP3    H253340   4.064   0.873  11.747 -0.7651  0.2275  2.8022
10617TIP3   OH253341   0.625   3.146  10.789  0.3584 -0.7840  0.0298
10617TIP3    H153342   0.533   3.129  10.810  0.6699 -0.3130  1.9287
10617TIP3    H253343   0.621   3.216  10.724 -0.6157  0.1955  1.0978
10618TIP3   OH253344   1.590   2.064   4.990 -0.7829 -0.7691  0.1443
10618TIP3    H153345   1.601   1.970   5.004 -1.0881 -1.0848 -1.5163
10618TIP3    H253346   1.675   2.094   4.958 -1.0623 -0.7646 -0.6272
10619TIP3   OH253347   5.441   6.728  16.989 -0.4869  1.1048 -0.0318
10619TIP3    H153348   5.377   6.673  16.944 -0.0880 -0.8988  1.6426
10619TIP3    H253349   5.493   6.768  16.920  0.0042 -1.6741 -1.4207
10620TIP3   OH253350   5.313   0.288   3.470 -0.2673  0.2921 -0.1671
10620TIP3    H153351   5.280   0.207   3.511 -0.8947  0.3742 -0.4963
10620TIP3    H253352   5.396   0.262   3.430  0.0801  0.0770  0.6702
10621TIP3   OH253353   3.056   1.028   4.301  0.3427  0.0753 -0.8600
10621TIP3    H153354   3.083   1.081   4.226  2.0763 -1.4485 -1.3695
10621TIP3    H253355   3.137   0.989   4.334 -0.5449 -0.2573  1.0843
10622TIP3   OH253356   4.188   4.583   1.847  0.2233  0.7773 -0.8651
10622TIP3    H153357   4.258   4.526   1.880 -0.4835 -0.0690 -0.7902
10622TIP3    H253358   4.206   4.669   1.887  2.3451  1.1259 -2.4014
10623TIP3   OH253359   1.918   4.132  13.420 -0.2472 -0.1144  0.2464
10623TIP3    H153360   1.867   4.143  13.339 -1.5119 -2.4744  0.6234
10623TIP3    H253361   1.993   4.190  13.409 -0.4798 -0.1873 -2.5271
10624TIP3   OH253362   1.746   2.648   1.523  1.0610 -0.2180 -0.3986
10624TIP3    H153363   1.699   2.635   1.441  2.4037 -1.6289 -0.9847
10624TIP3    H253364   1.775   2.740   1.520 -0.9079  0.4412 -0.3747
10625TIP3   OH253365   5.681   6.168  17.288 -0.1216  0.0037  0.0796
10625TIP3    H153366   5.689   6.194  17.196 -0.8659 -0.1579 -0.0292
10625TIP3    H253367   5.597   6.124  17.294 -0.9170  1.5837  1.2140
10626TIP3   OH253368   3.858   6.181  15.180  1.0610 -0.0181 -0.1418
10626TIP3    H153369   3.784   6.242  15.182  1.8524  0.9829 -0.8222
10626TIP3    H253370   3.858   6.141  15.267 -0.1428  0.1299 -0.0552
10627TIP3   OH253371   2.636   5.543  12.876  0.6151 -0.3099 -0.2761
10627TIP3    H153372   2.547   5.523  12.907  1.2387  0.4272  2.1275
10627TIP3    H253373   2.631   5.633  12.845  1.0748  0.6885  2.3669
10628TIP3   OH253374   2.175   5.631  14.935  0.1838  0.1789  0.1512
10628TIP3    H153375   2.233   5.692  14.890 -0.6290  1.2682  0.5266
10628TIP3    H253376   2.095   5.681  14.950 -1.4800 -1.7270 -1.7277
10629TIP3   OH253377   6.584   4.090  14.826  0.7096 -0.4975 -0.3891
10629TIP3    H153378   6.582   4.036  14.905  0.4762  0.0757  0.0044
10629TIP3    H253379   6.636   4.039  14.764  0.0375 -1.4297 -0.2218
10630TIP3   OH253380   3.272   6.703   0.839  0.1910 -0.5180 -0.2702
10630TIP3    H153381   3.366   6.702   0.820  0.3017 -1.7064  0.2236
10630TIP3    H253382   3.233   6.752   0.766  1.3154  1.2225  0.2323
10631TIP3   OH253383   6.573   5.332  16.064  0.2395  0.5287 -0.5505
10631TIP3    H153384   6.667   5.321  16.082  0.1181 -0.5276 -0.4813
10631TIP3    H253385   6.561   5.296  15.976 -0.6431 -2.6720  0.7212
10632TIP3   OH253386   4.303   0.133   0.153 -0.0513  0.3335  0.5521
10632TIP3    H153387   4.320   0.193   0.226  2.1485 -0.0313  0.4119
10632TIP3    H253388   4.367   0.158   0.086 -0.8367 -0.5067 -0.5484
10633TIP3   OH253389   4.242   2.184   3.795 -0.0525 -0.1756  0.8043
10633TIP3    H153390   4.285   2.239   3.860  1.6581 -0.0268 -0.3902
10633TIP3    H253391   4.269   2.095   3.817 -1.3656 -0.3940  1.6529
10634TIP3   OH253392   3.410   5.204   3.817  0.0066 -0.0334 -0.3216
10634TIP3    H153393   3.416   5.165   3.904  0.5233  0.2231 -0.2394
10634TIP3    H253394   3.469   5.279   3.820 -0.4512  0.3514 -0.6972
10635TIP3   OH253395   2.311   0.540  16.756 -0.4052 -0.5320  0.6191
10635TIP3    H153396   2.302   0.607  16.823  1.3868  0.1990  0.2040
10635TIP3    H253397   2.368   0.474  16.796  0.1115 -0.4239  0.0793
10636TIP3   OH253398   4.769   1.255  15.889 -0.3568  0.0288 -0.1237
10636TIP3    H153399   4.693   1.313  15.896 -0.2753  0.0021  1.3514
10636TIP3    H253400   4.735   1.168  15.911 -0.1077 -0.1736 -0.5230
10637TIP3   OH253401   1.234   2.068   2.550  0.1759  1.0147 -0.1943
10637TIP3    H153402   1.183   1.991   2.525  1.9973 -1.2199  2.4049
10637TIP3    H253403   1.267   2.102   2.467 -2.6838  0.5528 -1.6443
10638TIP3   OH253404   1.511   5.643  14.860  0.3256 -0.3347 -0.2619
10638TIP3    H153405   1.468   5.623  14.777  1.1742  0.2378 -0.8567
10638TIP3    H253406   1.558   5.562  14.883 -0.8527 -0.8837  0.2747
10639TIP3   OH253407   5.868   0.020   1.676 -0.0447 -0.1214 -0.2877
10639TIP3    H153408   5.858   0.025   1.771  1.1704  0.5675 -0.1805
10639TIP3    H253409   5.928  -0.054   1.662  0.5549  0.3900 -0.4511
10640TIP3   OH253410   5.577   2.788   5.849 -0.2659  0.3522  0.0497
10640TIP3    H153411   5.610   2.727   5.782  0.2925  1.1258 -0.3892
10640TIP3    H253412   5.638   2.861   5.848  0.3675 -0.0707  2.1571
10641TIP3   OH253413   0.052   2.069   3.980 -0.6090  0.1769 -0.6149
10641TIP3    H153414   0.059   2.159   4.013 -1.6680  0.4109 -0.9733
10641TIP3    H253415   0.065   2.014   4.057  0.4602  0.6226 -0.4616
10642TIP3   OH253416   5.711   3.034   5.891 -0.4703 -0.6256  0.1363
10642TIP3    H153417   5.626   3.077   5.900  1.0877  3.1528 -1.0293
10642TIP3    H253418   5.758   3.058   5.971  0.0985 -1.0817 -0.0557
10643TIP3   OH253419   4.177   3.846  17.407 -0.1339  0.1635 -0.8898
10643TIP3    H153420   4.115   3.863  17.477  0.0192  0.2136 -0.7664
10643TIP3    H253421   4.263   3.855  17.447 -0.0334  1.1254 -1.2907
10644TIP3   OH253422   5.915   4.767   0.351  0.3447 -0.1890 -0.2234
10644TIP3    H153423   5.897   4.861   0.355 -0.1718 -0.1598 -2.4159
10644TIP3    H253424   5.897   4.742   0.261  0.2316 -2.4651  0.3585
10645TIP3   OH253425   4.546   1.549  11.772 -0.1125  0.1620  0.5131
10645TIP3    H153426   4.635   1.522  11.794 -0.6148 -0.4675  1.8507
10645TIP3    H253427   4.520   1.490  11.702 -0.6990 -2.0292  2.4734
10646TIP3   OH253428   0.311   3.817   0.714 -0.1935 -0.0250  0.4665
10646TIP3    H153429   0.255   3.820   0.792 -2.2225 -0.6214 -0.8869
10646TIP3    H253430   0.265   3.870   0.650  2.4550  2.1424  0.1978
10647TIP3   OH253431   2.555   1.002  13.706 -0.1335 -0.2373  0.1991
10647TIP3    H153432   2.475   1.040  13.742  0.1915 -0.9340  1.7448
10647TIP3    H253433   2.591   0.950  13.778  1.6759  0.0206 -0.4720
10648TIP3   OH253434   0.309   4.419  16.065  0.4524  0.2143 -0.5181
10648TIP3    H153435   0.351   4.333  16.069 -0.2176 -0.1050  0.0776
10648TIP3    H253436   0.221   4.403  16.099  0.2016  1.0696 -0.7505
10649TIP3   OH253437   1.048   3.850  14.492 -0.2460  0.2920  0.2800
10649TIP3    H153438   1.058   3.934  14.535  0.8084 -0.3345  1.2975
10649TIP3    H253439   0.959   3.853  14.455 -1.1979  0.8959  2.4320
10650TIP3   OH253440   0.009   2.053  13.787  0.8850 -0.5061 -0.1263
10650TIP3    H153441   0.007   2.045  13.882  1.2056  3.2102  0.3504
10650TIP3    H253442   0.100   2.035  13.763  1.3320  0.6638  0.6076
10651TIP3   OH253443   2.382   5.653  15.903 -0.6941 -0.2725  0.6215
10651TIP3    H153444   2.303   5.622  15.859  0.5334 -0.1069 -1.9257
10651TIP3    H253445   2.407   5.581  15.961 -2.5613 -0.4067  1.3222
10652TIP3   OH253446   2.017   0.253   2.389  0.2584 -0.2774 -0.1230
10652TIP3    H153447   2.059   0.207   2.316  0.4943 -0.8653  0.3749
10652TIP3    H253448   2.003   0.185   2.455  1.3953  0.5001  0.9683
10653TIP3   OH253449   4.209   4.228   4.300 -0.2569 -0.0735  0.3163
10653TIP3    H153450   4.225   4.148   4.351  1.5777 -1.2828 -1.9561
10653TIP3    H253451   4.240   4.299   4.356 -0.3823 -1.1058  1.7393
10654TIP3   OH253452   1.973   3.858   3.749 -0.5188 -0.3199 -0.2561
10654TIP3    H153453   1.932   3.935   3.710 -0.4746 -0.3552 -0.3719
10654TIP3    H253454   1.966   3.873   3.843  0.3384  0.2801 -0.2784
10655TIP3   OH253455   5.893   3.123   2.332  0.1360  0.2152 -0.1449
10655TIP3    H153456   5.903   3.218   2.327 -2.0089  0.6081  1.5059
10655TIP3    H253457   5.824   3.110   2.396  1.1967 -2.5402  0.5558
10656TIP3   OH253458   1.467   4.732   2.383  0.4458  0.4912 -0.3684
10656TIP3    H153459   1.385   4.695   2.352  1.0317 -0.8047 -0.4473
10656TIP3    H253460   1.530   4.660   2.377  1.3185  1.1074  0.8019
10657TIP3   OH253461   6.558   2.020   1.896  0.0674  0.1462 -0.4841
10657TIP3    H153462   6.521   2.108   1.896  1.0518  0.6596  2.1449
10657TIP3    H253463   6.483   1.963   1.913 -0.4630  0.5073 -1.4888
10658TIP3   OH253464   0.802   4.244  14.343 -0.2748  0.0939 -0.3866
10658TIP3    H153465   0.861   4.266  14.270 -0.9457 -1.9668 -1.6462
10658TIP3    H253466   0.759   4.163  14.315  0.1936 -1.3942  2.7381
10659TIP3   OH253467   2.709   1.556   5.218  0.0128  0.4006 -0.0202
10659TIP3    H153468   2.768   1.481   5.208  1.2914  1.4427 -0.4119
10659TIP3    H253469   2.689   1.583   5.129 -2.6411 -1.0846  0.0103
10660TIP3   OH253470   1.960   2.093   5.887  0.5955 -0.3658 -0.3417
10660TIP3    H153471   1.944   2.084   5.981 -3.0841  0.7861 -0.7151
10660TIP3    H253472   2.025   2.164   5.881  0.7550 -0.3243  1.3159
10661TIP3   OH253473   3.023   6.555   5.593 -0.2045  0.0848  0.0803
10661TIP3    H153474   3.108   6.543   5.636  0.5216 -0.0925 -1.3325
10661TIP3    H253475   2.984   6.468   5.594  0.5106 -0.2694 -0.9936
10662TIP3   OH253476   5.709   3.343   6.145 -0.0178  0.5250  0.0226
10662TIP3    H153477   5.638   3.336   6.208  0.6291  1.2608  0.8419
10662TIP3    H253478   5.735   3.252   6.129  1.4187  0.3725  2.6911
10663TIP3   OH253479   1.558   0.452  15.417  0.9115  0.0188  0.0746
10663TIP3    H153480   1.530   0.461  15.509 -0.4346 -1.1344 -0.1980
10663TIP3    H253481   1.507   0.379  15.383  0.3113  1.3070 -2.0065
10664TIP3   OH253482   6.720   5.611   0.639  0.1858  0.1415  0.0166
10664TIP3    H153483   6.741   5.538   0.581  0.0102  0.1155 -0.0169
10664TIP3    H253484   6.731   5.689   0.584  1.6006  0.2311  0.4066
10665TIP3   OH253485   3.286   2.835   2.919 -0.0261 -0.9567 -0.6695
10665TIP3    H153486   3.343   2.912   2.920 -2.1299  0.8388  2.9683
10665TIP3    H253487   3.334   2.770   2.971  1.3783 -1.9455 -3.0414
10666TIP3   OH253488   3.671   3.755  12.210 -0.3838  0.1640 -0.7730
10666TIP3    H153489   3.604   3.731  12.274 -0.9265  0.7991 -1.0885
10666TIP3    H253490   3.697   3.672  12.170  1.4353 -0.5339  1.6466
10667TIP3   OH253491   0.380   1.103   5.642  0.0028  0.0795 -0.1651
10667TIP3    H153492   0.311   1.152   5.687 -0.2523  0.1303 -0.6004
10667TIP3    H253493   0.443   1.169   5.614 -2.0327  0.7358 -3.8510
10668TIP3   OH253494   5.089   3.761  13.247 -0.0805 -0.2479  0.1480
10668TIP3    H153495   5.179   3.750  13.217  0.7387 -0.2587  2.4487
10668TIP3    H253496   5.064   3.675  13.281  0.1074  0.4508  2.1563
10669TIP3   OH253497   0.528   4.076   5.023  0.4685 -0.0826 -0.0886
10669TIP3    H153498   0.565   4.095   4.936 -2.5897  0.1753 -1.4397
10669TIP3    H253499   0.535   3.981   5.032  1.3924 -0.0463 -0.2926
10670TIP3   OH253500   2.836   5.996  13.586 -0.3623  0.3741  0.4325
10670TIP3    H153501   2.826   5.906  13.557 -1.1324  0.1762  1.2535
10670TIP3    H253502   2.872   6.043  13.510 -1.4219 -0.3019 -0.5189
10671TIP3   OH253503   5.514   6.194   4.540 -0.0495  0.1512 -0.2760
10671TIP3    H153504   5.594   6.160   4.499 -0.1673  0.0641 -0.4333
10671TIP3    H253505   5.543   6.274   4.586  0.2989 -0.3523  0.3987
10672TIP3   OH253506   1.660   5.998   3.407  0.1842 -0.5457 -0.4728
10672TIP3    H153507   1.682   5.995   3.313 -1.3416 -0.6532 -0.8489
10672TIP3    H253508   1.745   5.995   3.451  1.0331  1.1457 -1.8621
10673TIP3   OH253509   3.052   1.711  14.726 -0.2390 -0.7313 -0.6108
10673TIP3    H153510   2.961   1.726  14.700 -0.5070  1.1799  1.1742
10673TIP3    H253511   3.102   1.771  14.671 -0.3296 -0.0969 -0.0210
10674TIP3   OH253512   2.771   5.946  14.152 -0.5953 -0.3640 -0.3960
10674TIP3    H153513   2.858   5.910  14.140 -1.1268 -1.6532 -0.5787
10674TIP3    H253514   2.738   5.902  14.231 -1.1420 -0.0403 -0.4395
10675TIP3   OH253515   5.078   1.794  10.804  0.1930 -0.3456  0.0593
10675TIP3    H153516   5.169   1.811  10.829  0.5747  1.4557 -2.1973
10675TIP3    H253517   5.053   1.871  10.752 -2.4285 -1.0867  0.0717
10676TIP3   OH253518   2.584   0.139  14.249 -0.5134 -0.2330  0.2447
10676TIP3    H153519   2.573   0.078  14.175  0.9665  0.6703 -0.7594
10676TIP3    H253520   2.541   0.095  14.322 -1.5830 -1.3938 -1.0216
10677TIP3   OH253521   4.331   4.827   3.181  0.0570 -0.2612  0.1358
10677TIP3    H153522   4.346   4.844   3.088  0.8735 -0.7081  0.1784
10677TIP3    H253523   4.416   4.843   3.222 -0.0682 -0.9550  0.6799
10678TIP3   OH253524   2.558   5.397   2.891  0.7019 -0.0691  0.3662
10678TIP3    H153525   2.471   5.405   2.852  1.0602 -1.7968 -0.8997
10678TIP3    H253526   2.549   5.326   2.955  0.9319  0.5143  1.0602
10679TIP3   OH253527   2.785   5.060   0.940  0.8184 -0.3294 -0.1095
10679TIP3    H153528   2.746   5.126   0.997 -0.5423  0.1439 -1.5054
10679TIP3    H253529   2.827   4.999   0.999  0.1895  0.5902  1.3485
10680TIP3   OH253530   0.610   1.526   1.140  0.0024 -0.5434 -0.9520
10680TIP3    H153531   0.685   1.534   1.199 -0.1993 -0.1602 -0.7389
10680TIP3    H253532   0.618   1.601   1.081  0.0369 -0.7583 -1.2229
10681TIP3   OH253533   4.580   2.957   5.116 -0.4361  0.3688  0.4296
10681TIP3    H153534   4.503   2.948   5.172  0.6951  1.3271  2.2528
10681TIP3    H253535   4.577   3.048   5.085 -0.5513  0.1242 -0.2786
10682TIP3   OH253536   0.426   3.074  14.424 -0.0274  0.2607  0.1872
10682TIP3    H153537   0.399   2.982  14.430  0.6125 -0.0053 -0.7946
10682TIP3    H253538   0.521   3.071  14.426 -0.0021  0.9088  0.1616
10683TIP3   OH253539   3.891   4.271   6.597 -0.6426  0.2231  0.5683
10683TIP3    H153540   3.969   4.232   6.556 -0.2271  1.0739  0.5433
10683TIP3    H253541   3.844   4.313   6.525  0.1632  1.8468  0.9431
10684TIP3   OH253542   3.076   5.418   4.487  0.0712 -0.2471 -0.3592
10684TIP3    H153543   3.098   5.324   4.490  1.0346 -0.0155  1.3047
10684TIP3    H253544   3.161   5.461   4.481 -0.1829  0.5680  1.3569
10685TIP3   OH253545   5.005   3.249  13.438 -0.3261 -0.1642  0.0159
10685TIP3    H153546   5.025   3.165  13.480  2.5825 -0.0766 -1.0099
10685TIP3    H253547   4.913   3.241  13.411 -0.0321 -3.1831 -0.3988
10686TIP3   OH253548   4.977   0.944  12.850  0.2893  0.0373 -0.3109
10686TIP3    H153549   5.063   0.946  12.893  0.3142  2.4428 -0.3385
10686TIP3    H253550   4.963   0.852  12.830  0.7465 -1.1598  3.8655
10687TIP3   OH253551   3.069   1.057   2.616 -0.0463  0.5574  0.5226
10687TIP3    H153552   3.012   1.005   2.673  0.2459  0.5735  0.8367
10687TIP3    H253553   3.034   1.146   2.624  0.5293  0.7196  1.3849
10688TIP3   OH253554   4.772   5.312  13.641  0.2515 -0.2703  0.0046
10688TIP3    H153555   4.846   5.341  13.588  0.0473 -0.8610 -0.6239
10688TIP3    H253556   4.739   5.392  13.682 -1.2482  0.7537 -2.8687
10689TIP3   OH253557   4.022   2.417  16.661 -0.5093  0.6352 -0.5344
10689TIP3    H153558   3.963   2.359  16.613 -0.4197  1.3215 -1.5117
10689TIP3    H253559   3.976   2.436  16.742 -0.5205 -0.8139 -0.1720
10690TIP3   OH253560   4.505   5.662   2.167 -0.2764 -0.0900 -0.2306
10690TIP3    H153561   4.446   5.607   2.219  1.1966 -0.8812  0.6633
10690TIP3    H253562   4.585   5.667   2.219  0.3488  1.2412 -1.2561
10691TIP3   OH253563   0.645   3.952  11.829 -0.6744  0.9116  0.8944
10691TIP3    H153564   0.697   3.934  11.751 -1.0966 -0.4714  0.9133
10691TIP3    H253565   0.706   3.994  11.889  0.0929  0.4667  0.4405
10692TIP3   OH253566   4.921   1.603   1.830 -0.8530 -0.1849  0.5413
10692TIP3    H153567   4.966   1.687   1.830  0.6756 -0.9539 -0.1491
10692TIP3    H253568   4.872   1.602   1.912 -0.9545  1.3886  0.5288
10693TIP3   OH253569   6.336   3.612   0.967  0.3361  0.0802  0.2282
10693TIP3    H153570   6.326   3.678   0.899 -0.1010  0.4436  0.6396
10693TIP3    H253571   6.427   3.583   0.959  0.7696  1.2769  0.5250
10694TIP3   OH253572   1.384   0.916  13.067  0.1713 -0.1649  0.0374
10694TIP3    H153573   1.331   0.836  13.069  0.1479 -0.1373  0.9595
10694TIP3    H253574   1.338   0.976  13.126 -0.8357  1.2115 -2.0292
10695TIP3   OH253575   0.296   4.975  16.836  0.4818 -0.1341 -0.2973
10695TIP3    H153576   0.269   4.945  16.923  1.8050 -2.2861 -0.5662
10695TIP3    H253577   0.246   4.920  16.775 -0.3620  1.2873 -0.9373
10696TIP3   OH253578   5.020   1.068   4.250  0.0236 -0.1572  0.5302
10696TIP3    H153579   5.001   1.150   4.295  0.8614 -0.4673  1.4846
10696TIP3    H253580   4.935   1.025   4.241 -0.4058  0.7431  0.1277
10697TIP3   OH253581   5.291   3.922  12.037 -0.0489 -0.2383  0.0508
10697TIP3    H153582   5.242   3.976  11.975 -1.9023 -0.0174  1.6419
10697TIP3    H253583   5.224   3.874  12.086  1.4632 -2.4455  0.1106
10698TIP3   OH253584   0.294   2.633   0.839  0.4272  0.3533 -0.3327
10698TIP3    H153585   0.243   2.709   0.812  0.1123  0.5733  0.7986
10698TIP3    H253586   0.235   2.584   0.897  0.7448 -0.5715 -0.7658
10699TIP3   OH253587   6.687   0.309  12.978  0.1717  0.2488  0.2123
10699TIP3    H153588   6.682   0.335  13.070 -0.8538 -1.0178  0.5436
10699TIP3    H253589   6.614   0.248  12.966  1.6217 -1.4103 -0.8386
10700TIP3   OH253590   5.096   3.779  11.555 -0.1322 -0.1301  0.2239
10700TIP3    H153591   5.019   3.780  11.611 -0.6285  0.1603 -0.4445
10700TIP3    H253592   5.162   3.732  11.605 -0.6934 -0.2427  0.8711
10701TIP3   OH253593   6.509   1.387  17.003  0.2192  0.9543 -0.1123
10701TIP3    H153594   6.490   1.410  16.912  1.0646 -0.2682 -0.6239
10701TIP3    H253595   6.424   1.390  17.047 -0.4835 -0.0867 -1.3364
10702TIP3   OH253596   6.026   4.025   1.900 -0.5280 -0.2432 -0.3181
10702TIP3    H153597   5.990   4.065   1.821 -1.3338  0.3089  0.3236
10702TIP3    H253598   6.106   4.074   1.918 -0.8044  0.1996 -0.2973
10703TIP3   OH253599   4.379   3.546   4.311 -0.0984  0.1855 -0.4875
10703TIP3    H153600   4.341   3.543   4.222 -1.5367 -2.1199  0.1039
10703TIP3    H253601   4.471   3.524   4.299 -0.3108 -0.2517 -1.4308
10704TIP3   OH253602   1.184   3.218   4.123 -0.3757  0.1921 -0.2990
10704TIP3    H153603   1.132   3.179   4.053  0.2280  1.2607 -1.3781
10704TIP3    H253604   1.205   3.305   4.091  3.0580 -0.5671 -0.4818
10705TIP3   OH253605   5.833   2.139   4.062 -0.1869  0.4901 -0.1092
10705TIP3    H153606   5.794   2.203   4.002 -2.3806  0.3851  1.0974
10705TIP3    H253607   5.776   2.063   4.057  1.5922 -0.8827 -0.4504
10706TIP3   OH253608   3.091   3.289   4.548 -0.1281  0.0416  0.0988
10706TIP3    H153609   3.114   3.229   4.619 -2.8928  0.6683  1.6584
10706TIP3    H253610   3.116   3.376   4.581  1.9557  0.0319 -1.2961
10707TIP3   OH253611   2.444   2.101  17.182  0.0083 -0.1297  0.1684
10707TIP3    H153612   2.524   2.134  17.222 -1.2049  2.0678  0.9614
10707TIP3    H253613   2.417   2.028  17.239  2.4011 -2.2840 -1.2494
10708TIP3   OH253614   5.247   4.644   2.168  0.0888 -0.7882  0.1779
10708TIP3    H153615   5.183   4.711   2.192  0.0993 -1.1154  1.1544
10708TIP3    H253616   5.245   4.642   2.072 -0.6156 -0.0762  0.1699
10709TIP3   OH253617   2.413   5.214  17.403 -0.1225 -0.4147 -0.1083
10709TIP3    H153618   2.379   5.125  17.414  2.6129 -1.5807 -0.2272
10709TIP3    H253619   2.394   5.257  17.487  0.2349 -1.7769  0.7115
10710TIP3   OH253620   1.013   4.403  15.715 -0.7126 -0.7244 -0.1903
10710TIP3    H153621   0.979   4.316  15.695  1.5044 -1.4508 -1.0712
10710TIP3    H253622   0.942   4.463  15.690 -1.7617 -2.1751 -0.8489
10711TIP3   OH253623   3.384   0.372   2.223 -0.0179  0.3827 -0.1651
10711TIP3    H153624   3.421   0.442   2.277 -3.0059  1.4823  0.6485
10711TIP3    H253625   3.352   0.417   2.145  0.0231 -0.4744 -0.6808
10712TIP3   OH253626   5.178   0.047   3.183  0.0239 -0.3534  0.3681
10712TIP3    H153627   5.094   0.091   3.198  0.6734  0.2451  2.6590
10712TIP3    H253628   5.162  -0.043   3.211  0.0805 -0.2893  0.6107
10713TIP3   OH253629   0.150   0.316   2.481  1.0264  0.3488  0.6317
10713TIP3    H153630   0.186   0.348   2.563  0.0163  1.0082  0.8385
10713TIP3    H253631   0.147   0.221   2.491  2.4076  0.2911  0.7046
10714TIP3   OH253632   3.967   3.367  17.156 -0.1561  0.3834 -0.1578
10714TIP3    H153633   3.974   3.428  17.229 -1.4416 -1.4051  1.5714
10714TIP3    H253634   3.873   3.351  17.148 -0.1199  1.0334 -2.7064
10715TIP3   OH253635   4.441   6.497   1.464  0.6560  0.5526  0.1027
10715TIP3    H153636   4.351   6.526   1.480  0.9781  1.1557  0.9063
10715TIP3    H253637   4.432   6.411   1.423 -0.2999 -0.6222  2.5692
10716TIP3   OH253638   5.821   3.249  12.297 -0.4091 -0.1649  0.4530
10716TIP3    H153639   5.797   3.324  12.351  1.8046  2.1132 -1.4790
10716TIP3    H253640   5.851   3.183  12.360  0.5303  1.7464  2.1252
10717TIP3   OH253641   6.256   3.556   4.255 -0.3319 -0.1611  0.2483
10717TIP3    H153642   6.277   3.606   4.334  0.3072 -1.0674  0.6777
10717TIP3    H253643   6.170   3.518   4.274  0.0700 -0.8514  0.7832
10718TIP3   OH253644   2.315   2.829   4.693  0.0294 -0.0151 -0.4910
10718TIP3    H153645   2.242   2.882   4.726  1.1530  0.7817  0.8034
10718TIP3    H253646   2.355   2.792   4.771 -0.8175 -3.0058 -1.3465
10719TIP3   OH253647   5.487   2.809  15.459 -0.0350  0.2742 -0.4211
10719TIP3    H153648   5.464   2.862  15.535 -0.7407 -0.2523 -0.2560
10719TIP3    H253649   5.427   2.837  15.391 -1.6481 -1.5219  0.1832
10720TIP3   OH253650   0.789   5.481   5.272  0.3431  0.2342 -0.1006
10720TIP3    H153651   0.820   5.523   5.191 -1.3737  1.9801  0.0839
10720TIP3    H253652   0.776   5.554   5.333  2.4046 -1.1205  2.0911
10721TIP3   OH253653   1.357   1.504   1.416 -0.0927  0.7202 -0.0167
10721TIP3    H153654   1.404   1.437   1.368 -0.7375  0.5714 -0.4572
10721TIP3    H253655   1.425   1.557   1.457  0.4164 -0.6836  1.0316
10722TIP3   OH253656   4.712   1.279   2.884 -0.2909 -0.1624 -0.1584
10722TIP3    H153657   4.774   1.333   2.932  0.0413 -0.1102 -0.6420
10722TIP3    H253658   4.753   1.265   2.799 -0.8821 -0.2377 -0.4344
10723TIP3   OH253659   1.055   3.636   1.019  0.5710 -0.1893 -0.0074
10723TIP3    H153660   0.969   3.625   0.980  1.2062 -2.1419 -0.9556
10723TIP3    H253661   1.098   3.702   0.965  0.4398 -0.8109 -0.8740
10724TIP3   OH253662   4.953   4.053  16.485  0.2282  0.4558 -0.1058
10724TIP3    H153663   4.890   4.115  16.524 -1.4843 -1.5056  0.4476
10724TIP3    H253664   4.973   4.091  16.399 -1.1699  1.5183 -0.0130
10725TIP3   OH253665   5.915   5.026   5.515 -0.1386  0.1241 -0.2836
10725TIP3    H153666   5.821   5.034   5.502 -0.2696 -0.8840 -0.0380
10725TIP3    H253667   5.928   4.935   5.541  0.6194  0.8105  1.9675
10726TIP3   OH253668   2.922   4.872   5.472 -0.1202  0.4877 -0.4499
10726TIP3    H153669   2.837   4.828   5.467  0.2855 -0.2835 -0.8961
10726TIP3    H253670   2.905   4.954   5.518 -1.3358  0.9106 -1.5916
10727TIP3   OH253671   4.615   2.174   1.708 -0.2215  0.1095  0.1899
10727TIP3    H153672   4.708   2.151   1.720  0.3981  1.0456 -2.3001
10727TIP3    H253673   4.608   2.199   1.616 -3.1210 -0.5297  0.1608
10728TIP3   OH253674   4.558   2.597   2.091 -0.0873  0.5021 -0.0886
10728TIP3    H153675   4.490   2.543   2.130  0.7933 -1.4374 -1.1233
10728TIP3    H253676   4.595   2.646   2.164 -0.2874 -1.0027  1.0656
10729TIP3   OH253677   4.545   4.016   5.865 -0.6471  0.0285 -0.0838
10729TIP3    H153678   4.511   3.986   5.950 -1.3898 -0.9491 -0.7019
10729TIP3    H253679   4.531   3.941   5.806  0.0423  0.6222 -1.0244
10730TIP3   OH253680   2.597   3.395   5.320  0.5895  0.3572  0.1528
10730TIP3    H153681   2.571   3.453   5.393  0.1440  2.5451 -1.6205
10730TIP3    H253682   2.639   3.320   5.363  0.2637  1.4884  2.6588
10731TIP3   OH253683   0.395   2.357   1.132  0.0399  0.0510  0.4931
10731TIP3    H153684   0.424   2.285   1.076  0.2058  0.1909  0.4011
10731TIP3    H253685   0.472   2.380   1.183 -0.5145 -1.1950  1.9997
10732TIP3   OH253686   5.882   4.881  12.772  0.7568 -0.0069 -0.5612
10732TIP3    H153687   5.975   4.860  12.767  0.7709  0.1690 -1.2559
10732TIP3    H253688   5.872   4.956  12.712  0.4397  0.9702  0.6720
10733TIP3   OH253689   1.617   2.144   0.140  1.0264 -0.5396  0.3284
10733TIP3    H153690   1.599   2.208   0.209 -2.1179 -0.5519 -0.3483
10733TIP3    H253691   1.531   2.118   0.108  2.2727 -3.2908 -1.1348
10734TIP3   OH253692   5.754   0.656  12.984 -0.0162  0.3614 -0.3526
10734TIP3    H153693   5.742   0.679  12.892  0.5886  2.2467  0.0027
10734TIP3    H253694   5.693   0.584  12.999 -2.3036  1.9733 -1.4757
10735TIP3   OH253695   6.274   5.632   5.846  0.4325 -0.0289 -0.2910
10735TIP3    H153696   6.321   5.549   5.845 -0.1066 -0.3497  0.1695
10735TIP3    H253697   6.219   5.628   5.924  0.6679  0.9166 -0.0658
10736TIP3   OH253698   3.016   4.549  14.171  0.0533 -0.2658 -0.0646
10736TIP3    H153699   2.981   4.592  14.249 -1.1130  1.6164 -1.5434
10736TIP3    H253700   3.075   4.483  14.205  0.6183  1.3713  2.4060
10737TIP3   OH253701   0.104   6.687   4.847 -0.1554  0.6190  0.2367
10737TIP3    H153702   0.134   6.692   4.756 -2.0109  0.8256 -0.4026
10737TIP3    H253703   0.100   6.778   4.875 -1.7295  0.7283 -0.2513
10738TIP3   OH253704   2.915   6.047  16.672 -0.6564  0.1786 -0.0304
10738TIP3    H153705   2.987   6.083  16.620 -0.8926 -2.3462 -2.3455
10738TIP3    H253706   2.836   6.083  16.631 -0.8214 -1.4225 -1.2426
10739TIP3   OH253707   3.573   2.694   4.329 -0.5647  0.4579 -0.2026
10739TIP3    H153708   3.560   2.629   4.259 -0.7034  1.0748 -0.7579
10739TIP3    H253709   3.539   2.652   4.407  0.4477 -0.6189 -0.3161
10740TIP3   OH253710   3.441   3.566  10.948 -0.2774  0.1355  0.2485
10740TIP3    H153711   3.441   3.521  10.864  1.2611 -1.5128  1.0667
10740TIP3    H253712   3.513   3.526  10.997 -1.3612  0.7818  2.5026
10741TIP3   OH253713   0.638   6.169  17.161  0.0038 -0.1362  0.6005
10741TIP3    H153714   0.606   6.086  17.196  1.1917 -0.3641  1.1685
10741TIP3    H253715   0.690   6.207  17.231  1.0223  0.1989 -0.3058
10742TIP3   OH253716   5.939   0.013  11.129 -0.1744 -0.2686  0.3981
10742TIP3    H153717   5.967   0.066  11.204  0.3232  1.3398 -0.8685
10742TIP3    H253718   5.866  -0.039  11.163 -0.0251  0.4777  1.9652
10743TIP3   OH253719   3.471   3.320  12.741 -0.1098  0.7988 -0.3882
10743TIP3    H153720   3.463   3.277  12.656  1.7142 -1.3063  0.4313
10743TIP3    H253721   3.390   3.298  12.787 -1.7821  3.1389 -1.9716
10744TIP3   OH253722   4.153   2.734  13.703 -0.0358 -0.2371 -0.3330
10744TIP3    H153723   4.093   2.701  13.635 -1.1243  0.9990 -0.0263
10744TIP3    H253724   4.159   2.663  13.766  0.9043 -1.3647 -1.6559
10745TIP3   OH253725   3.154   1.233  16.974  0.4959  0.3696 -0.6081
10745TIP3    H153726   3.174   1.310  17.028 -1.5595 -0.0619  0.9234
10745TIP3    H253727   3.080   1.261  16.920 -0.9980 -0.7740  0.7488
10746TIP3   OH253728   2.336   6.364  16.680 -0.4000 -0.3553 -0.3977
10746TIP3    H153729   2.349   6.438  16.739  2.0404 -0.9665 -0.0285
10746TIP3    H253730   2.245   6.338  16.692 -0.6371  1.0788  1.2556
10747TIP3   OH253731   3.289   3.604  12.004 -0.2692 -0.3533  0.0953
10747TIP3    H153732   3.336   3.538  12.056  0.7342 -0.2494 -0.6517
10747TIP3    H253733   3.358   3.656  11.963 -1.0277 -0.5771 -1.5333
10748TIP3   OH253734   6.675   3.000   0.822  0.9002  0.0358 -0.1013
10748TIP3    H153735   6.714   2.922   0.863  2.6765  0.5851 -0.6812
10748TIP3    H253736   6.624   2.965   0.749  2.0450 -0.5777 -0.6285
10749TIP3   OH253737   1.509   3.932   1.690  0.4725 -0.4248  0.1013
10749TIP3    H153738   1.433   3.947   1.747  0.4464 -1.1820  0.2734
10749TIP3    H253739   1.526   4.017   1.650 -1.2369 -0.4990 -0.8947
10750TIP3   OH253740   5.853   2.207   4.341 -0.2525  0.4854 -0.2834
10750TIP3    H153741   5.936   2.158   4.340 -1.7190 -2.1983 -1.0613
10750TIP3    H253742   5.816   2.192   4.254 -0.7108  3.3139 -0.6606
10751TIP3   OH253743   3.556   4.295   0.354  0.5656 -0.0661  0.1993
10751TIP3    H153744   3.637   4.344   0.339  0.1005  0.4657 -0.6205
10751TIP3    H253745   3.489   4.341   0.304 -0.3425 -0.2810  1.1609
10752TIP3   OH253746   2.316   6.463  13.300  0.1807 -0.0046  0.4858
10752TIP3    H153747   2.317   6.505  13.214  0.8523 -0.8238  0.0782
10752TIP3    H253748   2.256   6.516  13.352 -1.3901 -0.3091 -0.9155
10753TIP3   OH253749   4.299   1.096  13.830  0.0210  0.2939  0.0273
10753TIP3    H153750   4.389   1.103  13.862 -0.5473 -0.9238  2.1069
10753TIP3    H253751   4.247   1.140  13.897 -1.0040  0.4125 -0.8233
10754TIP3   OH253752   0.130   0.872   4.288 -0.2004 -0.9938 -0.0617
10754TIP3    H153753   0.059   0.845   4.229 -0.5604 -0.4790  0.1238
10754TIP3    H253754   0.123   0.813   4.363  1.6018 -3.0894 -1.4232
10755TIP3   OH253755   0.659   2.947  12.323 -0.3673 -0.1147 -0.7531
10755TIP3    H153756   0.659   3.042  12.308  0.3173  0.1556  0.7779
10755TIP3    H253757   0.735   2.916  12.273 -0.6297  0.1299 -1.3124
10756TIP3   OH253758   0.650   1.912   3.511  0.4381  0.3067 -0.6716
10756TIP3    H153759   0.602   1.834   3.538  0.6901  1.0967  2.4452
10756TIP3    H253760   0.726   1.879   3.464 -0.3145 -1.2102 -0.8978
10757TIP3   OH253761   3.648   3.980  16.383  0.1298 -0.6294 -0.1038
10757TIP3    H153762   3.594   4.036  16.440 -0.2687 -1.5600  0.4683
10757TIP3    H253763   3.615   3.998  16.295 -0.3485 -0.3439  0.1242
10758TIP3   OH253764   3.010   6.618   5.011  0.2577  0.2163  0.8248
10758TIP3    H153765   2.988   6.628   5.103 -0.2469  0.9119  0.6345
10758TIP3    H253766   3.015   6.523   4.997 -1.9784  0.0212  1.0356
10759TIP3   OH253767   1.292   2.406  16.554  0.0040 -0.1393  0.1030
10759TIP3    H153768   1.229   2.476  16.540 -1.6184 -1.4066  0.7490
10759TIP3    H253769   1.286   2.387  16.648  0.5638 -1.0062 -0.0220
10760TIP3   OH253770   1.312   4.720  14.826  1.0708  0.0386 -0.6065
10760TIP3    H153771   1.320   4.714  14.921 -2.1349 -1.8030 -0.2703
10760TIP3    H253772   1.218   4.733  14.811  1.6277  1.6516 -3.5365
10761TIP3   OH253773   5.753   5.243  15.636  0.1345  0.1765  0.0441
10761TIP3    H153774   5.802   5.165  15.609  1.9115  1.2968 -0.1206
10761TIP3    H253775   5.812   5.289  15.695 -1.4104  0.7481  1.2074
10762TIP3   OH253776   6.699   6.600  12.871  0.7379 -0.3662  0.6308
10762TIP3    H153777   6.731   6.525  12.821  0.5152 -0.3297  0.4351
10762TIP3    H253778   6.766   6.667  12.858 -0.0187  0.1513 -0.8313
10763TIP3   OH253779   4.996   5.043   1.583 -0.2105 -0.8572 -0.6266
10763TIP3    H153780   4.990   5.130   1.545  1.2468  0.8704  2.7471
10763TIP3    H253781   4.916   5.032   1.633 -0.0915 -1.2017 -0.5028
10764TIP3   OH253782   3.499   1.910  12.996  0.8071  0.0094  0.1221
10764TIP3    H153783   3.593   1.921  13.007  0.8894 -1.2054  0.8348
10764TIP3    H253784   3.476   1.841  13.058 -0.6094  0.4975  0.1728
10765TIP3   OH253785   4.721   6.592   4.250 -0.1492 -0.3898  0.1482
10765TIP3    H153786   4.655   6.622   4.312  0.7591  1.7975  0.1811
10765TIP3    H253787   4.765   6.519   4.293 -1.0271 -0.3797  1.0845
10766TIP3   OH253788   5.649   0.583   2.901 -0.1856  0.3423  0.3464
10766TIP3    H153789   5.593   0.534   2.961 -1.1860  1.3737  0.2930
10766TIP3    H253790   5.694   0.646   2.957  2.1662 -1.4303  0.6442
10767TIP3   OH253791   3.848   3.736  11.421 -0.3939 -0.4690 -0.0503
10767TIP3    H153792   3.905   3.658  11.419 -0.1221 -0.3009  0.7543
10767TIP3    H253793   3.829   3.754  11.329  1.3464 -0.1855 -0.3848
10768TIP3   OH253794   0.734   4.030  14.903 -0.3266  0.6897 -0.4811
10768TIP3    H153795   0.757   4.010  14.994  0.2325  1.7332 -0.3693
10768TIP3    H253796   0.712   3.945  14.865 -2.1990  0.4157  1.0489
10769TIP3   OH253797   0.562   2.352  12.808 -0.2676 -0.2684  0.1643
10769TIP3    H153798   0.616   2.420  12.848 -1.3958  1.7423 -1.5868
10769TIP3    H253799   0.615   2.319  12.736 -0.4570  0.0476 -0.1172
10770TIP3   OH253800   1.736   5.734   0.708  0.0831 -0.2424  0.4397
10770TIP3    H153801   1.804   5.770   0.764 -0.4166  2.3003 -0.4692
10770TIP3    H253802   1.654   5.765   0.746 -0.3570 -0.0875 -0.6140
10771TIP3   OH253803   6.413   3.230  12.492 -0.3510  0.1524  0.2857
10771TIP3    H153804   6.367   3.307  12.460  0.3029  0.5224  0.2109
10771TIP3    H253805   6.357   3.194  12.561 -1.0131  0.2612 -0.1945
10772TIP3   OH253806   0.542   5.482  11.720 -0.7108 -0.4120 -0.1770
10772TIP3    H153807   0.527   5.507  11.629  1.6700  1.9053 -0.0537
10772TIP3    H253808   0.600   5.406  11.715 -1.8544 -1.2992 -0.5339
10773TIP3   OH253809   1.805   6.386  15.242 -0.3999  0.7337 -0.3292
10773TIP3    H153810   1.738   6.335  15.289  2.2907 -3.6195 -0.7473
10773TIP3    H253811   1.872   6.403  15.308  1.0729 -0.9525 -1.3093
10774TIP3   OH253812   2.876   2.013   0.534  0.2381 -0.3839 -0.3586
10774TIP3    H153813   2.875   1.922   0.562 -1.6571 -0.0720  0.7123
10774TIP3    H253814   2.890   2.063   0.614  1.1238  0.2974 -0.9125
10775TIP3   OH253815   2.794   0.142   4.553  0.0113  0.2670  0.1391
10775TIP3    H153816   2.811   0.094   4.472  0.5406 -1.2520  1.0956
10775TIP3    H253817   2.880   0.153   4.593 -0.2987  0.5389  0.7483
10776TIP3   OH253818   3.537   1.088  13.910 -0.2574 -0.2028  0.3062
10776TIP3    H153819   3.610   1.080  13.849 -0.6995  1.4136 -0.4834
10776TIP3    H253820   3.553   1.169  13.956 -1.5822  0.2259  0.0585
10777TIP3   OH253821   1.714   3.743   4.254 -0.2068 -0.3751 -0.5021
10777TIP3    H153822   1.649   3.813   4.266  0.4625  0.3206 -0.8552
10777TIP3    H253823   1.773   3.776   4.186  0.7067 -0.8647  0.0343
10778TIP3   OH253824   2.988   1.596  15.150  0.0725 -0.4841  0.3891
10778TIP3    H153825   3.002   1.526  15.214  0.8689 -0.3663  0.3421
10778TIP3    H253826   3.056   1.583  15.084  1.2110  1.2311  1.1489
10779TIP3   OH253827   3.460   1.902  13.755 -0.1192 -0.3369  0.3729
10779TIP3    H153828   3.524   1.836  13.781  1.1798  0.4919 -0.5792
10779TIP3    H253829   3.509   1.984  13.753 -0.0950 -0.2015 -4.0033
10780TIP3   OH253830   1.249   0.472   3.501 -0.5077  0.6752 -0.2767
10780TIP3    H153831   1.174   0.426   3.463 -2.8629  2.0643  2.2689
10780TIP3    H253832   1.210   0.529   3.568  2.6882  2.7962  0.0023
10781TIP3   OH253833   4.023   0.367  12.851  0.7032 -0.3945  0.1696
10781TIP3    H153834   4.024   0.382  12.945  1.8340 -0.0169  0.1064
10781TIP3    H253835   4.102   0.317  12.834  1.7223  1.4881 -0.8806
10782TIP3   OH253836   6.252   5.091   5.552  0.3068 -0.0724  0.8880
10782TIP3    H153837   6.208   5.080   5.636  1.7765 -0.9534  1.5889
10782TIP3    H253838   6.255   5.004   5.514  1.4984 -0.0657  0.9126
10783TIP3   OH253839   6.651   5.241   5.710 -0.9518 -0.0314  0.2761
10783TIP3    H153840   6.686   5.189   5.638 -0.7585  0.5721 -0.0818
10783TIP3    H253841   6.594   5.182   5.758  0.6789 -1.0994  0.9770
10784TIP3   OH253842   0.845   5.563  12.346 -0.3216  0.6600 -0.0508
10784TIP3    H153843   0.883   5.597  12.265 -0.1771 -1.3324 -0.8993
10784TIP3    H253844   0.859   5.468  12.341 -1.8022  0.2937  1.5243
10785TIP3   OH253845   4.098   6.674   6.837  0.4338 -0.1321  0.1373
10785TIP3    H153846   4.158   6.655   6.765  0.0314 -0.5797 -0.0914
10785TIP3    H253847   4.022   6.618   6.820 -0.4536  1.0763 -0.0932
10786TIP3   OH253848   1.130   4.149   3.772 -0.0064  0.1875  0.6774
10786TIP3    H153849   1.076   4.123   3.847 -1.5286 -0.0228 -0.4481
10786TIP3    H253850   1.113   4.243   3.761 -0.1590  0.1181  0.3041
10787TIP3   OH253851   1.222   2.709  17.494 -0.4248  0.0774  0.0778
10787TIP3    H153852   1.201   2.630  17.544 -0.4973  0.1055  0.0920
10787TIP3    H253853   1.303   2.742  17.533 -0.6847  0.3108  0.4223
10788TIP3   OH253854   5.977   4.461   1.911  0.0525  0.0894  0.1928
10788TIP3    H153855   5.923   4.424   1.980  1.1119 -1.0615  0.4374
10788TIP3    H253856   6.066   4.433   1.932  0.7721  1.8630 -0.2353
10789TIP3   OH253857   6.487   5.772   5.425 -0.4373  0.7103  0.3877
10789TIP3    H153858   6.578   5.742   5.437 -0.0952  0.4287 -2.2763
10789TIP3    H253859   6.487   5.862   5.459  0.6859  0.5469  0.8828
10790TIP3   OH253860   1.501   1.605  13.627  0.2306 -0.1062 -0.1205
10790TIP3    H153861   1.596   1.590  13.621  0.2603 -0.1291  0.3273
10790TIP3    H253862   1.479   1.576  13.716 -0.1581  0.1192 -0.1451
10791TIP3   OH253863   1.844   4.069   3.621  0.1125 -0.2256 -0.3001
10791TIP3    H153864   1.843   4.157   3.659  0.1018  0.2475 -1.3791
10791TIP3    H253865   1.777   4.071   3.553 -0.8169 -1.4789  0.5342
10792TIP3   OH253866   1.622   3.760   5.197 -0.1501  0.1216  0.5134
10792TIP3    H153867   1.629   3.736   5.105  1.5792  1.2358  0.3057
10792TIP3    H253868   1.708   3.796   5.219 -0.6546  0.2547  2.4594
10793TIP3   OH253869   0.607   4.356  14.510  0.4693 -0.2041 -0.3674
10793TIP3    H153870   0.646   4.316  14.431  1.1235 -2.1000  0.8439
10793TIP3    H253871   0.658   4.320  14.582 -0.2421  1.3524  0.9537
10794TIP3   OH253872   1.011   6.062   2.148  0.3265 -0.2868  0.1063
10794TIP3    H153873   1.039   6.106   2.068 -0.6850  0.2000  0.0027
10794TIP3    H253874   1.038   5.971   2.136 -0.0843 -0.2838 -0.9286
10795TIP3   OH253875   4.821   1.101  16.604 -0.7639 -0.2264  0.1715
10795TIP3    H153876   4.875   1.181  16.603  0.0615 -0.7645 -1.2819
10795TIP3    H253877   4.865   1.044  16.668 -2.3562  1.0702  2.5708
10796TIP3   OH253878   4.266   6.682   6.605  0.6125 -0.1224  0.0895
10796TIP3    H153879   4.329   6.707   6.537  0.9925  0.2656  0.5729
10796TIP3    H253880   4.278   6.588   6.615 -0.1711 -0.3755 -1.0933
10797TIP3   OH253881   3.065   4.721  17.148  0.2590  0.1897 -0.2903
10797TIP3    H153882   3.069   4.629  17.172 -2.0694  0.1051  0.0101
10797TIP3    H253883   3.139   4.761  17.194 -0.8540 -0.9032  2.6881
10798TIP3   OH253884   5.065   1.114  13.899  0.3705 -0.0178 -0.3138
10798TIP3    H153885   5.071   1.177  13.971  1.0888  0.5896 -0.8845
10798TIP3    H253886   5.074   1.028  13.942 -2.0372  0.1295  0.6481
10799TIP3   OH253887   6.332   4.658   1.958 -0.4010 -0.0096  0.2311
10799TIP3    H153888   6.250   4.704   1.972  0.1822  1.2144 -0.2520
10799TIP3    H253889   6.368   4.696   1.877  0.3863 -0.8961  0.1365
10800TIP3   OH253890   2.578   2.972  15.769 -0.7317 -0.0218 -0.0730
10800TIP3    H153891   2.616   3.059  15.778 -0.6276  0.1500 -1.8119
10800TIP3    H253892   2.485   2.987  15.756 -0.6780 -0.1319 -0.6346
10801TIP3   OH253893   3.433   1.334  11.859  0.4685  0.1764 -0.0037
10801TIP3    H153894   3.397   1.249  11.837 -1.3162  0.8915 -0.0470
10801TIP3    H253895   3.366   1.397  11.831  1.6284  1.5821  0.2224
10802TIP3   OH253896   0.466   5.835   3.058  0.3089 -0.5581  0.1440
10802TIP3    H153897   0.503   5.923   3.061  0.4788 -0.6345  0.2878
10802TIP3    H253898   0.443   5.822   2.966 -0.3744 -0.0909  0.2430
10803TIP3   OH253899   0.875   0.162   1.206  0.1876 -0.1728  0.1445
10803TIP3    H153900   0.947   0.115   1.164 -0.5453  0.1689 -1.5757
10803TIP3    H253901   0.807   0.096   1.220  0.2315 -0.1811  0.3236
10804TIP3   OH253902   4.510   0.787   6.765 -0.0041 -0.7922 -0.1466
10804TIP3    H153903   4.445   0.724   6.796 -0.4192 -1.4350 -2.1345
10804TIP3    H253904   4.581   0.734   6.730  1.3779 -0.0936  1.4576
10805TIP3   OH253905   3.955   6.521   3.924 -0.5219  0.2145 -0.1254
10805TIP3    H153906   4.018   6.541   3.855 -0.0813  0.1292  0.2433
10805TIP3    H253907   3.878   6.575   3.904  0.2038  1.4058  0.2031
10806TIP3   OH253908   0.430   0.114  11.428 -0.5794 -0.4922  0.0206
10806TIP3    H153909   0.427   0.200  11.384 -0.7013 -0.4869  0.0392
10806TIP3    H253910   0.523   0.093  11.432 -0.5805 -0.6014 -0.4540
10807TIP3   OH253911   0.151   3.850   1.205  0.2268  0.1141  0.3009
10807TIP3    H153912   0.105   3.767   1.219  1.5384 -0.4840  1.3052
10807TIP3    H253913   0.168   3.883   1.293 -0.5243  1.6273 -0.0889
10808TIP3   OH253914   0.085   3.666   2.786  0.4107 -0.5988  0.3978
10808TIP3    H153915   0.047   3.653   2.699  0.0176  2.9300 -0.1064
10808TIP3    H253916   0.010   3.662   2.845  0.1890  0.1033  0.1727
10809TIP3   OH253917   6.429   1.332   1.451  0.0566  0.0405 -0.1467
10809TIP3    H153918   6.512   1.379   1.464  0.6707 -1.2393  0.7488
10809TIP3    H253919   6.387   1.379   1.380  0.5596  2.0652  0.7924
10810TIP3   OH253920   0.069   5.813  13.716 -0.0939  0.8158  0.2970
10810TIP3    H153921   0.108   5.746  13.772 -0.5625  1.3514  1.2905
10810TIP3    H253922   0.125   5.815  13.638 -0.3088 -1.0114  0.0560
10811TIP3   OH253923   5.339   0.109   1.047  0.0635  0.6446  0.0041
10811TIP3    H153924   5.375   0.186   1.003  1.0400 -0.5652 -1.4264
10811TIP3    H253925   5.252   0.099   1.010 -0.6133  1.7883  1.1872
10812TIP3   OH253926   5.513   4.520   3.742  0.2182  0.0399  0.2494
10812TIP3    H153927   5.444   4.518   3.809  0.0730 -1.4903  0.0936
10812TIP3    H253928   5.594   4.505   3.791  0.1649 -0.6071  0.1396
10813TIP3   OH253929   4.172   5.123   0.795  0.2129  0.4437  0.3980
10813TIP3    H153930   4.143   5.143   0.884  2.1878  0.7673  1.0175
10813TIP3    H253931   4.126   5.042   0.773  0.3452 -0.1366  2.0701
10814TIP3   OH253932   1.693   6.192  17.503  0.2021  0.0277  0.2259
10814TIP3    H153933   1.618   6.250  17.493  2.0191  2.5100 -0.1291
10814TIP3    H253934   1.689   6.163  17.594 -1.8613 -0.9733 -0.1430
10815TIP3   OH253935   1.433   4.802   3.726 -0.1232 -0.2937 -0.2930
10815TIP3    H153936   1.439   4.749   3.647 -0.6106 -0.4770 -0.2070
10815TIP3    H253937   1.397   4.743   3.792 -1.2589  0.3183 -0.3510
10816TIP3   OH253938   0.003   6.339   4.747  0.3109 -0.3735  0.5224
10816TIP3    H153939  -0.052   6.416   4.734  0.6822  0.0652  1.5058
10816TIP3    H253940   0.079   6.354   4.690  0.3281 -0.0676  0.6248
10817TIP3   OH253941   6.479   5.999   2.152  0.2220  0.2862 -0.0998
10817TIP3    H153942   6.509   6.076   2.103  1.1039  1.8049  2.6340
10817TIP3    H253943   6.424   6.035   2.222  1.8593 -1.3405  2.1533
10818TIP3   OH253944   4.757   2.242   3.566 -0.2040  0.3629 -0.7379
10818TIP3    H153945   4.797   2.156   3.576 -1.2274  0.1481  2.6573
10818TIP3    H253946   4.675   2.226   3.520 -0.8937 -0.6955  0.7932
10819TIP3   OH253947   5.997   0.146  14.584  0.5130  0.3809 -0.4952
10819TIP3    H153948   5.903   0.133  14.589  0.6696 -0.4329  0.6943
10819TIP3    H253949   6.013   0.231  14.625  0.2652  0.7232 -1.0972
10820TIP3   OH253950   1.907   3.169   5.917 -0.2300 -0.4048  0.0899
10820TIP3    H153951   1.825   3.121   5.904 -1.1996  1.3496 -0.5709
10820TIP3    H253952   1.970   3.101   5.944 -2.0486 -1.6708  1.4074
10821TIP3   OH253953   1.682   3.607   2.981  0.1454  0.1349 -0.1510
10821TIP3    H153954   1.742   3.679   3.000  0.7645 -0.2618 -0.5596
10821TIP3    H253955   1.621   3.607   3.055  0.5669  0.6308  0.2108
10822TIP3   OH253956   6.067   4.823  12.103 -0.4906  0.2288 -0.3620
10822TIP3    H153957   6.015   4.902  12.097 -2.2399 -0.7577  0.9625
10822TIP3    H253958   6.157   4.854  12.116 -0.7874  1.9657 -2.0630
10823TIP3   OH253959   1.026   0.316   0.697 -0.0617  0.0144 -0.1421
10823TIP3    H153960   1.030   0.411   0.706  0.3965 -0.0364  0.2315
10823TIP3    H253961   0.999   0.285   0.783 -0.7653 -0.1652 -0.4188
10824TIP3   OH253962   1.061   1.650   4.837 -0.1348  0.0264  0.2741
10824TIP3    H153963   1.007   1.627   4.762 -0.4919  1.3715  0.1015
10824TIP3    H253964   1.052   1.575   4.896 -1.0654 -0.3832 -0.3543
10825TIP3   OH253965   5.830   1.450  12.723  0.7146  0.4153 -0.1656
10825TIP3    H153966   5.853   1.509  12.795  0.4183 -0.1812  0.4330
10825TIP3    H253967   5.850   1.363  12.756  1.1484  0.1718 -1.0461
10826TIP3   OH253968   2.578   3.724   2.093 -0.0057 -0.0692 -0.2861
10826TIP3    H153969   2.642   3.780   2.139 -0.6334 -0.5416  1.2300
10826TIP3    H253970   2.606   3.635   2.114 -1.2658 -0.2826  0.5928
10827TIP3   OH253971   1.884   4.666   4.838 -0.7725 -0.5161 -0.2329
10827TIP3    H153972   1.834   4.622   4.907  0.1854 -0.0980  0.7763
10827TIP3    H253973   1.968   4.687   4.880 -0.0071 -0.6067 -1.6679
10828TIP3   OH253974   2.919   5.457   4.706 -0.9290 -0.1482 -0.1691
10828TIP3    H153975   2.833   5.437   4.669 -0.9008  0.9208 -0.8554
10828TIP3    H253976   2.979   5.448   4.633 -0.3037 -1.7288  0.4959
10829TIP3   OH253977   5.812   4.789   5.799 -0.0066  0.1887 -0.4439
10829TIP3    H153978   5.842   4.857   5.859  1.1249  0.7118 -1.5761
10829TIP3    H253979   5.733   4.826   5.759  1.0586  1.2160 -1.6648
10830TIP3   OH253980   0.283   1.088  14.108 -0.1216 -0.1610  0.0328
10830TIP3    H153981   0.312   1.179  14.097 -1.8207  0.3655 -0.4185
10830TIP3    H253982   0.324   1.059  14.190  1.1252  0.7200 -0.2563
10831TIP3   OH253983   5.494   6.630   2.233  0.2892  0.1540 -0.4973
10831TIP3    H153984   5.435   6.701   2.258  1.3998  1.1601 -0.6361
10831TIP3    H253985   5.472   6.612   2.142 -0.4541 -0.1427 -0.2614
10832TIP3   OH253986   3.396   3.776   2.450  0.0154  0.1863  0.0401
10832TIP3    H153987   3.444   3.843   2.499  1.0021 -0.7944  0.4390
10832TIP3    H253988   3.456   3.701   2.446 -0.8846 -0.5137 -0.8107
10833TIP3   OH253989   5.783   4.554   3.852 -0.5373  0.1152  0.0163
10833TIP3    H153990   5.820   4.616   3.789  0.8935 -2.2731 -1.6084
10833TIP3    H253991   5.814   4.586   3.937  1.6097  0.6821 -0.9205
10834TIP3   OH253992   1.984   0.334   3.600 -0.5002  0.0092 -0.1839
10834TIP3    H153993   1.980   0.240   3.613 -2.1732 -0.0067 -0.4983
10834TIP3    H253994   2.038   0.366   3.672  0.8043 -1.2474 -0.5637
10835TIP3   OH253995   2.210   1.707  16.408  0.4752  0.2947 -0.1504
10835TIP3    H153996   2.146   1.637  16.391  0.0559  0.4056  0.8922
10835TIP3    H253997   2.157   1.787  16.413  0.9144  0.6489 -1.0158
10836TIP3   OH253998   1.195   4.407   1.101  0.4217 -0.1917  0.5188
10836TIP3    H153999   1.199   4.332   1.160 -0.1719 -0.1254  0.6435
10836TIP3    H254000   1.124   4.461   1.135  0.1458 -0.0977 -0.1953
10837TIP3   OH254001   2.184   2.756   0.755  0.0456 -0.1641 -0.0304
10837TIP3    H154002   2.120   2.795   0.696 -0.4329 -0.0215  0.5780
10837TIP3    H254003   2.189   2.817   0.829  1.8598  0.5279 -0.6618
10838TIP3   OH254004   3.290   1.859   3.071 -0.3013 -0.4476  0.3805
10838TIP3    H154005   3.283   1.902   3.156 -1.2009  0.4828 -0.1434
10838TIP3    H254006   3.223   1.791   3.072 -1.0575  0.2795  0.0222
10839TIP3   OH254007   4.036   0.291   4.413 -0.5544 -0.4171 -0.2986
10839TIP3    H154008   4.033   0.382   4.441  1.9304  0.8003 -3.2975
10839TIP3    H254009   3.948   0.272   4.380 -0.5982  1.6544 -1.5135
10840TIP3   OH254010   6.129   6.602   5.579  0.0515  0.6511 -0.5656
10840TIP3    H154011   6.086   6.521   5.606  0.5093  0.7564  0.5270
10840TIP3    H254012   6.182   6.577   5.504 -1.0694  0.2962 -1.2652
10841TIP3   OH254013   5.512   0.568  12.134 -0.1938 -0.1159 -0.2036
10841TIP3    H154014   5.439   0.517  12.099  0.0830 -0.0644 -0.8546
10841TIP3    H254015   5.475   0.656  12.147  0.1902  0.3756 -2.1623
10842TIP3   OH254016   0.288   1.121  15.695  0.3667 -0.2569  0.1505
10842TIP3    H154017   0.296   1.104  15.601 -0.4468 -0.1756  0.0564
10842TIP3    H254018   0.265   1.213  15.701  3.8640  0.6978  0.6202
10843TIP3   OH254019   2.058   3.086   6.772  0.1054  0.3516  0.2037
10843TIP3    H154020   2.139   3.127   6.802 -0.0628  1.2053 -0.4506
10843TIP3    H254021   1.989   3.148   6.797 -0.1754  0.4122 -0.6742
10844TIP3   OH254022   1.833   4.282  16.893  0.3379  0.0130  0.1890
10844TIP3    H154023   1.892   4.310  16.823  0.0376  3.0797  1.0398
10844TIP3    H254024   1.890   4.275  16.970  0.1061 -0.0986  0.3518
10845TIP3   OH254025   2.381   4.562   0.265 -0.2174  0.2492  0.5959
10845TIP3    H154026   2.310   4.601   0.317  0.6321  1.6926  0.7156
10845TIP3    H254027   2.458   4.613   0.288  0.8259 -1.1310  0.2574
10846TIP3   OH254028   6.636   1.924   3.423  0.0916 -0.5251 -0.2364
10846TIP3    H154029   6.599   2.010   3.446  0.2662 -0.3146 -0.7160
10846TIP3    H254030   6.586   1.861   3.475  0.2721 -0.0922  0.4725
10847TIP3   OH254031   0.093   0.234   6.322  0.1915  0.1862 -0.3149
10847TIP3    H154032   0.148   0.311   6.338 -0.1462  0.5498 -0.8720
10847TIP3    H254033   0.022   0.243   6.386  0.6740 -0.1910  0.2863
10848TIP3   OH254034   1.532   0.047   4.399 -0.1456 -0.0345 -0.3641
10848TIP3    H154035   1.553   0.068   4.490 -0.0931 -3.7383  0.6166
10848TIP3    H254036   1.436   0.052   4.395 -0.1286  0.4470 -0.2063
10849TIP3   OH254037   4.531   5.098   1.290 -0.1268  0.6451 -0.2593
10849TIP3    H154038   4.534   5.120   1.197  0.8723 -0.4052 -0.5048
10849TIP3    H254039   4.468   5.026   1.295  3.6259 -3.1456 -1.1123
10850TIP3   OH254040   3.249   0.559  11.211  0.0679 -0.0908 -0.1354
10850TIP3    H154041   3.328   0.602  11.179 -0.5242  0.7596 -0.5178
10850TIP3    H254042   3.276   0.513  11.290  1.5953 -2.2495 -1.8082
10851TIP3   OH254043   0.495   5.678  13.190 -0.4805  0.4672 -0.4960
10851TIP3    H154044   0.415   5.693  13.140 -1.0726 -0.2337  0.2166
10851TIP3    H254045   0.471   5.695  13.281  0.2867  0.6335 -0.3095
10852TIP3   OH254046   0.292   5.972   2.309 -0.0950  0.3389  0.6399
10852TIP3    H154047   0.212   5.963   2.257  0.7179 -0.5433 -0.5168
10852TIP3    H254048   0.350   6.025   2.254  0.4462  0.1644  1.0371
10853TIP3   OH254049   3.800   1.467  12.651 -0.0849  0.2182 -0.4526
10853TIP3    H154050   3.848   1.548  12.635  0.1286  0.2441  0.2517
10853TIP3    H254051   3.832   1.406  12.584  0.3693  0.4693 -0.4689
10854TIP3   OH254052   5.391   4.118  12.200  0.2128  0.0847  0.0765
10854TIP3    H154053   5.351   4.040  12.161 -0.6568  0.0398  1.0354
10854TIP3    H254054   5.420   4.169  12.125 -2.7845  0.7276 -0.7772
10855TIP3   OH254055   0.755   3.045  15.938  0.1565 -0.5172 -0.3346
10855TIP3    H154056   0.700   2.972  15.966  0.6650 -1.1279 -0.9309
10855TIP3    H254057   0.759   3.102  16.015  0.7134 -1.6768  0.5224
10856TIP3   OH254058   0.279   0.390  12.921  0.6058 -0.7822 -0.9556
10856TIP3    H154059   0.355   0.337  12.945 -0.2744 -1.9557 -0.6741
10856TIP3    H254060   0.278   0.388  12.825  1.6948  0.4013 -1.0288
10857TIP3   OH254061   6.047   3.978   3.333  0.0757 -0.4211  0.3602
10857TIP3    H154062   6.088   4.003   3.416 -1.5006 -2.8140  2.0077
10857TIP3    H254063   6.038   4.060   3.285  3.1871  0.7275  1.4953
10858TIP3   OH254064   4.429   6.748   2.965  0.4256  0.1665 -0.0799
10858TIP3    H154065   4.373   6.820   2.935  0.7302  0.4148 -0.0547
10858TIP3    H254066   4.437   6.691   2.888 -1.1889 -0.7303  0.3728
10859TIP3   OH254067   4.294   5.545  15.089  0.2843  0.1118  0.1390
10859TIP3    H154068   4.387   5.563  15.101  0.0146  1.2797  0.6742
10859TIP3    H254069   4.258   5.541  15.178 -0.1888 -0.2838 -0.0617
10860TIP3   OH254070   5.616   0.828  11.728  0.2580  0.0841  0.1031
10860TIP3    H154071   5.599   0.832  11.634 -0.8026 -2.2497  0.1422
10860TIP3    H254072   5.579   0.745  11.756  1.7784  0.0811  2.3612
10861TIP3   OH254073   6.569   2.058  16.858 -0.1773  0.3196  0.3585
10861TIP3    H154074   6.634   1.994  16.885  1.0976  1.9346  1.3133
10861TIP3    H254075   6.584   2.070  16.764  0.5330  0.2581  0.4619
10862TIP3   OH254076   1.079   3.899   5.141 -0.5262 -0.1080 -0.2261
10862TIP3    H154077   1.130   3.938   5.211  0.6235  1.4532 -1.8476
10862TIP3    H254078   0.992   3.940   5.148  0.0647  1.2747 -0.6494
10863TIP3   OH254079   1.662   0.936  10.510  0.0891 -0.3845  0.4879
10863TIP3    H154080   1.722   0.975  10.573 -0.8352 -1.2490  1.9605
10863TIP3    H254081   1.718   0.894  10.446  1.0600  0.9820  0.4094
10864TIP3   OH254082   1.120   3.808   3.908  0.0186  0.1477 -0.2160
10864TIP3    H154083   1.105   3.838   3.998 -0.2751 -2.1768  0.6008
10864TIP3    H254084   1.038   3.827   3.862  0.0849  1.1385  0.0631
10865TIP3   OH254085   6.482   5.071   5.876 -0.2928  0.5081 -0.4329
10865TIP3    H154086   6.390   5.092   5.858  0.4087  2.7991 -1.8359
10865TIP3    H254087   6.497   5.106   5.964 -0.5850  0.7805 -0.4889
10866TIP3   OH254088   0.291   2.083   5.026  0.6679 -0.0807 -0.1414
10866TIP3    H154089   0.368   2.027   5.031  1.1232  0.5350 -0.1576
10866TIP3    H254090   0.297   2.124   4.939  0.4888  0.2095 -0.0192
10867TIP3   OH254091   3.252   0.443   1.126 -0.3036 -0.0819 -0.5898
10867TIP3    H154092   3.238   0.351   1.151 -0.4204  0.0723 -0.0682
10867TIP3    H254093   3.216   0.493   1.199  2.7106  0.3592  0.7715
10868TIP3   OH254094   4.094   4.283  14.124 -0.2038  0.1494 -0.0541
10868TIP3    H154095   4.156   4.282  14.051 -1.2866 -1.3390 -1.0178
10868TIP3    H254096   4.109   4.199  14.168 -1.4531 -0.1825 -0.2452
10869TIP3   OH254097   3.486   0.014   5.533 -0.0611  0.3518  0.2229
10869TIP3    H154098   3.440  -0.065   5.506 -0.8753  1.7045 -2.7861
10869TIP3    H254099   3.452   0.033   5.620 -1.0895 -1.6592  0.3147
10870TIP3   OH254100   2.627   6.454  13.289  0.3196  0.2211 -0.1680
10870TIP3    H154101   2.544   6.438  13.244  1.1598 -1.8350 -1.0766
10870TIP3    H254102   2.684   6.491  13.221  0.8048 -0.4427 -0.1276
10871TIP3   OH254103   4.133   0.711   4.495  0.6218 -0.1077  0.0589
10871TIP3    H154104   4.120   0.711   4.590  1.6160 -1.5724  0.2224
10871TIP3    H254105   4.174   0.627   4.476 -0.1049 -0.0978 -1.7594
10872TIP3   OH254106   1.722   6.104   4.382  0.1340 -0.1360 -0.2655
10872TIP3    H154107   1.793   6.168   4.388  1.0839 -1.2151  0.5957
10872TIP3    H254108   1.643   6.153   4.401  0.8550  0.7575  0.5083
10873TIP3   OH254109   2.510   5.938   1.991  0.0318  0.1105 -0.4390
10873TIP3    H154110   2.588   5.885   1.999  0.8294  0.7484 -2.9371
10873TIP3    H254111   2.506   5.989   2.072  2.1955  0.0563 -0.2560
10874TIP3   OH254112   2.206   2.350  13.695  0.4963  0.1178 -0.2929
10874TIP3    H154113   2.226   2.443  13.701 -2.2989  0.8321 -0.4709
10874TIP3    H254114   2.156   2.330  13.774 -0.4135 -0.7812 -1.0553
10875TIP3   OH254115   1.823   1.127  12.632 -0.2100  0.5528  0.5809
10875TIP3    H154116   1.788   1.051  12.679  0.1094  0.8151  1.2601
10875TIP3    H254117   1.912   1.101  12.608 -1.0094 -0.3347 -1.6545
10876TIP3   OH254118   6.421   0.847  10.711 -0.4084  0.4678 -0.6368
10876TIP3    H154119   6.373   0.899  10.775 -1.8248 -0.3160 -1.0104
10876TIP3    H254120   6.414   0.897  10.630 -2.3253 -0.5422 -1.1492
10877TIP3   OH254121   4.853   0.836   6.586 -0.1601  0.6778 -0.1984
10877TIP3    H154122   4.826   0.748   6.560 -0.7762  0.6600  0.4624
10877TIP3    H254123   4.947   0.837   6.572 -0.3701  0.4865 -1.8407
10878TIP3   OH254124   2.910   5.324  13.288  0.1531  0.4487  0.0149
10878TIP3    H154125   2.935   5.236  13.260 -0.7200 -0.0073  0.5906
10878TIP3    H254126   2.891   5.371  13.207 -2.0356 -0.7434 -0.2459
10879TIP3   OH254127   4.555   3.065   2.505 -0.2215  0.7258  0.4121
10879TIP3    H154128   4.522   3.074   2.595  1.3385  0.9825  1.0062
10879TIP3    H254129   4.640   3.109   2.507  0.3377 -0.2192 -0.9150
10880TIP3   OH254130   5.388   0.867  14.201 -0.3921 -0.3931 -0.5093
10880TIP3    H154131   5.470   0.840  14.159 -0.5125  0.8016 -1.6008
10880TIP3    H254132   5.341   0.786  14.216 -0.3989 -0.9292 -2.9173
10881TIP3   OH254133   1.380   6.450   1.620  0.2645 -0.4848 -0.5248
10881TIP3    H154134   1.459   6.455   1.566  2.1263 -2.6615  1.7492
10881TIP3    H254135   1.405   6.488   1.704 -1.0149 -1.3858  0.3092
10882TIP3   OH254136   5.461   6.708   4.444 -0.3955 -0.1986 -0.2727
10882TIP3    H154137   5.391   6.771   4.462 -0.0814 -0.1044  0.6540
10882TIP3    H254138   5.459   6.647   4.518  0.5689 -0.1267 -0.1655
10883TIP3   OH254139   1.223   0.877   0.660  0.3283  0.0181 -0.2633
10883TIP3    H154140   1.220   0.870   0.756 -1.4336  0.5700 -0.2267
10883TIP3    H254141   1.226   0.972   0.644 -2.9337  0.1653 -0.6920
10884TIP3   OH254142   2.598   3.190   1.676  0.4085 -0.0091 -0.0303
10884TIP3    H154143   2.545   3.260   1.714  0.7751  0.6278 -0.6654
10884TIP3    H254144   2.554   3.109   1.703 -1.4455  0.5021 -1.3049
10885TIP3   OH254145   2.881   6.446  15.274 -0.4435  0.4611  0.1506
10885TIP3    H154146   2.827   6.524  15.269  0.0818  0.8769  0.8413
10885TIP3    H254147   2.820   6.374  15.257 -0.7192  1.0591 -1.6823
10886TIP3   OH254148   6.267   2.216   2.928  0.0164  0.4447 -0.7100
10886TIP3    H154149   6.267   2.224   3.023  0.1751 -0.4720 -0.6214
10886TIP3    H254150   6.176   2.198   2.906  0.0479  0.2650 -0.6934
10887TIP3   OH254151   1.763   5.947  13.002  0.0235  0.2535 -0.2625
10887TIP3    H154152   1.744   5.994  13.083 -2.7310 -0.1849 -0.5477
10887TIP3    H254153   1.793   5.860  13.032 -1.9866 -0.2794  0.3720
10888TIP3   OH254154   5.986   0.704  10.382 -1.1165  0.2675  0.7720
10888TIP3    H154155   6.081   0.710  10.386 -0.9378 -1.2105 -0.2492
10888TIP3    H254156   5.959   0.780  10.331 -0.0457 -1.3959 -2.6004
10889TIP3   OH254157   0.080   5.755  11.536 -0.0744  0.4162  1.1217
10889TIP3    H154158  -0.010   5.782  11.521  0.0991  0.6205  0.4265
10889TIP3    H254159   0.122   5.760  11.450  0.6289  0.4291  1.4545
10890TIP3   OH254160   4.561   5.374  12.633  0.0632 -0.2188  0.4802
10890TIP3    H154161   4.483   5.324  12.656 -0.5342  0.7570  0.6206
10890TIP3    H254162   4.624   5.308  12.603 -0.5263 -1.0965  1.1416
10891TIP3   OH254163   3.904   2.389  16.896 -0.4109 -0.6414  0.2372
10891TIP3    H154164   3.843   2.408  16.967  0.5792  0.6683  0.7768
10891TIP3    H254165   3.985   2.363  16.940  0.6995  1.6567 -0.3029
10892TIP3   OH254166   3.990   4.642   0.171 -0.4973  0.3521  0.5181
10892TIP3    H154167   3.983   4.650   0.266 -1.1935  0.6951  0.4455
10892TIP3    H254168   3.906   4.674   0.138 -0.2048  0.3806 -0.2208
10893TIP3   OH254169   3.779   1.466  14.735 -0.8889 -0.5353  0.8523
10893TIP3    H154170   3.752   1.547  14.776  2.7396  1.8459 -0.9330
10893TIP3    H254171   3.856   1.438  14.785  1.7560  0.7813 -2.1154
10894TIP3   OH254172   0.313   2.073   4.124 -0.2292 -0.5230  0.1753
10894TIP3    H154173   0.380   2.078   4.056  1.2594 -0.8798  1.5480
10894TIP3    H254174   0.325   2.154   4.174  0.0328 -1.1643  1.1732
10895TIP3   OH254175   5.258   0.162  15.510 -0.1238 -0.5645 -0.4103
10895TIP3    H154176   5.321   0.091  15.513  1.3261  0.6626 -0.7571
10895TIP3    H254177   5.308   0.238  15.481 -2.0040  0.2000 -1.8685
10896TIP3   OH254178   4.948   5.461   4.013  0.0094  0.0884 -0.1423
10896TIP3    H154179   4.911   5.381   3.975  0.2963  0.6921 -1.8014
10896TIP3    H254180   4.990   5.432   4.094  0.1952 -1.4787 -0.7572
10897TIP3   OH254181   0.822   4.367  16.806 -0.1958  0.0831  0.1575
10897TIP3    H154182   0.807   4.291  16.749 -1.0021 -0.3724  0.9453
10897TIP3    H254183   0.855   4.329  16.888  2.8637  0.8624 -0.6046
10898TIP3   OH254184   6.152   0.587   3.141 -0.1731  0.2573  0.2611
10898TIP3    H154185   6.189   0.500   3.126 -0.0506  0.3098  0.2571
10898TIP3    H254186   6.187   0.614   3.226  0.3060  0.5708 -0.0316
10899TIP3   OH254187   1.380   5.168  16.188  0.0800  0.1429 -0.4693
10899TIP3    H154188   1.388   5.075  16.209 -0.2359  0.5633  1.7771
10899TIP3    H254189   1.292   5.192  16.219 -1.4219  0.4533 -4.3803
10900TIP3   OH254190   6.208   6.714  17.328 -0.1768  0.1591  0.1538
10900TIP3    H154191   6.198   6.792  17.275  1.1839  0.3664  0.1770
10900TIP3    H254192   6.135   6.718  17.390 -0.7953  0.7857 -0.5957
10901TIP3   OH254193   3.488   4.670   5.846 -0.1471  0.3071 -0.7743
10901TIP3    H154194   3.486   4.753   5.893 -0.9222  0.2924 -0.7687
10901TIP3    H254195   3.399   4.635   5.855  0.7925 -1.7620  1.4218
10902TIP3   OH254196   5.248   6.652  16.825  0.2869  0.5172  0.3217
10902TIP3    H154197   5.235   6.703  16.745  0.2656  1.7287  1.0815
10902TIP3    H254198   5.175   6.589  16.825 -0.8208  1.7693  0.3482
10903TIP3   OH254199   0.407   4.092  12.616  0.5170  0.0304 -0.8809
10903TIP3    H154200   0.341   4.137  12.669  2.0327  0.6769  0.5175
10903TIP3    H254201   0.464   4.161  12.583  1.2234 -0.6259 -1.0636
10904TIP3   OH254202   4.724   3.892  14.307 -0.8375 -0.1190 -0.1361
10904TIP3    H154203   4.774   3.958  14.355  1.2071 -2.3143  0.9794
10904TIP3    H254204   4.713   3.930  14.220  0.3279  1.6524  0.4230
10905TIP3   OH254205   0.058   2.987  13.911  0.0533 -0.6246 -0.1726
10905TIP3    H154206   0.111   2.968  13.833  0.6161  0.3763 -0.0391
10905TIP3    H254207   0.121   2.989  13.983  0.1374  2.1971 -0.2327
10906TIP3   OH254208   1.455   0.515   2.317 -0.1474 -0.3965  0.3215
10906TIP3    H154209   1.435   0.599   2.359 -0.4195 -0.6184  0.6342
10906TIP3    H254210   1.548   0.521   2.296 -0.8118  1.2929 -2.6238
10907TIP3   OH254211   5.532   0.127  12.313  0.5700 -0.0217 -0.8482
10907TIP3    H154212   5.523   0.098  12.404  2.4629  1.8707  0.0280
10907TIP3    H254213   5.576   0.055  12.269  0.3633 -0.6431 -0.0542
10908TIP3   OH254214   1.835   2.967   3.411 -0.2903  0.2243  0.1282
10908TIP3    H154215   1.921   2.994   3.443  0.5600 -2.1351  0.0433
10908TIP3    H254216   1.813   3.032   3.344  0.4870  1.9832  1.4775
10909TIP3   OH254217   4.240   3.401  13.664 -0.3547 -0.3204 -0.1230
10909TIP3    H154218   4.325   3.362  13.644 -0.1694  0.7682 -1.6197
10909TIP3    H254219   4.178   3.329  13.656  0.1441 -0.6318 -1.5140
10910TIP3   OH254220   6.646   5.137  15.285 -0.4830  0.0222 -0.1894
10910TIP3    H154221   6.589   5.109  15.214 -1.5529 -0.0842  0.6812
10910TIP3    H254222   6.723   5.081  15.278 -1.3360 -1.1838 -0.2201
10911TIP3   OH254223   6.692   4.211   1.026 -0.1392  0.8914  0.1132
10911TIP3    H154224   6.604   4.179   1.044  0.3508  0.0249  1.0566
10911TIP3    H254225   6.682   4.266   0.948 -1.6034  1.3041  0.5647
10912TIP3   OH254226   2.072   0.260  15.222  0.2734  0.4247  0.3082
10912TIP3    H154227   2.001   0.225  15.277  2.4979 -0.0524  3.1324
10912TIP3    H254228   2.064   0.355  15.231 -0.6187  0.4209 -0.2965
10913TIP3   OH254229   1.588   5.637   1.831  0.6398 -0.3590  0.2488
10913TIP3    H154230   1.589   5.598   1.743  1.6375 -0.0075  0.0888
10913TIP3    H254231   1.507   5.687   1.833  1.1287  0.5623 -0.9282
10914TIP3   OH254232   0.051   4.416   0.863 -0.1804 -0.3926  0.1944
10914TIP3    H154233   0.096   4.339   0.827 -1.1286 -0.5189 -0.7846
10914TIP3    H254234  -0.025   4.427   0.806 -0.9393  0.3081  1.3104
10915TIP3   OH254235   0.917   3.432   4.116 -0.3829  0.0841  0.0968
10915TIP3    H154236   0.919   3.340   4.143 -2.6407  0.2306  0.9731
10915TIP3    H254237   1.007   3.451   4.088  0.6456 -1.7809  1.8809
10916TIP3   OH254238   4.559   6.308   2.801  0.0603 -0.2753  0.3999
10916TIP3    H154239   4.532   6.391   2.763 -2.0292  0.0166  2.3693
10916TIP3    H254240   4.545   6.244   2.731  1.9382  0.9756 -1.2292
10917TIP3   OH254241   1.270   4.422   0.836 -0.2696 -0.5296  0.0164
10917TIP3    H154242   1.250   4.417   0.930  0.3568 -2.3096  0.1019
10917TIP3    H254243   1.240   4.338   0.802  1.6663 -0.8838 -0.9293
10918TIP3   OH254244   5.502   4.548   4.813 -0.2535  0.3887  0.2749
10918TIP3    H154245   5.576   4.591   4.856 -0.3826 -0.3633  1.2683
10918TIP3    H254246   5.513   4.455   4.832  0.7144 -0.2830 -2.8676
10919TIP3   OH254247   1.709   0.960  15.130  0.3034  0.1905  0.0736
10919TIP3    H154248   1.655   0.975  15.052 -1.6063 -1.5269  0.9762
10919TIP3    H254249   1.777   0.900  15.100 -1.3267 -1.7249 -0.0190
10920TIP3   OH254250   3.123   1.615   1.225  0.2153 -0.0093 -0.4821
10920TIP3    H154251   3.132   1.612   1.129 -0.5639 -0.7636 -0.5461
10920TIP3    H254252   3.189   1.554   1.257  0.2033 -0.0657 -0.5627
10921TIP3   OH254253   6.750   2.478   2.153  0.1369  0.6158  0.1659
10921TIP3    H154254   6.787   2.473   2.241  0.1410 -0.2001  0.1278
10921TIP3    H254255   6.824   2.496   2.096 -0.0500  2.5336  0.4509
10922TIP3   OH254256   1.561   2.846  17.003  0.7036  0.3087  0.1504
10922TIP3    H154257   1.503   2.780  16.966  1.9499 -0.9774  0.4076
10922TIP3    H254258   1.566   2.914  16.936 -0.3019 -0.0236 -0.2785
10923TIP3   OH254259   2.065   0.124  13.246  0.2524  0.7291 -0.3409
10923TIP3    H154260   2.062   0.059  13.176 -2.5353  0.5326 -0.1416
10923TIP3    H254261   1.990   0.103  13.302 -0.2974  3.6192  0.1775
10924TIP3   OH254262   6.286   0.717  16.554  0.4374 -0.0120  0.1996
10924TIP3    H154263   6.319   0.778  16.620 -2.6311  2.8488 -0.6184
10924TIP3    H254264   6.304   0.761  16.471  0.0125 -1.2799 -0.5799
10925TIP3   OH254265   6.113   4.738  16.907  0.6083 -0.2354 -0.1254
10925TIP3    H154266   6.054   4.678  16.951  0.2944 -0.1826 -0.4671
10925TIP3    H254267   6.055   4.797  16.859  0.8454  1.3791  1.4920
10926TIP3   OH254268   2.940   1.191  13.094 -0.3243  0.0500 -0.0374
10926TIP3    H154269   3.026   1.152  13.110 -0.7952 -0.4751  1.3608
10926TIP3    H254270   2.928   1.186  12.999  0.6118 -1.1084 -0.1062
10927TIP3   OH254271   4.452   3.981   6.115  0.6302 -0.0681  0.6245
10927TIP3    H154272   4.378   4.042   6.115  1.6520  1.3156 -1.6932
10927TIP3    H254273   4.437   3.925   6.191 -1.2567  1.9951  1.9069
10928TIP3   OH254274   1.700   1.932   3.550  0.9241  0.1142  0.0607
10928TIP3    H154275   1.641   1.954   3.478 -0.5008  1.1401  1.4648
10928TIP3    H254276   1.740   2.016   3.575  2.7838 -0.5027 -0.6279
10929TIP3   OH254277   6.270   6.383  15.098 -0.4196  0.0532  0.2282
10929TIP3    H154278   6.325   6.353  15.171  0.7047 -0.6394 -0.8563
10929TIP3    H254279   6.319   6.455  15.059 -0.5261 -0.2120 -0.4182
10930TIP3   OH254280   2.869   2.280  12.752 -0.2881 -0.6194  0.4999
10930TIP3    H154281   2.936   2.326  12.802 -1.5303  0.9735  0.7409
10930TIP3    H254282   2.900   2.284  12.661  1.0319 -1.8813  0.8595
10931TIP3   OH254283   6.636   1.317  13.443  0.1447  0.0660  0.3118
10931TIP3    H154284   6.553   1.302  13.399  0.6307 -0.3113 -0.5147
10931TIP3    H254285   6.638   1.253  13.514 -0.8577  1.0011  1.2197
10932TIP3   OH254286   5.284   2.871   1.668 -0.1468  0.3240 -0.0336
10932TIP3    H154287   5.258   2.905   1.582  1.5168 -1.3278 -1.2567
10932TIP3    H254288   5.219   2.803   1.687  0.5580 -0.6297 -0.9266
10933TIP3   OH254289   1.884   3.129   1.764 -0.1622 -0.1107 -0.2653
10933TIP3    H154290   1.952   3.125   1.697  3.1175 -2.9396  2.8448
10933TIP3    H254291   1.849   3.040   1.768  0.6163 -0.3699  2.4979
10934TIP3   OH254292   0.816   1.004  14.576 -0.3593  0.2777 -0.6497
10934TIP3    H154293   0.830   0.958  14.659  1.8616 -1.6363 -1.9490
10934TIP3    H254294   0.888   0.976  14.521 -0.5311  3.1793 -2.5746
10935TIP3   OH254295   5.592   6.524  13.069 -0.0624  1.2889 -0.1110
10935TIP3    H154296   5.546   6.440  13.069  1.3441  0.4709  0.0455
10935TIP3    H254297   5.616   6.538  13.161  1.4303  0.8321 -0.4009
10936TIP3   OH254298   0.794   5.887  14.233 -0.0643  0.1027  0.4956
10936TIP3    H154299   0.757   5.840  14.158  0.7479 -0.0659  0.1963
10936TIP3    H254300   0.882   5.850  14.244  2.1086  3.8369 -1.9850
10937TIP3   OH254301   3.814   0.408  16.641  0.6125  0.5397  0.7752
10937TIP3    H154302   3.873   0.408  16.567  0.0543  1.0137  0.3205
10937TIP3    H254303   3.751   0.477  16.622 -1.4681 -1.4132  0.1415
10938TIP3   OH254304   5.393   0.570  15.567  0.3900  0.5518  0.0019
10938TIP3    H154305   5.382   0.628  15.642  2.8041  1.9275 -0.6256
10938TIP3    H254306   5.380   0.482  15.603 -2.3935  1.3214  1.1605
10939TIP3   OH254307   5.361   1.918   4.669 -0.3656 -0.2188  0.3931
10939TIP3    H154308   5.394   2.007   4.680 -2.5309  0.5331  1.3592
10939TIP3    H254309   5.427   1.863   4.711  0.3755  1.0568  0.9558
10940TIP3   OH254310   3.166   2.069  13.304  0.0023 -0.1892  0.0393
10940TIP3    H154311   3.099   2.128  13.338  1.7695  0.3293  3.0137
10940TIP3    H254312   3.118   1.988  13.283 -2.0036  1.2505 -1.3184
10941TIP3   OH254313   5.345   2.285  11.848  0.1073 -0.6364  0.2623
10941TIP3    H154314   5.275   2.225  11.874 -0.4691  0.3680  1.0754
10941TIP3    H254315   5.318   2.370  11.882  1.1709 -0.0077 -0.4184
10942TIP3   OH254316   5.637   6.273  12.308 -0.1068 -0.3558  0.2784
10942TIP3    H154317   5.548   6.294  12.335 -0.3099 -0.9680  0.1080
10942TIP3    H254318   5.691   6.291  12.384 -0.6417 -1.8982  1.0566
10943TIP3   OH254319   5.017   6.060  16.614 -0.3258 -0.2432  0.1816
10943TIP3    H154320   5.023   6.008  16.534  1.7038  0.6844 -0.3359
10943TIP3    H254321   4.959   6.133  16.591 -1.6817 -1.2180  0.3487
10944TIP3   OH254322   0.104   0.620  14.925 -0.0103 -0.2022 -0.0828
10944TIP3    H154323   0.135   0.537  14.961 -0.3115  1.3083  4.1441
10944TIP3    H254324   0.010   0.621  14.943 -0.6226 -0.0797 -2.8171
10945TIP3   OH254325   5.128   0.904   1.841  0.3291  0.6506  0.5428
10945TIP3    H154326   5.035   0.893   1.819  0.5553  0.1215 -0.1845
10945TIP3    H254327   5.152   0.987   1.801  0.5730  0.0024 -0.7174
10946TIP3   OH254328   4.185   1.206  12.493 -0.4245 -0.0872  0.3989
10946TIP3    H154329   4.226   1.292  12.501 -0.8152  0.0380  1.2033
10946TIP3    H254330   4.216   1.172  12.409 -1.5496  1.5239 -0.7332
10947TIP3   OH254331   1.060   2.324  15.287  0.1096  0.2746 -0.4774
10947TIP3    H154332   1.041   2.231  15.304  0.0421  0.4149  0.2625
10947TIP3    H254333   1.042   2.336  15.194  0.1101 -0.4551 -0.5763
10948TIP3   OH254334   5.189   1.720  11.729  0.2818 -0.1391 -0.0310
10948TIP3    H154335   5.103   1.728  11.687 -0.3210 -0.1491  1.1471
10948TIP3    H254336   5.227   1.641  11.691 -0.6500 -0.6816  0.1181
10949TIP3   OH254337   1.727   6.124   5.162 -0.5248  0.2813  0.0821
10949TIP3    H154338   1.671   6.066   5.111 -0.1481  0.5563 -0.6699
10949TIP3    H254339   1.671   6.197   5.186 -1.5248 -1.2043  2.6228
10950TIP3   OH254340   3.872   5.506  17.395 -0.6253  0.2284 -0.5748
10950TIP3    H154341   3.926   5.496  17.474  1.8294 -0.8709 -2.2730
10950TIP3    H254342   3.817   5.428  17.395  1.5796 -1.4522 -1.4351
10951TIP3   OH254343   1.937   4.320  14.916 -0.6119 -0.4863  0.1292
10951TIP3    H154344   2.021   4.347  14.954 -1.4020 -1.9342  3.2108
10951TIP3    H254345   1.910   4.395  14.863  1.2122  1.2700  1.4959
10952TIP3   OH254346   4.484   2.738   1.496  0.9894 -0.2589  0.0916
10952TIP3    H154347   4.539   2.733   1.575 -1.3352  0.6893  1.9019
10952TIP3    H254348   4.475   2.832   1.480  0.0675 -0.3962 -0.2633
10953TIP3   OH254349   4.498   0.785  11.645  0.3454  0.1839  0.2303
10953TIP3    H154350   4.534   0.873  11.632  1.4485 -0.6290 -3.1632
10953TIP3    H254351   4.574   0.727  11.641 -0.6486 -1.1195 -0.4567
10954TIP3   OH254352   3.825   2.462  12.306  0.4456 -0.1879  0.1134
10954TIP3    H154353   3.889   2.405  12.266 -2.0350 -2.4205 -0.9880
10954TIP3    H254354   3.773   2.405  12.363 -0.4743  1.5319  1.1039
10955TIP3   OH254355   2.615   4.743  12.272  0.4361 -0.1225 -0.2478
10955TIP3    H154356   2.681   4.682  12.304  0.3831  0.9157  2.0476
10955TIP3    H254357   2.534   4.715  12.315  0.1856  0.8445 -0.0605
10956TIP3   OH254358   1.633   1.733  12.537 -0.3146 -0.3139 -0.1733
10956TIP3    H154359   1.675   1.819  12.537 -0.3602 -0.2888 -0.4757
10956TIP3    H254360   1.542   1.752  12.562 -0.4924 -0.1833 -0.9025
10957TIP3   OH254361   4.850   1.153  17.154  0.4680 -0.4052  0.2681
10957TIP3    H154362   4.775   1.183  17.103 -0.2241 -0.4113  1.2656
10957TIP3    H254363   4.819   1.075  17.199  0.9214 -0.1400  1.0613
10958TIP3   OH254364   2.320   4.688   4.395 -0.2927  0.1943 -0.2599
10958TIP3    H154365   2.284   4.664   4.309 -0.3197  0.0251 -0.2019
10958TIP3    H254366   2.366   4.770   4.379 -0.2737  0.1491 -0.4443
10959TIP3   OH254367   0.900   3.220  15.779  0.6160  0.1690 -0.3781
10959TIP3    H154368   0.956   3.254  15.849 -1.0546 -0.3796  1.3377
10959TIP3    H254369   0.863   3.140  15.816 -1.7579  0.8301 -1.1618
10960TIP3   OH254370   5.331   1.506   1.243  0.7367 -0.1015 -0.1807
10960TIP3    H154371   5.269   1.476   1.177  1.6579 -2.0639 -0.2359
10960TIP3    H254372   5.396   1.557   1.194 -0.2540  1.1027 -0.2731
10961TIP3   OH254373   6.590   5.845  11.543  0.1174  0.2953 -0.1535
10961TIP3    H154374   6.551   5.846  11.630 -0.9398  0.7178 -0.6167
10961TIP3    H254375   6.569   5.931  11.506  0.9283  0.2853 -0.6664
10962TIP3   OH254376   0.010   2.711  16.427 -0.4574 -0.6399 -0.5012
10962TIP3    H154377  -0.001   2.750  16.340  0.8996  1.1444  0.0754
10962TIP3    H254378  -0.077   2.713  16.466 -0.5259  1.4863 -0.6726
10963TIP3   OH254379   0.661   2.858   0.353  0.1677  0.5459 -0.6363
10963TIP3    H154380   0.728   2.909   0.307  1.1535 -0.1472  0.0173
10963TIP3    H254381   0.675   2.768   0.325 -0.2907  0.3464 -0.2363
10964TIP3   OH254382   4.831   0.911   2.546  0.1899 -0.0125  0.5551
10964TIP3    H154383   4.781   0.892   2.626  1.5429  0.1781  1.4680
10964TIP3    H254384   4.793   0.993   2.514 -0.5717 -0.2489  0.8150
10965TIP3   OH254385   3.811   6.768   2.578  0.1449  0.3017  0.8275
10965TIP3    H154386   3.723   6.731   2.580  0.5072 -0.5608  2.2607
10965TIP3    H254387   3.869   6.692   2.573  0.8345  0.8227  0.6613
10966TIP3   OH254388   0.382   0.644  17.482  0.4812 -0.1532  0.2853
10966TIP3    H154389   0.406   0.720  17.429  2.0978 -1.6312 -1.2367
10966TIP3    H254390   0.459   0.627  17.536 -0.2705 -0.1079  1.4033
10967TIP3   OH254391   3.907   1.373  13.173 -0.1247 -0.0738  0.0527
10967TIP3    H154392   3.821   1.383  13.131 -0.5698 -2.0096  0.3868
10967TIP3    H254393   3.970   1.390  13.103 -0.7596  1.3937 -0.1990
10968TIP3   OH254394   3.420   2.562  13.808  0.0382  0.2621 -0.5235
10968TIP3    H154395   3.490   2.521  13.757 -0.0215 -0.1496 -0.2757
10968TIP3    H254396   3.393   2.495  13.870 -0.8525  0.2846 -0.8805
10969TIP3   OH254397   2.912   1.501  12.212  0.9113  0.7082 -0.6032
10969TIP3    H154398   2.863   1.550  12.278  0.5429  0.6925 -0.8641
10969TIP3    H254399   2.846   1.473  12.149  0.6492 -2.3395  0.8270
10970TIP3   OH254400   2.664   6.419  11.933  0.1539  0.2348  0.2793
10970TIP3    H154401   2.613   6.346  11.900  0.1858 -0.7403  2.2283
10970TIP3    H254402   2.745   6.418  11.881  0.2969 -1.3594  0.4986
10971TIP3   OH254403   2.792   5.891   4.903 -0.3863  0.1155  0.1607
10971TIP3    H154404   2.877   5.913   4.866 -0.3210  1.2634  0.9386
10971TIP3    H254405   2.762   5.816   4.851  1.7941 -1.3611  0.8719
10972TIP3   OH254406   1.217   1.729  15.747  0.0512 -0.1960  0.8294
10972TIP3    H154407   1.140   1.699  15.795 -1.0153  0.0228 -0.6655
10972TIP3    H254408   1.209   1.824  15.745 -0.7148 -0.2593 -0.9581
10973TIP3   OH254409   3.643   2.078  15.244  0.4242  0.0477 -0.7006
10973TIP3    H154410   3.734   2.087  15.273  0.0345 -0.5312  0.8240
10973TIP3    H254411   3.599   2.156  15.277  0.4613  0.5807 -1.8847
10974TIP3   OH254412   0.892   3.166   4.197 -0.5139 -0.3097  0.4120
10974TIP3    H154413   0.965   3.107   4.211 -0.0890  0.0861 -0.1114
10974TIP3    H254414   0.846   3.131   4.121  0.4240  0.6688 -0.6489
10975TIP3   OH254415   3.118   3.083   4.725 -0.5903  0.2383 -0.0607
10975TIP3    H154416   3.194   3.037   4.690 -1.1242  0.7673 -2.1057
10975TIP3    H254417   3.043   3.032   4.694 -1.1170  1.2073 -0.4268
10976TIP3   OH254418   5.797   5.981  15.465  0.2946 -0.0234  0.6828
10976TIP3    H154419   5.775   6.026  15.383  2.2156  2.1979  1.2754
10976TIP3    H254420   5.854   5.909  15.439  1.7303  1.2818  0.1160
10977TIP3   OH254421   5.547   0.496   1.498 -0.2969 -0.9732 -0.0891
10977TIP3    H154422   5.468   0.466   1.452 -1.5646  0.8873  0.7364
10977TIP3    H254423   5.569   0.424   1.557 -1.7982 -1.2786  0.1523
10978TIP3   OH254424   3.451   5.374  12.678  0.3983  0.3840 -0.6327
10978TIP3    H154425   3.483   5.284  12.673 -0.9333 -0.0384 -2.0082
10978TIP3    H254426   3.408   5.379  12.764 -1.4870 -1.0168 -1.4161
10979TIP3   OH254427   4.426   5.847  12.100  0.3908  0.0557 -0.1641
10979TIP3    H154428   4.456   5.938  12.109  1.0231 -0.2203  0.5686
10979TIP3    H254429   4.348   5.842  12.155 -0.8432  0.6723 -1.7742
10980TIP3   OH254430   6.139   6.059  13.906 -0.2613 -0.3847  0.0472
10980TIP3    H154431   6.089   5.985  13.941  0.5912  0.2547  2.8353
10980TIP3    H254432   6.230   6.030  13.907 -0.2045 -0.6641 -2.7368
10981TIP3   OH254433   5.860   0.130   4.923 -0.2872 -0.1992  0.3968
10981TIP3    H154434   5.773   0.114   4.886 -0.6228 -0.2708  1.1847
10981TIP3    H254435   5.921   0.114   4.851 -1.0101  1.5789 -0.6891
10982TIP3   OH254436   1.000   6.185  12.832 -0.3817 -0.2823  0.3706
10982TIP3    H154437   0.942   6.199  12.907 -0.5673 -0.1536  0.2060
10982TIP3    H254438   0.982   6.096  12.803 -0.1057 -0.4275  0.6541
10983TIP3   OH254439   1.474   3.935  11.294 -0.1215 -0.1391  0.5146
10983TIP3    H154440   1.410   3.864  11.282  0.9839 -1.0703 -0.0490
10983TIP3    H254441   1.424   4.015  11.276 -1.7375 -0.6383  2.4026
10984TIP3   OH254442   1.121   5.625  16.496  0.4650  0.2187  0.1219
10984TIP3    H154443   1.037   5.670  16.505  0.5090  0.2747  0.2558
10984TIP3    H254444   1.117   5.554  16.560 -0.5102 -1.3671 -1.6255
10985TIP3   OH254445   3.469   0.366  16.570 -0.2978  0.4478 -0.0094
10985TIP3    H154446   3.427   0.340  16.652 -1.0982 -0.7635 -0.7820
10985TIP3    H254447   3.488   0.284  16.525  0.0237  1.0957 -1.0896
10986TIP3   OH254448   5.275   5.806  12.053  0.4949  0.1877  0.2376
10986TIP3    H154449   5.254   5.728  12.105  2.3910 -1.8539 -1.7979
10986TIP3    H254450   5.294   5.873  12.118 -0.3322 -1.3081  2.1267
10987TIP3   OH254451   6.479   1.412   2.682  0.0740 -0.0417  0.1711
10987TIP3    H154452   6.447   1.405   2.592  0.9495  1.3222 -0.2760
10987TIP3    H254453   6.564   1.456   2.674 -0.2137  0.8627  1.7320
10988TIP3   OH254454   0.057   6.467   4.438  0.0131  0.0322  0.0782
10988TIP3    H154455   0.000   6.512   4.500 -0.6193 -0.5493 -0.0644
10988TIP3    H254456   0.143   6.507   4.450 -0.3215  0.5930  0.6366
10989TIP3   OH254457   0.304   4.664   3.231 -0.0427  0.0152  0.0960
10989TIP3    H154458   0.358   4.592   3.200  0.5961  0.6262 -0.2359
10989TIP3    H254459   0.315   4.663   3.326  1.5725  0.9052 -0.0530
10990TIP3   OH254460   3.296   5.823   0.804  0.2141 -0.1808 -1.1976
10990TIP3    H154461   3.278   5.915   0.823  0.9965 -0.3435  0.5058
10990TIP3    H254462   3.273   5.813   0.711 -1.6427  1.2639 -0.9546
10991TIP3   OH254463   0.375   4.161   5.253  0.3448 -0.4489 -0.2831
10991TIP3    H154464   0.364   4.255   5.270  3.2399 -0.4464  2.6245
10991TIP3    H254465   0.444   4.158   5.187 -0.5472 -0.5748 -1.2311
10992TIP3   OH254466   0.622   3.404  12.034  0.1114 -0.4860 -0.3215
10992TIP3    H154467   0.558   3.356  11.981  0.9783 -1.6976 -0.3301
10992TIP3    H254468   0.704   3.358  12.019  0.8628  0.6402  0.1925
10993TIP3   OH254469   2.074   0.177   4.139 -0.1556  0.2469 -0.5812
10993TIP3    H154470   2.025   0.155   4.060  0.0805 -1.8892 -0.2064
10993TIP3    H254471   2.017   0.148   4.211  0.8939 -0.7179 -0.0954
10994TIP3   OH254472   5.200   1.141   4.461  0.2850  0.1909  0.0873
10994TIP3    H154473   5.189   1.233   4.483 -1.6196  0.0096  0.1150
10994TIP3    H254474   5.110   1.107   4.458  0.7956 -1.1216 -2.2256
10995TIP3   OH254475   4.984   5.934  12.650  0.2277  0.2182 -0.5431
10995TIP3    H154476   5.036   5.979  12.584 -1.2020  1.2448 -1.0264
10995TIP3    H254477   5.018   5.966  12.733  0.7859  0.3637 -0.8235
10996TIP3   OH254478   0.658   2.348  11.717 -0.0943  0.3061 -0.4429
10996TIP3    H154479   0.586   2.323  11.659 -0.2599 -1.8698  0.5959
10996TIP3    H254480   0.628   2.325  11.805  1.4176  0.4092  0.1319
10997TIP3   OH254481   4.859   3.481  13.255  0.0147 -0.3391 -0.2463
10997TIP3    H154482   4.877   3.500  13.347 -1.1652 -0.6179  0.0613
10997TIP3    H254483   4.935   3.432  13.225  0.3853 -0.2939  0.5985
10998TIP3   OH254484   5.370   3.767  15.614  0.4852  0.1359  0.4410
10998TIP3    H154485   5.369   3.803  15.525  1.3565 -1.5884 -0.3370
10998TIP3    H254486   5.279   3.769  15.643  0.3007  1.4383 -0.1662
10999TIP3   OH254487   3.732   2.504  15.575 -0.5937 -0.5090 -0.0232
10999TIP3    H154488   3.730   2.419  15.620  1.9927 -0.9782 -0.6323
10999TIP3    H254489   3.770   2.564  15.639 -1.4386 -0.0068  0.0333
11000TIP3   OH254490   5.026   6.499  12.505  0.4380  0.1314 -0.2967
11000TIP3    H154491   4.982   6.424  12.466  0.7796  0.0740 -0.5816
11000TIP3    H254492   4.977   6.575  12.474  1.2495  0.1490 -1.6016
11001TIP3   OH254493   1.786   1.787   0.530  0.0571 -0.1479  0.4573
11001TIP3    H154494   1.788   1.693   0.513 -0.8547 -0.0299 -0.3432
11001TIP3    H254495   1.711   1.819   0.480  1.9238  1.4369 -1.5081
11002TIP3   OH254496   1.004   1.334   1.832  0.1761  0.0328 -0.0912
11002TIP3    H154497   0.950   1.259   1.808  1.1556 -0.2764 -1.4974
11002TIP3    H254498   0.992   1.396   1.760  1.8356 -0.1455 -0.5721
11003TIP3   OH254499   0.780   4.491  15.581  0.2250  0.5291  0.7883
11003TIP3    H154500   0.789   4.417  15.522  0.4422 -0.2494  1.7803
11003TIP3    H254501   0.712   4.545  15.542  0.6313  0.2324 -0.3664
11004TIP3   OH254502   3.361   4.368  16.000  0.1271 -0.2344  0.0117
11004TIP3    H154503   3.422   4.439  15.984 -1.6784  0.8793 -2.8281
11004TIP3    H254504   3.410   4.288  15.980  1.1685  0.4886 -0.3873
11005TIP3   OH254505   5.353   5.750  10.890 -0.3962 -0.2461  0.1962
11005TIP3    H154506   5.380   5.661  10.913 -0.2305 -0.2426  0.0194
11005TIP3    H254507   5.285   5.737  10.824 -0.0692 -0.2386 -0.1522
11006TIP3   OH254508   0.713   3.253  14.211  0.0222  0.6756 -0.0134
11006TIP3    H154509   0.683   3.324  14.269 -2.1122 -0.1592 -0.0052
11006TIP3    H254510   0.741   3.299  14.131 -1.1762  1.5646  0.0444
11007TIP3   OH254511   2.484   2.964  11.181 -0.4725 -0.3986 -0.0730
11007TIP3    H154512   2.541   2.906  11.130  0.8906  0.0338  0.8857
11007TIP3    H254513   2.440   3.018  11.115  0.9755 -0.0814 -0.8455
11008TIP3   OH254514   1.003   2.397   1.111  0.2918  0.1312 -0.2538
11008TIP3    H154515   1.024   2.304   1.101 -0.4808 -0.0193 -0.5134
11008TIP3    H254516   0.916   2.406   1.072  0.0537  0.8253  0.4236
11009TIP3   OH254517   5.339   1.120  14.140  0.5393 -0.1354 -0.5170
11009TIP3    H154518   5.381   1.038  14.165  0.1205  0.1461  1.2557
11009TIP3    H254519   5.245   1.102  14.146  0.4404  0.2924 -0.7284
11010TIP3   OH254520   4.363   5.623  15.917 -0.4862  0.2375  0.3117
11010TIP3    H154521   4.351   5.542  15.866 -2.1839  0.2152  0.6741
11010TIP3    H254522   4.314   5.689  15.869 -0.8041  0.5773  1.0850
11011TIP3   OH254523   5.457   2.653   3.942 -0.0139  0.5805 -0.7572
11011TIP3    H154524   5.540   2.694   3.965 -0.5076  1.5036 -0.5945
11011TIP3    H254525   5.408   2.649   4.024  1.1410 -3.1367 -0.0318
11012TIP3   OH254526   3.528   1.157  12.596  0.0239  0.2879  0.0643
11012TIP3    H154527   3.573   1.075  12.616  0.9770  1.1854  1.7924
11012TIP3    H254528   3.529   1.206  12.678 -1.6789  1.5126 -0.5906
11013TIP3   OH254529   2.402   5.880  12.577 -0.0563  0.1767  0.0012
11013TIP3    H154530   2.382   5.872  12.484  0.9205  0.4606 -0.2414
11013TIP3    H254531   2.322   5.916  12.616 -1.4596 -2.4461 -0.2591
11014TIP3   OH254532   4.991   2.129   5.295  0.3526 -0.5179 -0.6771
11014TIP3    H154533   5.027   2.199   5.349  0.4808 -0.3382 -0.9941
11014TIP3    H254534   5.066   2.095   5.246  0.1430 -0.3255 -1.1365
11015TIP3   OH254535   1.003   4.203  15.991 -0.0252  0.4512  0.0775
11015TIP3    H154536   0.940   4.274  16.007  0.0471  0.4861  0.2141
11015TIP3    H254537   1.039   4.222  15.905  1.2694  1.5734  0.8081
11016TIP3   OH254538   1.086   6.594  15.757 -0.5692  0.0387 -0.5870
11016TIP3    H154539   1.037   6.629  15.683 -1.0819 -0.1561 -0.3431
11016TIP3    H254540   1.019   6.556  15.814 -0.1555 -0.0084 -0.1327
11017TIP3   OH254541   4.220   4.127   3.035 -0.6392 -0.0705 -0.5197
11017TIP3    H154542   4.172   4.151   3.115 -1.0414 -0.4164 -0.6497
11017TIP3    H254543   4.200   4.198   2.974  0.3737  0.6492 -0.0475
11018TIP3   OH254544   1.263   2.226   5.032  0.2350  0.2190  0.3572
11018TIP3    H154545   1.202   2.201   4.964  0.5703  0.4302 -0.0240
11018TIP3    H254546   1.333   2.161   5.028  0.5404  0.5541  0.1143
11019TIP3   OH254547   2.614   4.982   2.006 -0.2973  0.6471  0.3605
11019TIP3    H154548   2.576   5.019   2.085  0.3586 -1.1341  1.5640
11019TIP3    H254549   2.708   4.993   2.017 -0.0596 -1.5504  0.9039
11020TIP3   OH254550   1.703   5.170  14.767 -0.4571 -0.1345 -0.7722
11020TIP3    H154551   1.696   5.111  14.842 -0.3601 -0.4991 -1.0502
11020TIP3    H254552   1.759   5.241  14.799 -1.5968  0.4621 -0.0269
11021TIP3   OH254553   5.815   3.159  12.766  0.3538  0.4825  0.0265
11021TIP3    H154554   5.774   3.159  12.853 -1.9541  1.1264 -0.9718
11021TIP3    H254555   5.880   3.229  12.770  0.9682 -0.1398  1.5102
11022TIP3   OH254556   0.265   5.007   5.043 -0.5185  0.4110  0.0503
11022TIP3    H154557   0.240   5.043   4.958 -0.4647  0.1725 -0.0654
11022TIP3    H254558   0.320   4.931   5.023  1.2923  1.5842  0.2837
11023TIP3   OH254559   5.214   4.012   3.339 -0.0169  0.5187 -0.4400
11023TIP3    H154560   5.281   3.967   3.390  0.6919  0.7949 -1.0953
11023TIP3    H254561   5.214   3.967   3.254  0.5090  1.5463 -1.0112
11024TIP3   OH254562   4.487   1.650   5.043 -0.3919 -0.7950  0.4042
11024TIP3    H154563   4.497   1.577   5.104  0.0686 -0.8491  0.2668
11024TIP3    H254564   4.446   1.719   5.095  0.1527 -0.7793  0.8305
11025TIP3   OH254565   0.920   4.995  12.909  0.1643 -0.3658  0.0259
11025TIP3    H154566   0.893   4.997  13.000 -0.4092 -0.8528 -0.1268
11025TIP3    H254567   1.016   5.000  12.912  0.3742 -3.2491  0.8187
11026TIP3   OH254568   0.847   1.600   2.798  0.7271 -0.2150  0.4728
11026TIP3    H154569   0.844   1.537   2.870  1.9824  0.8546  1.5233
11026TIP3    H254570   0.934   1.639   2.805 -0.4085  2.4654  0.6045
11027TIP3   OH254571   6.353   3.490   5.637  0.4439 -0.3432  0.0598
11027TIP3    H154572   6.429   3.503   5.693 -0.4929 -0.9283  1.5189
11027TIP3    H254573   6.386   3.440   5.563  2.0207  1.6744 -0.6945
11028TIP3   OH254574   6.653   5.848  13.886  0.1924 -0.0746  0.9061
11028TIP3    H154575   6.623   5.768  13.929  0.0881 -1.2073 -1.1319
11028TIP3    H254576   6.715   5.817  13.820 -0.1357  1.5002 -0.1800
11029TIP3   OH254577   1.988   0.177  14.043  0.4543 -0.5756 -0.2678
11029TIP3    H154578   1.928   0.249  14.023  0.6878 -0.4707 -0.5977
11029TIP3    H254579   2.048   0.213  14.109  1.0108 -0.2356 -0.9461
11030TIP3   OH254580   6.151   4.752  12.790 -0.1356 -0.0215  0.4187
11030TIP3    H154581   6.149   4.664  12.752  2.4290 -0.5642  1.3262
11030TIP3    H254582   6.176   4.739  12.881  0.4618  1.6494  0.5367
11031TIP3   OH254583   1.997   4.769   6.104  0.0387 -0.2130 -0.0596
11031TIP3    H154584   2.060   4.807   6.165  0.2615 -0.5707 -0.0653
11031TIP3    H254585   1.942   4.713   6.159 -1.3914  1.4107  0.2641
11032TIP3   OH254586   6.079   5.737  15.211  0.4147  0.0433 -0.3729
11032TIP3    H154587   5.997   5.757  15.166  0.8653  1.4531 -0.6170
11032TIP3    H254588   6.060   5.754  15.304  0.7319  1.5204 -0.5543
11033TIP3   OH254589   5.188   5.816  13.269  0.5970  0.2239 -0.4220
11033TIP3    H154590   5.136   5.895  13.259  1.3231  0.9224  1.0245
11033TIP3    H254591   5.268   5.845  13.313  1.7187 -1.0087 -1.5412
11034TIP3   OH254592   0.350   4.420   5.375 -0.0285  0.5423 -0.0175
11034TIP3    H154593   0.295   4.389   5.447 -1.7236  2.1710 -0.5218
11034TIP3    H254594   0.370   4.511   5.397  0.7827  0.5825 -0.8349
11035TIP3   OH254595   1.703   3.234  13.583 -0.2709  0.6849  0.0467
11035TIP3    H154596   1.677   3.292  13.654  0.6938 -1.4696  2.2742
11035TIP3    H254597   1.758   3.289  13.526 -0.7383  2.3579  1.1600
11036TIP3   OH254598   2.829   5.388  12.730 -0.4132  0.1072  0.0916
11036TIP3    H154599   2.749   5.401  12.781 -0.7089 -0.9141 -0.0957
11036TIP3    H254600   2.899   5.417  12.789 -0.9231  1.3644  0.1237
11037TIP3   OH254601   1.330   2.632   4.081 -0.2982  0.1859 -0.6115
11037TIP3    H154602   1.373   2.659   4.000 -1.1816 -0.3969 -1.3032
11037TIP3    H254603   1.316   2.538   4.071  0.2061 -0.0271  0.5338
11038TIP3   OH254604   3.316   2.178  11.468 -0.3473  0.2715  0.3173
11038TIP3    H154605   3.405   2.189  11.502 -0.4499  0.3339  0.5725
11038TIP3    H254606   3.262   2.235  11.524 -0.8010 -1.0633  1.3020
11039TIP3   OH254607   2.629   6.457  12.203 -0.1304 -0.5852  0.4995
11039TIP3    H154608   2.712   6.486  12.239  0.1171 -1.9777  1.1351
11039TIP3    H254609   2.642   6.459  12.108  0.1170  0.5776  0.5421
11040TIP3   OH254610   1.286   5.982   3.577 -0.2031  0.5539 -0.1993
11040TIP3    H154611   1.311   6.002   3.487  1.0255  0.4221  0.0907
11040TIP3    H254612   1.231   6.056   3.604  1.7227  2.0495 -0.1546
11041TIP3   OH254613   1.167   0.529   5.525 -0.2486  0.0048 -0.1977
11041TIP3    H154614   1.154   0.448   5.575 -0.8763  0.4506  0.3687
11041TIP3    H254615   1.255   0.520   5.490 -0.8266 -1.5979 -1.3791
11042TIP3   OH254616   4.161   4.985  12.984  0.5992 -0.4133  0.7091
11042TIP3    H154617   4.140   5.061  13.039 -1.8334 -0.6615  0.2051
11042TIP3    H254618   4.127   5.009  12.898 -1.3552 -2.5333  0.8205
11043TIP3   OH254619   5.221   6.039  14.502 -0.4539  0.4530 -0.4943
11043TIP3    H154620   5.257   6.074  14.583 -0.4140  2.4465 -1.3172
11043TIP3    H254621   5.126   6.049  14.512 -0.4551  0.6035 -0.6523
11044TIP3   OH254622   6.544   4.779   2.327  0.0432 -0.1989 -0.1289
11044TIP3    H154623   6.458   4.751   2.294  0.3159  0.3898 -1.4190
11044TIP3    H254624   6.602   4.705   2.309 -0.3947 -1.0565  1.7930
11045TIP3   OH254625   3.035   5.425   3.682  0.0715 -0.2879  0.7382
11045TIP3    H154626   3.007   5.487   3.614  0.7144 -1.0531 -0.2538
11045TIP3    H254627   3.128   5.445   3.696  0.3376 -1.1480  0.2623
11046TIP3   OH254628   1.538   2.824   0.282  0.0311  0.3125  0.2420
11046TIP3    H154629   1.607   2.843   0.345 -1.9343 -2.6421  3.6566
11046TIP3    H254630   1.480   2.901   0.287  1.0693  1.1205  0.2157
11047TIP3   OH254631   3.393   0.878  16.055 -0.2117  0.1762  0.6699
11047TIP3    H154632   3.473   0.928  16.068  0.0382 -0.2718  0.8324
11047TIP3    H254633   3.399   0.804  16.115 -0.9182  0.3394  0.9594
11048TIP3   OH254634   2.112   5.632  11.863 -0.1448  0.2976 -0.3217
11048TIP3    H154635   2.100   5.586  11.780 -0.2957 -2.3688  1.0470
11048TIP3    H254636   2.206   5.650  11.867  0.0380 -0.5095 -0.6538
11049TIP3   OH254637   1.921   0.969   5.038 -0.0234  0.4140  0.4308
11049TIP3    H154638   2.001   0.944   4.992 -0.3618  1.0733 -0.5507
11049TIP3    H254639   1.952   1.016   5.116  0.5644 -1.0392  1.1080
11050TIP3   OH254640   2.656   0.742   1.068 -0.3434  0.4137  0.0646
11050TIP3    H154641   2.688   0.668   1.016 -0.5770 -0.8843  1.6494
11050TIP3    H254642   2.705   0.737   1.150 -0.7494  1.7113  0.4146
11051TIP3   OH254643   3.988   1.315  15.980  0.4903 -0.1601 -0.2830
11051TIP3    H154644   3.964   1.327  16.072  1.9425  2.0067 -0.1217
11051TIP3    H254645   3.920   1.258  15.945 -1.2410  0.6093  1.6302
11052TIP3   OH254646   5.782   1.838   0.073 -0.2964 -0.2567  0.2489
11052TIP3    H154647   5.688   1.819   0.075 -0.5728  1.0304  0.5080
11052TIP3    H254648   5.808   1.840   0.165 -0.3341  0.7832  0.2475
11053TIP3   OH254649   0.373   1.652  16.365  0.1944 -0.0905 -0.1427
11053TIP3    H154650   0.399   1.717  16.431 -2.5225 -0.2137  1.1761
11053TIP3    H254651   0.314   1.700  16.306  0.1097 -0.7710 -0.6245
11054TIP3   OH254652   5.886   1.965   1.728 -0.3371 -0.2069 -0.2992
11054TIP3    H154653   5.941   1.906   1.780  0.4720  0.4829 -0.3480
11054TIP3    H254654   5.834   2.013   1.792 -1.0633 -1.0092 -0.2618
11055TIP3   OH254655   2.021   2.698  11.578 -0.1249  0.6089 -0.0265
11055TIP3    H154656   1.930   2.706  11.550 -0.3167 -0.1278  0.3613
11055TIP3    H254657   2.057   2.786  11.567 -1.4830  1.4718  1.8624
11056TIP3   OH254658   5.558   5.395   5.082 -0.3759  0.0651 -0.5170
11056TIP3    H154659   5.549   5.478   5.036  0.5821  0.3046 -0.2790
11056TIP3    H254660   5.603   5.417   5.164  1.1051 -0.8772 -1.0424
11057TIP3   OH254661   5.151   0.899   1.469  0.3886 -0.8923  0.3771
11057TIP3    H154662   5.101   0.827   1.508 -0.3391 -1.0152 -0.7361
11057TIP3    H254663   5.141   0.971   1.532 -1.3798 -0.8603  0.1314
11058TIP3   OH254664   2.304   1.432  17.381 -0.3302 -0.7951  0.2534
11058TIP3    H154665   2.260   1.427  17.466  0.0127 -1.5954  0.3946
11058TIP3    H254666   2.325   1.341  17.360 -1.3667 -0.7324 -1.2050
11059TIP3   OH254667   2.994   5.455  12.106 -0.4316 -0.4641 -0.7998
11059TIP3    H154668   3.068   5.410  12.064  0.4712  0.3506 -0.1432
11059TIP3    H254669   3.035   5.512  12.172 -1.4097  2.1120 -2.2706
11060TIP3   OH254670   0.142   4.818   2.221  0.4843  0.2079  0.5180
11060TIP3    H154671   0.234   4.792   2.217  0.7514  1.2110 -0.5745
11060TIP3    H254672   0.127   4.866   2.139  0.1102  3.6528  2.4094
11061TIP3   OH254673   2.378   5.819  11.442  0.0290  0.5539 -0.0396
11061TIP3    H154674   2.315   5.890  11.458  0.0567  0.5609  0.0422
11061TIP3    H254675   2.328   5.752  11.395 -0.3409  0.0732  1.0082
11062TIP3   OH254676   1.863   3.353   2.709  0.1764  0.4213 -0.1842
11062TIP3    H154677   1.813   3.431   2.685  1.3192  0.7408 -1.6172
11062TIP3    H254678   1.866   3.301   2.629 -3.4114 -2.8070  1.4834
11063TIP3   OH254679   4.414   5.851   5.161 -0.0853 -0.4154  0.0505
11063TIP3    H154680   4.477   5.853   5.089  3.2458 -3.8578  2.4723
11063TIP3    H254681   4.377   5.763   5.158 -1.3950  0.0507  1.4046
11064TIP3   OH254682   5.782   4.229   4.331  0.3104 -0.1135  0.3305
11064TIP3    H154683   5.844   4.276   4.387 -0.3959 -0.0026  1.0425
11064TIP3    H254684   5.707   4.288   4.324  0.3795 -0.1394 -0.7276
11065TIP3   OH254685   5.481   4.307  10.802  0.2434  0.2122 -0.1053
11065TIP3    H154686   5.462   4.231  10.748  0.3819 -0.0196  0.1636
11065TIP3    H254687   5.397   4.350  10.814 -0.1219 -0.7583  1.0184
11066TIP3   OH254688   4.112   4.547   5.154  0.5931  0.0856  0.0641
11066TIP3    H154689   4.088   4.617   5.094 -0.0479 -0.7515 -0.6820
11066TIP3    H254690   4.029   4.518   5.191  0.7579 -0.7808 -0.2198
11067TIP3   OH254691   5.992   2.412   4.754 -0.1607 -0.3724  0.1069
11067TIP3    H154692   5.901   2.437   4.769 -0.4996 -0.1832 -1.9325
11067TIP3    H254693   6.004   2.421   4.659  2.5126  1.4506  0.4888
11068TIP3   OH254694   6.733   4.176  12.651 -0.1098  0.0677  0.2106
11068TIP3    H154695   6.672   4.224  12.596 -0.0665 -0.0595  0.0500
11068TIP3    H254696   6.692   4.174  12.737  0.2864  1.1358  0.4315
11069TIP3   OH254697   1.534   1.507   2.965  0.4392 -0.2306  0.4891
11069TIP3    H154698   1.475   1.583   2.963  1.3251  0.5377  1.8979
11069TIP3    H254699   1.613   1.536   2.920 -0.0627 -1.1374 -1.0575
11070TIP3   OH254700   6.298   5.463   1.751  0.0880  0.3033 -0.7507
11070TIP3    H154701   6.248   5.393   1.710  1.7871 -0.6438 -1.2916
11070TIP3    H254702   6.305   5.531   1.684 -0.0784  0.2481 -0.8231
11071TIP3   OH254703   4.098   0.896  15.191 -0.2594 -0.5012 -0.1553
11071TIP3    H154704   4.127   0.982  15.223  2.1394 -1.4132  0.2619
11071TIP3    H254705   4.066   0.852  15.269 -2.3498  0.2501 -0.5056
11072TIP3   OH254706   3.026   3.618  13.170  0.3588  0.4679  0.5107
11072TIP3    H154707   2.978   3.540  13.198 -0.7378  0.7437 -0.4968
11072TIP3    H254708   2.959   3.686  13.162  0.6629  0.5935 -2.0017
11073TIP3   OH254709   2.294   0.782  10.903  0.4309 -0.3839  0.2787
11073TIP3    H154710   2.291   0.819  10.814  1.5969  0.6345  0.6429
11073TIP3    H254711   2.296   0.688  10.889 -1.4226 -0.3300 -0.7124
11074TIP3   OH254712   0.201   1.192   3.647  0.3213 -1.1345 -0.7602
11074TIP3    H154713   0.110   1.211   3.624  0.3204 -1.7025 -1.2634
11074TIP3    H254714   0.231   1.131   3.579  1.3801 -0.2108 -1.1721
11075TIP3   OH254715   4.739   2.145  10.714 -0.2340 -0.0317 -0.0544
11075TIP3    H154716   4.825   2.186  10.703 -0.4245  0.0480 -1.4817
11075TIP3    H254717   4.688   2.209  10.764  1.5821 -1.6565  4.4081
11076TIP3   OH254718   2.300   3.126  17.046  0.3151  0.2819 -0.3604
11076TIP3    H154719   2.247   3.049  17.068  1.0082 -0.0661  0.1468
11076TIP3    H254720   2.330   3.159  17.131  2.5700 -0.7320 -0.6805
11077TIP3   OH254721   0.397   2.186   5.365 -0.2558  0.2672 -0.2377
11077TIP3    H154722   0.428   2.169   5.276  1.6293  1.7798  0.0579
11077TIP3    H254723   0.439   2.120   5.420  0.8035  1.0222 -0.1225
11078TIP3   OH254724   4.846   0.401  17.501  0.0850 -0.1821 -0.2632
11078TIP3    H154725   4.918   0.464  17.496 -1.0501  1.0579 -2.1350
11078TIP3    H254726   4.863   0.340  17.430 -0.9499  0.4499 -1.0896
11079TIP3   OH254727   1.542   0.497   1.443 -0.1709  0.2842  0.3396
11079TIP3    H154728   1.543   0.425   1.380 -1.8187 -1.0258  1.6913
11079TIP3    H254729   1.552   0.454   1.528 -0.4352  1.7400  1.1388
11080TIP3   OH254730   4.834   4.764   4.721  0.2242  0.2920  0.6223
11080TIP3    H154731   4.892   4.781   4.646 -0.2515  2.4859  0.6794
11080TIP3    H254732   4.892   4.734   4.790  0.7111 -1.5240 -0.5037
11081TIP3   OH254733   6.194   2.134  14.531  0.3297  0.4671  0.1235
11081TIP3    H154734   6.283   2.102  14.543  0.1901  0.8349  2.5007
11081TIP3    H254735   6.202   2.203  14.465  1.4071 -0.9927 -1.3465
11082TIP3   OH254736   0.645   3.166   4.017  0.0771 -0.0831  0.6347
11082TIP3    H154737   0.569   3.107   4.016 -0.5276  0.6868 -0.0628
11082TIP3    H254738   0.624   3.234   3.953  0.7351  0.9277  1.4515
11083TIP3   OH254739   3.819   0.891  17.347 -0.3116  0.1862  0.0298
11083TIP3    H154740   3.760   0.840  17.291  1.0246 -0.5141 -0.7814
11083TIP3    H254741   3.856   0.826  17.408 -0.0297  0.5365  0.2346
11084TIP3   OH254742   3.455   4.223  13.626 -0.0330  0.4870  0.0965
11084TIP3    H154743   3.390   4.294  13.625 -3.1202 -2.0784  0.6685
11084TIP3    H254744   3.516   4.248  13.696 -2.7244  1.3183  2.3588
11085TIP3   OH254745   2.491   5.102   0.434 -0.3457 -0.1080  0.7188
11085TIP3    H154746   2.549   5.044   0.484 -0.1406  0.3810  1.0541
11085TIP3    H254747   2.486   5.062   0.347  0.1691 -0.3801  0.8105
11086TIP3   OH254748   5.556   1.278   5.969 -0.0766  0.3581 -0.3237
11086TIP3    H154749   5.614   1.354   5.959 -1.4497  1.3425 -1.2713
11086TIP3    H254750   5.468   1.316   5.974 -0.7195 -1.1285  0.3264
11087TIP3   OH254751   4.255   6.329   5.337 -0.0954  0.0515 -0.5304
11087TIP3    H154752   4.330   6.361   5.388 -0.9978  0.9776  0.2429
11087TIP3    H254753   4.240   6.240   5.370 -0.4823  0.5329  0.6332
11088TIP3   OH254754   0.273   2.302  13.263 -0.4119  0.4939 -0.2234
11088TIP3    H154755   0.204   2.368  13.253  0.1473  0.9089 -1.6823
11088TIP3    H254756   0.351   2.344  13.227  0.9699  0.5220  2.5137
11089TIP3   OH254757   1.398   1.260   2.877 -0.4771  0.0093  0.0544
11089TIP3    H154758   1.461   1.325   2.908 -2.5517  2.4139 -0.4677
11089TIP3    H254759   1.427   1.178   2.917  3.1162  0.8711 -0.4030
11090TIP3   OH254760   3.379   4.237   6.323 -0.0988  0.3225  0.8811
11090TIP3    H154761   3.367   4.168   6.389 -0.2275  0.5337  1.0815
11090TIP3    H254762   3.412   4.191   6.246 -1.7150 -0.2266  0.4614
11091TIP3   OH254763   5.933   3.170  11.795 -0.0086  0.5140  0.3997
11091TIP3    H154764   5.963   3.111  11.865 -0.7486  1.6710  1.7410
11091TIP3    H254765   5.933   3.115  11.717 -2.9577 -2.0917  1.9422
11092TIP3   OH254766   1.597   0.268   4.181 -0.0751  0.0706 -0.1676
11092TIP3    H154767   1.607   0.253   4.087 -0.5561  0.3922 -0.2722
11092TIP3    H254768   1.587   0.181   4.219 -1.7534  0.0123 -0.6435
11093TIP3   OH254769   0.413   1.799  13.820  0.2500  0.8422 -0.1709
11093TIP3    H154770   0.486   1.801  13.881  1.3488 -1.5503 -1.2400
11093TIP3    H254771   0.375   1.712  13.832  0.4555  0.3159 -2.7480
11094TIP3   OH254772   1.573   2.160   4.617  0.4328 -0.0378 -0.5671
11094TIP3    H154773   1.512   2.224   4.580  0.1811  0.6669  0.9538
11094TIP3    H254774   1.519   2.109   4.678  1.1047 -0.2106 -0.1053
11095TIP3   OH254775   0.791   6.466  13.092 -0.6153 -0.2394  0.0273
11095TIP3    H154776   0.843   6.391  13.122  0.6179  0.5068 -0.1562
11095TIP3    H254777   0.764   6.442  13.003  2.2396  0.6470 -1.2046
11096TIP3   OH254778   3.376   6.141  13.431 -0.4230 -0.1157 -0.0239
11096TIP3    H154779   3.421   6.212  13.386 -1.0289  0.8357  0.8137
11096TIP3    H254780   3.307   6.114  13.371 -0.7530  0.6230  0.0128
11097TIP3   OH254781   6.413   4.432   0.992 -0.3396  0.1722 -0.3060
11097TIP3    H154782   6.334   4.459   1.039  0.1695  0.4265  0.4256
11097TIP3    H254783   6.411   4.336   0.996 -0.7135  0.1694 -0.4765
11098TIP3   OH254784   1.067   2.931  14.527 -0.1788 -0.1851 -0.5506
11098TIP3    H154785   1.034   2.937  14.438  2.1113 -0.9426 -1.5475
11098TIP3    H254786   1.131   2.860  14.524 -0.1195 -0.3123  1.7425
11099TIP3   OH254787   3.881   3.122  13.490  0.1757  0.0070  0.0538
11099TIP3    H154788   3.902   3.211  13.518 -1.4101  0.2427  0.6008
11099TIP3    H254789   3.915   3.116  13.401  2.0720  0.4717  0.7139
11100TIP3   OH254790   0.162   1.583   1.431 -0.1517 -0.0206  0.2819
11100TIP3    H154791   0.225   1.601   1.501 -1.4329 -1.6070  1.9358
11100TIP3    H254792   0.215   1.544   1.361  1.0774  1.0852  0.5678
11101TIP3   OH254793   1.767   0.863  12.739  0.4231  0.1566  0.5220
11101TIP3    H154794   1.818   0.833  12.664 -1.1511  0.1634 -0.5984
11101TIP3    H254795   1.799   0.810  12.812  1.0151 -0.8557 -0.4329
11102TIP3   OH254796   6.631   6.550   5.941 -0.0505  0.0922  0.3863
11102TIP3    H154797   6.684   6.470   5.941 -0.5958 -0.2851  0.9538
11102TIP3    H254798   6.544   6.520   5.912 -0.1690  0.5432  0.2746
11103TIP3   OH254799   1.603   5.715  15.596 -0.3566  0.7927  0.0037
11103TIP3    H154800   1.673   5.754  15.544 -0.1562  1.2056  0.5763
11103TIP3    H254801   1.577   5.637  15.546 -0.7503  1.6218 -1.1514
11104TIP3   OH254802   0.069   2.538   4.752  0.1835 -0.4080  0.2749
11104TIP3    H154803   0.005   2.538   4.682  0.0441 -1.6672  0.3867
11104TIP3    H254804   0.151   2.561   4.710  0.0237 -0.7556 -0.2320
11105TIP3   OH254805   5.621   1.941   2.205 -0.4192 -0.3019 -0.4250
11105TIP3    H154806   5.702   1.902   2.239  1.1575  1.4512 -1.9852
11105TIP3    H254807   5.557   1.927   2.275  1.6304 -0.3509  1.5543
11106TIP3   OH254808   4.580   0.580   1.437  0.3651  0.5397 -0.1378
11106TIP3    H154809   4.594   0.655   1.380 -0.2383  0.5753 -0.2525
11106TIP3    H254810   4.489   0.554   1.420 -0.3651  1.5017  1.8940
11107TIP3   OH254811   2.111   2.451  11.590 -0.2066  0.0629  0.3338
11107TIP3    H154812   2.090   2.544  11.582  2.1596  0.6345 -0.0985
11107TIP3    H254813   2.171   2.433  11.517 -1.2754 -2.0332 -0.0953
11108TIP3   OH254814   0.122   2.977  17.045 -0.2820 -0.2609 -0.4982
11108TIP3    H154815   0.043   2.935  17.012  0.1307 -0.0838 -1.7413
11108TIP3    H254816   0.161   3.019  16.969 -0.5479  2.1913  0.6059
11109TIP3   OH254817   4.939   4.164   0.205 -0.4416 -0.0742 -0.3148
11109TIP3    H154818   4.996   4.237   0.226 -0.0880  0.2703 -2.2782
11109TIP3    H254819   4.992   4.086   0.222  0.3445  0.2231 -1.3075
11110TIP3   OH254820   2.367   6.554  17.357 -0.4623 -0.0324 -0.7190
11110TIP3    H154821   2.378   6.461  17.375  1.1940  0.6149  2.1108
11110TIP3    H254822   2.277   6.561  17.325 -0.6956 -2.5545 -0.8393
11111TIP3   OH254823   6.073   6.310  11.167 -0.5616  0.3608  0.0037
11111TIP3    H154824   6.115   6.249  11.106  1.1975  0.2066  1.2782
11111TIP3    H254825   6.135   6.317  11.240 -2.3790  0.8677  1.5916
11112TIP3   OH254826   2.110   3.170  15.368 -0.2529  0.1299 -0.7247
11112TIP3    H154827   2.151   3.085  15.353  1.7104  0.6861  0.9878
11112TIP3    H254828   2.029   3.150  15.415  0.4523 -0.8058  0.1508
11113TIP3   OH254829   4.665   5.688  14.833 -0.3281  0.0049 -0.0402
11113TIP3    H154830   4.589   5.735  14.867  0.1274  0.0130  0.9976
11113TIP3    H254831   4.711   5.657  14.911  1.2066  0.7403 -0.6049
11114TIP3   OH254832   2.608   1.224  16.317 -0.4657  0.0939 -0.0319
11114TIP3    H154833   2.615   1.315  16.288 -0.6168  1.0751  2.7015
11114TIP3    H254834   2.515   1.202  16.308 -0.4880  0.3268 -0.3592
11115TIP3   OH254835   3.246   4.070  16.284  0.5247 -0.5423 -0.0323
11115TIP3    H154836   3.223   4.163  16.284  0.9092 -0.4303  1.3655
11115TIP3    H254837   3.335   4.068  16.249  0.1564 -0.5025 -1.0056
11116TIP3   OH254838   2.466   5.555  16.511 -0.3831 -0.0537  0.2143
11116TIP3    H154839   2.406   5.519  16.445 -0.2861  0.3636 -0.1027
11116TIP3    H254840   2.464   5.650  16.495 -0.2779  0.0365  0.7434
11117TIP3   OH254841   0.338   1.248   2.979  0.2345  0.3471 -0.7047
11117TIP3    H154842   0.376   1.336   2.978  2.4835 -0.5208  1.0097
11117TIP3    H254843   0.275   1.250   3.051 -0.5314  0.8280 -1.3705
11118TIP3   OH254844   1.594   0.233  17.208 -0.2198 -0.2362  0.3609
11118TIP3    H154845   1.522   0.185  17.166 -1.4471  1.8834 -0.1091
11118TIP3    H254846   1.552   0.277  17.283  1.5918 -2.6474  3.0052
11119TIP3   OH254847   1.494   5.474  11.939 -0.2203  0.4226  0.7608
11119TIP3    H154848   1.436   5.436  12.005 -0.4957 -1.5847 -0.5342
11119TIP3    H254849   1.577   5.427  11.951 -0.1490  0.3308 -0.0538
11120TIP3   OH254850   6.443   2.159  13.768 -0.4723 -0.2216 -0.0552
11120TIP3    H154851   6.467   2.230  13.827 -0.0408  0.8603 -1.4748
11120TIP3    H254852   6.525   2.134  13.726 -1.1086  0.6749 -1.9176
11121TIP3   OH254853   3.512   0.653  11.167 -0.1235 -0.6043  0.0209
11121TIP3    H154854   3.505   0.694  11.081  0.0961  0.5076  0.5241
11121TIP3    H254855   3.603   0.664  11.193 -0.0068 -1.5968  0.0922
11122TIP3   OH254856   2.926   5.712  12.888 -0.1094 -0.4191  0.4956
11122TIP3    H154857   2.875   5.636  12.914  1.3600 -2.3279 -1.7409
11122TIP3    H254858   2.992   5.722  12.957 -0.4733 -0.9981  0.9304
11123TIP3   OH254859   2.172   2.062   3.226 -0.3556  0.3210  0.0187
11123TIP3    H154860   2.262   2.038   3.248 -0.9335 -0.2283  2.0683
11123TIP3    H254861   2.161   2.150   3.263 -0.0584  1.3138 -2.1328
11124TIP3   OH254862   3.102   5.384  17.120 -0.5533 -0.6070  0.1836
11124TIP3    H154863   3.087   5.470  17.157 -0.8858 -0.2054 -0.8630
11124TIP3    H254864   3.124   5.400  17.028  1.8875 -1.4531  0.5418
11125TIP3   OH254865   1.558   1.196  15.159  0.2412 -0.3828 -0.5249
11125TIP3    H154866   1.617   1.121  15.160  1.0017  0.2162  0.5305
11125TIP3    H254867   1.499   1.178  15.085  0.8283 -1.6777 -0.7125
11126TIP3   OH254868   2.286   5.617  12.567  0.3055  0.6559 -0.1122
11126TIP3    H154869   2.335   5.540  12.594 -0.4729  0.1462 -0.1391
11126TIP3    H254870   2.331   5.690  12.611  0.7398  0.1436  0.3104
11127TIP3   OH254871   1.456   6.011   5.291 -0.2465 -0.0800  0.1087
11127TIP3    H154872   1.371   5.974   5.268 -0.3236  0.3464 -0.2925
11127TIP3    H254873   1.438   6.066   5.367 -0.5720  1.0090 -0.7280
11128TIP3   OH254874   4.746   5.185  11.291  0.1848  0.4972  0.0488
11128TIP3    H154875   4.655   5.186  11.321  0.3786 -1.0425  0.7641
11128TIP3    H254876   4.751   5.257  11.229 -1.2464  1.3019  0.8057
11129TIP3   OH254877   3.175   5.067   4.156 -0.1951 -0.1065  0.5678
11129TIP3    H154878   3.116   5.142   4.161  1.4842  1.2247  1.9173
11129TIP3    H254879   3.152   5.014   4.233 -2.1408 -1.6860 -0.9807
11130TIP3   OH254880   0.826   5.803  12.044  0.2977  0.0208 -0.3637
11130TIP3    H154881   0.765   5.846  11.983  0.4703 -0.2158 -0.7057
11130TIP3    H254882   0.836   5.715  12.009 -1.1650 -0.7785  1.1206
11131TIP3   OH254883   4.840   0.927   4.071 -0.1440  0.2749  0.3234
11131TIP3    H154884   4.908   0.896   4.012  0.5201  1.2532  0.5554
11131TIP3    H254885   4.785   0.850   4.087  0.3609 -0.2935 -0.5997
11132TIP3   OH254886   0.571   2.794   4.496 -0.3406  0.2561 -0.1595
11132TIP3    H154887   0.625   2.739   4.553  0.6756  1.2525 -0.1206
11132TIP3    H254888   0.615   2.879   4.495 -0.4979  0.3805 -2.1742
11133TIP3   OH254889   3.053   0.409  12.585  0.0493 -0.0656 -0.2018
11133TIP3    H154890   3.020   0.323  12.559 -1.1903 -0.0654  1.2401
11133TIP3    H254891   3.106   0.392  12.663 -0.0751  0.4521  0.0002
11134TIP3   OH254892   3.345   2.960   3.265  0.3812 -0.1036  0.6441
11134TIP3    H154893   3.382   3.009   3.338 -0.7541  2.4616 -0.3593
11134TIP3    H254894   3.400   2.984   3.190 -1.0467  0.8616 -0.1439
11135TIP3   OH254895   5.648   4.947  14.683  0.5195 -0.3187  0.0208
11135TIP3    H154896   5.732   4.900  14.684 -0.1773 -1.6136  0.5522
11135TIP3    H254897   5.636   4.977  14.773  0.3819 -0.1886 -0.0408
11136TIP3   OH254898   0.762   3.121   2.599  0.4719 -0.7165 -0.0150
11136TIP3    H154899   0.785   3.171   2.677  1.3560  0.9506 -1.2694
11136TIP3    H254900   0.746   3.187   2.532  1.5232 -2.1015 -1.7334
11137TIP3   OH254901   3.141   2.183  14.612  0.1829 -0.0669  0.0953
11137TIP3    H154902   3.127   2.232  14.692 -0.7148 -1.0153  0.5346
11137TIP3    H254903   3.214   2.124  14.632  0.2576  0.0129  0.0604
11138TIP3   OH254904   0.690   1.259   1.383 -0.1415 -0.2094  0.5459
11138TIP3    H154905   0.707   1.285   1.292  1.4747 -1.5782  0.3895
11138TIP3    H254906   0.689   1.341   1.432  0.8552  0.4295 -0.4571
11139TIP3   OH254907   1.108   0.054  17.029 -0.3046  0.0739  0.3033
11139TIP3    H154908   1.033   0.108  17.005 -0.6614 -1.1973 -1.6663
11139TIP3    H254909   1.101   0.045  17.124 -0.7028  2.7164  0.6153
11140TIP3   OH254910   5.469   5.448  13.828  0.1132  0.4221 -0.5274
11140TIP3    H154911   5.502   5.360  13.813 -0.8688  0.3814 -2.8189
11140TIP3    H254912   5.395   5.457  13.768 -1.6055  1.8498  1.6724
11141TIP3   OH254913   3.050   3.642  12.326 -0.0153 -0.6273  0.0504
11141TIP3    H154914   3.137   3.633  12.286 -0.5579 -2.2334 -0.8743
11141TIP3    H254915   3.063   3.702  12.399  1.2207  1.8139 -1.9991
11142TIP3   OH254916   6.028   1.582  11.617 -0.5372 -0.2914  0.0834
11142TIP3    H154917   6.073   1.503  11.586 -0.9314 -0.3794 -0.2778
11142TIP3    H254918   5.944   1.550  11.652 -0.7464 -0.0251 -0.1653
11143TIP3   OH254919   1.343   0.727  14.650 -0.6962 -0.3410  0.4512
11143TIP3    H154920   1.343   0.653  14.711  0.2135 -1.7954 -1.2131
11143TIP3    H254921   1.311   0.690  14.567 -1.0447  1.3510 -0.2111
11144TIP3   OH254922   6.638   5.429  13.073 -0.2865 -0.0875  0.0689
11144TIP3    H154923   6.678   5.345  13.048  0.9080  0.7928 -1.0932
11144TIP3    H254924   6.556   5.404  13.115  0.8732 -1.9348  1.4624
11145TIP3   OH254925   2.484   1.425   6.170 -0.1550 -0.0720  0.1226
11145TIP3    H154926   2.492   1.348   6.226 -0.6586 -1.4868 -1.6615
11145TIP3    H254927   2.390   1.437   6.159 -0.1006 -1.5882 -2.6507
11146TIP3   OH254928   2.112   0.564   1.280 -0.2712  0.2300  0.1903
11146TIP3    H154929   2.129   0.499   1.348 -0.3985 -0.4166 -0.3848
11146TIP3    H254930   2.046   0.622   1.318 -1.0351 -0.6790  0.2816
11147TIP3   OH254931   0.807   0.475  15.392 -0.1394 -0.1164 -0.5387
11147TIP3    H154932   0.805   0.412  15.321 -0.5398 -2.0546  1.0847
11147TIP3    H254933   0.871   0.440  15.454  0.1593  1.4640  0.1059
11148TIP3   OH254934   2.616   3.551  16.757  0.7922  0.2032  0.3115
11148TIP3    H154935   2.569   3.472  16.731 -0.8872  1.3862 -0.4177
11148TIP3    H254936   2.567   3.622  16.717  1.8692  1.6771  1.5069
11149TIP3   OH254937   6.158   5.815   3.707 -0.3902  0.0590  0.6419
11149TIP3    H154938   6.094   5.833   3.775  0.8109 -0.1134  1.8517
11149TIP3    H254939   6.167   5.898   3.660  0.0417  0.6987  1.8115
11150TIP3   OH254940   0.431   6.446   3.899 -0.4370 -0.0190  0.2237
11150TIP3    H154941   0.487   6.400   3.836  0.7202  1.9146 -0.2395
11150TIP3    H254942   0.491   6.492   3.957 -1.5334  0.1902  1.2432
11151TIP3   OH254943   3.430   4.450  15.138  0.2939  0.7166  0.0011
11151TIP3    H154944   3.413   4.478  15.048  0.1551  1.9126  0.3868
11151TIP3    H254945   3.452   4.357  15.130 -3.8373 -0.3644 -0.8335
11152TIP3   OH254946   3.980   0.381  12.063  0.0696 -0.0963 -0.9755
11152TIP3    H154947   3.933   0.450  12.016 -0.0912  1.1074  0.8645
11152TIP3    H254948   4.064   0.373  12.016  0.2769  1.6767 -0.9734
11153TIP3   OH254949   3.481   1.549   5.066  0.0962 -0.2353 -0.1018
11153TIP3    H154950   3.422   1.524   5.138 -2.1811 -0.0669 -1.7928
11153TIP3    H254951   3.476   1.645   5.064  1.2033 -0.1604  0.3254
11154TIP3   OH254952   1.828   4.054  14.155  0.3555 -0.5371  0.5129
11154TIP3    H154953   1.881   3.994  14.102  1.0180  0.1800  0.3591
11154TIP3    H254954   1.738   4.036  14.128  0.4039 -2.4603  1.4692
11155TIP3   OH254955   4.433   4.881  12.977 -0.0191 -0.2244  0.3012
11155TIP3    H154956   4.343   4.904  13.000 -0.4742 -0.9623 -0.7091
11155TIP3    H254957   4.467   4.958  12.932 -1.0176 -0.8560 -1.6458
11156TIP3   OH254958   4.989   3.229  11.917 -0.7857 -0.2577 -0.2929
11156TIP3    H154959   4.992   3.139  11.884 -1.1687 -0.8796  1.2727
11156TIP3    H254960   4.947   3.222  12.003  1.4949  1.0625  1.0248
11157TIP3   OH254961   1.311   1.231  15.930 -0.4281 -0.3051 -0.3868
11157TIP3    H154962   1.388   1.231  15.987  0.3423  0.0054 -1.4028
11157TIP3    H254963   1.334   1.289  15.858 -1.2854 -0.8726 -1.1395
11158TIP3   OH254964   1.173   5.400  16.647  0.3608 -0.1052  0.7068
11158TIP3    H154965   1.264   5.417  16.622 -0.1284  1.6853  0.0528
11158TIP3    H254966   1.156   5.311  16.614  1.5304 -0.0483 -0.1270
11159TIP3   OH254967   5.296   5.931  11.084  0.3973  0.3334  0.2402
11159TIP3    H154968   5.240   5.995  11.041  0.6487  0.4968  0.1562
11159TIP3    H254969   5.325   5.874  11.013 -0.2410 -0.1906  0.3886
11160TIP3   OH254970   6.366   0.240  16.852  0.2876  0.1203 -0.4561
11160TIP3    H154971   6.363   0.333  16.828 -0.0523  0.5052  0.9716
11160TIP3    H254972   6.291   0.201  16.809  0.6665  0.4116 -1.4060
11161TIP3   OH254973   5.732   6.362  15.568 -1.0987  0.1519  0.3065
11161TIP3    H154974   5.750   6.386  15.659 -1.7874  0.3768  0.3920
11161TIP3    H254975   5.709   6.270  15.572  0.4476 -0.2738  0.1306
11162TIP3   OH254976   0.122   2.138  12.849  0.2478 -0.3704 -0.1860
11162TIP3    H154977   0.139   2.227  12.878 -0.9814 -0.4096  0.7459
11162TIP3    H254978   0.091   2.093  12.928  1.3902 -1.7881 -0.4961
11163TIP3   OH254979   5.387   6.623   1.404 -0.6162 -0.3894 -0.2214
11163TIP3    H154980   5.398   6.658   1.316  1.2328 -1.7820 -0.5983
11163TIP3    H254981   5.465   6.650   1.451 -1.1996 -0.3582  0.7644
11164TIP3   OH254982   5.821   5.682  15.949 -0.0406 -0.2446 -0.0891
11164TIP3    H154983   5.897   5.672  16.006 -0.4590  0.3532  0.5886
11164TIP3    H254984   5.858   5.683  15.860  0.7420  0.0522  0.2318
11165TIP3   OH254985   5.539   5.218   0.699 -0.0614  0.5787  0.6375
11165TIP3    H154986   5.612   5.262   0.655 -0.6198  0.8797 -0.0193
11165TIP3    H254987   5.480   5.194   0.628  1.0282 -2.9102  0.7226
11166TIP3   OH254988   3.243   4.960   3.266 -0.6349 -0.0019 -0.3910
11166TIP3    H154989   3.150   4.968   3.287 -1.0173  0.3611 -2.0584
11166TIP3    H254990   3.245   4.919   3.180  0.7638 -0.1840 -0.3001
11167TIP3   OH254991   5.350   4.956   2.006 -0.1662  0.0361  0.2721
11167TIP3    H154992   5.306   4.893   2.062  0.2368 -0.2145  0.3048
11167TIP3    H254993   5.297   4.957   1.926 -1.4535  1.2914  1.0866
11168TIP3   OH254994   2.819   6.590   1.884  0.3857  0.0944 -0.0623
11168TIP3    H154995   2.777   6.586   1.797 -2.3021 -0.6640  1.1616
11168TIP3    H254996   2.830   6.499   1.909  0.8057  0.3070  0.5371
11169TIP3   OH254997   5.519   0.574   4.549  0.0146 -0.2352  0.1023
11169TIP3    H154998   5.504   0.602   4.639  0.1631 -0.2654  0.1374
11169TIP3    H254999   5.542   0.654   4.502 -0.8795 -0.0831 -0.0943
11170TIP3   OH255000   5.965   5.307  14.080 -0.2217  0.0600 -0.1467
11170TIP3    H155001   6.003   5.298  13.993 -0.0369 -0.0600 -0.0530
11170TIP3    H255002   5.912   5.387  14.075  0.6963  0.6835 -0.0364
11171TIP3   OH255003   0.534   0.036   3.799 -0.0202 -0.1115  1.1544
11171TIP3    H155004   0.462  -0.025   3.814 -0.4877 -0.2940 -1.4314
11171TIP3    H255005   0.612  -0.009   3.832 -0.5148 -1.7014  0.2293
11172TIP3   OH255006   3.759   6.044   4.835 -0.6132  0.0961 -0.1750
11172TIP3    H155007   3.853   6.038   4.822 -0.6218 -2.9141  0.4163
11172TIP3    H255008   3.744   6.133   4.867  2.1311  0.3607  0.5732
11173TIP3   OH255009   1.330   2.005  12.639  0.0335 -0.2133 -0.7886
11173TIP3    H155010   1.357   2.012  12.547  3.5731 -0.7787  0.0568
11173TIP3    H255011   1.343   1.912  12.661 -1.6957 -0.2872  0.0856
11174TIP3   OH255012   0.089   5.263  15.554 -0.6246 -0.3039 -0.1428
11174TIP3    H155013   0.074   5.170  15.570  1.7132 -0.6076  0.6789
11174TIP3    H255014   0.108   5.268  15.460 -1.4009 -0.5298 -0.3217
11175TIP3   OH255015   1.852   5.923  16.655  0.5426 -0.1015 -0.4935
11175TIP3    H155016   1.888   5.969  16.579  1.1002  0.3376  0.0212
11175TIP3    H255017   1.762   5.904  16.630 -0.0722  2.2484 -0.3464
11176TIP3   OH255018   5.906   6.733  16.912  0.1426 -0.1291 -0.0030
11176TIP3    H155019   5.898   6.734  17.007  0.6153 -0.7668  0.0490
11176TIP3    H255020   5.855   6.809  16.883  1.2535  0.9835  0.8394
11177TIP3   OH255021   4.568   2.513   5.475 -0.3663  0.7421 -0.0815
11177TIP3    H155022   4.662   2.514   5.495 -0.0372  0.0108 -1.4832
11177TIP3    H255023   4.547   2.603   5.453 -0.0409  0.9480  0.4400
11178TIP3   OH255024   5.756   1.741  14.868  0.0657  0.0199 -0.5709
11178TIP3    H155025   5.741   1.782  14.783  0.2641 -1.7880 -1.5327
11178TIP3    H255026   5.670   1.711  14.895 -0.1747  1.4990  0.3974
11179TIP3   OH255027   0.639   4.506   0.906  0.2897 -0.5055 -0.1618
11179TIP3    H155028   0.564   4.529   0.852  0.4708  0.0994 -0.1581
11179TIP3    H255029   0.602   4.453   0.977 -0.4482  1.3916  0.9414
11180TIP3   OH255030   0.908   4.761  15.503  0.0199 -0.7700 -0.4655
11180TIP3    H155031   0.905   4.671  15.471  0.2454 -0.4500 -1.3935
11180TIP3    H255032   0.843   4.808  15.450  1.9865  0.2669 -2.0780
11181TIP3   OH255033   5.399   0.947   4.037  0.0977 -0.3272  0.5234
11181TIP3    H155034   5.330   0.904   4.088  1.6548 -1.6823  1.5795
11181TIP3    H255035   5.427   1.021   4.091 -0.3077  0.0482  0.2273
11182TIP3   OH255036   5.552   3.098   3.138  0.5299  0.3183  0.5439
11182TIP3    H155037   5.620   3.030   3.134 -0.0286 -0.2643  0.8322
11182TIP3    H255038   5.474   3.056   3.104 -0.2277  0.3103  2.2031
11183TIP3   OH255039   5.117   5.642   5.845  0.7477 -0.2896 -0.6552
11183TIP3    H155040   5.197   5.661   5.895  0.6319 -0.5160 -0.3785
11183TIP3    H255041   5.132   5.681   5.759  0.3305  1.4945  0.0404
11184TIP3   OH255042   0.878   0.876  12.271 -0.3305 -0.1054  0.4795
11184TIP3    H155043   0.801   0.923  12.305  0.0844 -0.7704  2.4730
11184TIP3    H255044   0.951   0.934  12.288 -0.3266  0.4532 -1.2671
11185TIP3   OH255045   6.135   3.535   2.266 -0.3186 -0.3150  0.1365
11185TIP3    H155046   6.075   3.597   2.225 -0.2489 -1.1737 -1.3318
11185TIP3    H255047   6.216   3.584   2.279  0.4219 -0.5871 -2.8788
11186TIP3   OH255048   0.654   1.747  11.288  0.0209 -0.1986  0.1508
11186TIP3    H155049   0.686   1.818  11.233  1.0927 -1.4893 -0.9677
11186TIP3    H255050   0.559   1.761  11.292 -0.1372 -0.2110 -2.3023
11187TIP3   OH255051   5.185   3.698   2.625  0.2175 -0.1207  0.0186
11187TIP3    H155052   5.161   3.791   2.622  0.8739  0.0800  0.6751
11187TIP3    H255053   5.197   3.674   2.533 -1.0463  0.1417 -0.2219
11188TIP3   OH255054   1.025   3.650   6.087 -0.2841  0.1140  0.2236
11188TIP3    H155055   1.001   3.625   6.177 -1.8217 -1.1061 -0.4810
11188TIP3    H255056   0.947   3.631   6.035  1.1506 -0.9258 -1.6841
11189TIP3   OH255057   0.045   0.324   0.233 -0.0591 -0.2882 -0.6657
11189TIP3    H155058   0.045   0.251   0.171  0.7149  0.3433 -1.4159
11189TIP3    H255059   0.103   0.389   0.195  2.0503 -0.6527  1.6239
11190TIP3   OH255060   0.608   6.588  10.795 -0.0532 -0.0972  0.6285
11190TIP3    H155061   0.531   6.592  10.738  1.5649 -2.2821 -1.9578
11190TIP3    H255062   0.656   6.668  10.775 -0.7303  0.3796  0.8641
11191TIP3   OH255063   1.800   0.137   5.708 -0.0584 -0.2608  0.1526
11191TIP3    H155064   1.754   0.219   5.721  0.3661  0.3015 -1.6370
11191TIP3    H255065   1.893   0.160   5.713  0.1276 -1.1665  2.4659
11192TIP3   OH255066   6.667   4.688  13.742 -0.1889  1.0221 -0.0207
11192TIP3    H155067   6.698   4.628  13.810  1.8282  2.4583  0.3984
11192TIP3    H255068   6.579   4.655  13.720 -0.6037  0.0335  2.6797
11193TIP3   OH255069   4.612   2.535   3.719  0.0290  0.2523  0.7067
11193TIP3    H155070   4.594   2.610   3.662 -1.0364  0.2243  0.9863
11193TIP3    H255071   4.654   2.471   3.661  1.8366  1.4045  0.6809
11194TIP3   OH255072   1.039   0.691  15.972 -0.4827  0.0980  0.5053
11194TIP3    H155073   1.062   0.602  15.998  0.9417 -0.1806 -1.4926
11194TIP3    H255074   1.112   0.721  15.918 -2.4367  1.1856 -1.7342
11195TIP3   OH255075   0.754   4.946   6.101 -0.3816 -0.4392  0.7349
11195TIP3    H155076   0.837   4.972   6.061 -1.2079  1.0569 -0.0863
11195TIP3    H255077   0.754   4.988   6.187 -1.4404  1.9319 -0.3442
11196TIP3   OH255078   3.500   1.744   2.909 -0.3256 -0.1008 -0.2131
11196TIP3    H155079   3.575   1.793   2.943  0.1437 -0.8112 -0.2061
11196TIP3    H255080   3.428   1.767   2.968 -0.1238  0.5913 -0.2253
11197TIP3   OH255081   3.659   3.441  11.090  0.3101  0.3912 -0.3226
11197TIP3    H155082   3.697   3.444  11.002  2.6423 -0.6860  0.5819
11197TIP3    H255083   3.691   3.359  11.127  1.2424  1.8456  2.3208
11198TIP3   OH255084   3.859   6.370  16.309  0.5376  0.0499  0.0943
11198TIP3    H155085   3.878   6.282  16.275 -1.5455 -0.5687  0.4289
11198TIP3    H255086   3.774   6.362  16.352  0.6232  2.0861  0.7513
11199TIP3   OH255087   4.673   1.161   4.386  0.3349  0.4650  0.3304
11199TIP3    H155088   4.665   1.151   4.291  0.9818 -0.5276  0.3544
11199TIP3    H255089   4.743   1.225   4.397 -0.2221  1.1146  0.1452
11200TIP3   OH255090   3.434   2.254  12.121  0.1935  0.2600 -0.7601
11200TIP3    H155091   3.490   2.176  12.128 -0.8920 -0.5658 -1.0526
11200TIP3    H255092   3.495   2.327  12.127  1.0522 -0.5386  1.9275
11201TIP3   OH255093   1.798   4.549  15.112 -0.3766  0.5699 -0.0163
11201TIP3    H155094   1.778   4.455  15.115  1.3278  0.1914  0.6146
11201TIP3    H255095   1.754   4.580  15.032 -0.1225 -0.9740 -0.8018
11202TIP3   OH255096   0.116   3.093  15.849 -0.3205  0.3058  0.2936
11202TIP3    H155097   0.171   3.153  15.800 -0.2590  1.1126  1.3188
11202TIP3    H255098   0.056   3.057  15.784  1.6061 -0.8646 -0.9175
11203TIP3   OH255099   2.278   5.284   3.710 -0.1677 -0.2895  0.4146
11203TIP3    H155100   2.268   5.190   3.722 -2.1332 -0.3370 -1.0505
11203TIP3    H255101   2.192   5.321   3.733  0.0757  0.9534 -0.5297
11204TIP3   OH255102   1.102   1.010  14.591  0.0908  0.2729  0.0298
11204TIP3    H155103   1.116   1.054  14.674  0.4926  2.5845 -1.1857
11204TIP3    H255104   1.151   0.928  14.599 -0.1715  0.2711  2.1611
11205TIP3   OH255105   6.629   5.157  11.644  0.6836 -0.1036  0.4409
11205TIP3    H155106   6.637   5.095  11.571  0.1552  0.0251  0.2627
11205TIP3    H255107   6.561   5.219  11.614 -0.5383 -0.8424  1.6007
11206TIP3   OH255108   6.097   6.375  15.416  0.2253 -0.2107 -0.3387
11206TIP3    H155109   6.048   6.293  15.410  0.0800 -0.1550  0.0399
11206TIP3    H255110   6.040   6.433  15.467  0.9215 -0.3354  0.6252
11207TIP3   OH255111   3.851   6.655   1.615 -0.4391 -0.1684 -0.0017
11207TIP3    H155112   3.830   6.659   1.521  0.4949 -1.7562 -0.3076
11207TIP3    H255113   3.809   6.575   1.646  0.8203 -0.6649  0.4917
11208TIP3   OH255114   2.011   1.354   1.936  0.1924  0.0510  0.4860
11208TIP3    H155115   2.000   1.375   1.843  1.5921 -1.5348 -0.1051
11208TIP3    H255116   2.092   1.303   1.939  0.0059 -0.2070  2.5458
11209TIP3   OH255117   4.962   0.511   2.252 -0.4771  0.5149  0.2770
11209TIP3    H155118   4.983   0.461   2.331  0.5746  0.5525  0.0438
11209TIP3    H255119   5.030   0.485   2.189 -1.5466  0.1382 -0.7731
11210TIP3   OH255120   2.651   1.839  13.460  0.0573  0.0980  0.1944
11210TIP3    H155121   2.656   1.928  13.424  0.7278  1.0549  2.4500
11210TIP3    H255122   2.703   1.786  13.400  1.6818  1.7222  0.0610
11211TIP3   OH255123   3.761   2.746   4.620  0.0373  0.2764  0.0175
11211TIP3    H155124   3.717   2.804   4.557  0.3548 -1.1408 -1.5799
11211TIP3    H255125   3.799   2.806   4.684 -1.6487  1.7092 -0.2119
11212TIP3   OH255126   2.877   6.530  12.317 -0.2483  0.7708 -0.5717
11212TIP3    H155127   2.932   6.607  12.305  0.9994  0.3725  1.7866
11212TIP3    H255128   2.939   6.458  12.326 -1.2354 -0.0294  0.0972
11213TIP3   OH255129   0.431   5.520   1.064  0.4249  0.2721  0.0490
11213TIP3    H155130   0.390   5.602   1.037 -0.9353 -0.1945  0.6137
11213TIP3    H255131   0.408   5.458   0.994  2.6531  0.6760 -1.1109
11214TIP3   OH255132   6.430   2.715   2.841 -0.0693 -0.4195 -0.1842
11214TIP3    H155133   6.337   2.736   2.845  0.7858  4.0218  1.2165
11214TIP3    H255134   6.454   2.694   2.931  0.7681  1.5577  0.1054
11215TIP3   OH255135   5.188   3.901  16.802  0.3724  0.5057  0.4558
11215TIP3    H155136   5.243   3.853  16.865  2.2831  3.6109  1.3789
11215TIP3    H255137   5.162   3.980  16.849 -2.8327  0.3833 -0.9009
11216TIP3   OH255138   4.522   4.497  16.104 -0.0580 -0.4209  0.2558
11216TIP3    H155139   4.610   4.487  16.140  0.4756 -2.3761 -1.3590
11216TIP3    H255140   4.464   4.497  16.180  1.1149 -2.6112  1.2249
11217TIP3   OH255141   3.598   1.151  13.518 -0.3554  0.3852 -0.0123
11217TIP3    H155142   3.503   1.164  13.512 -0.1298  2.5717  0.0856
11217TIP3    H255143   3.625   1.129  13.429 -0.9854 -0.6100  0.0305
11218TIP3   OH255144   2.322   3.813  15.188  0.5019  0.0247 -0.0757
11218TIP3    H155145   2.402   3.762  15.171 -0.5762 -1.6138 -0.4613
11218TIP3    H255146   2.280   3.769  15.261  0.8504  2.0172  1.3947
11219TIP3   OH255147   5.800   3.265   4.259 -0.7214 -0.3517  0.4118
11219TIP3    H155148   5.769   3.195   4.317 -0.8776 -0.4806  0.1706
11219TIP3    H255149   5.894   3.251   4.254 -0.9883 -1.8752 -1.3733
11220TIP3   OH255150   1.885   2.942  12.515  0.7236 -0.5656 -0.3815
11220TIP3    H155151   1.864   3.035  12.511 -1.0152 -0.8138  1.4719
11220TIP3    H255152   1.806   2.898  12.486  0.7133 -1.4747  0.9229
11221TIP3   OH255153   4.282   0.330  16.294 -0.2178  0.3028  0.0879
11221TIP3    H155154   4.300   0.336  16.388  0.4301  2.1898 -0.1178
11221TIP3    H255155   4.294   0.237  16.273 -3.9230 -0.9501  2.4950
11222TIP3   OH255156   0.861   6.610  13.547 -0.1356  0.4424  0.1930
11222TIP3    H155157   0.826   6.609  13.636  0.9930 -0.9244  0.6624
11222TIP3    H255158   0.892   6.700  13.535 -2.4782  1.3200  0.2373
11223TIP3   OH255159   0.654   3.975   0.262 -0.0060 -0.5286  0.2740
11223TIP3    H155160   0.569   3.987   0.304 -0.2548  1.5465 -0.6668
11223TIP3    H255161   0.634   3.938   0.176 -0.2640  1.9504 -0.8264
11224TIP3   OH255162   5.856   1.602  17.181 -0.1628 -0.2698 -0.5452
11224TIP3    H155163   5.859   1.507  17.189 -0.8142 -0.2119  0.6982
11224TIP3    H255164   5.783   1.620  17.122  0.7226 -0.5585 -1.7639
11225TIP3   OH255165   4.149   2.704   4.302  0.2907  0.0454 -0.0914
11225TIP3    H155166   4.145   2.610   4.286 -0.1277  0.5192 -3.6121
11225TIP3    H255167   4.230   2.732   4.259  0.7661  1.2313  1.4985
11226TIP3   OH255168   2.247   5.567  17.035 -0.5173  0.1842 -0.4323
11226TIP3    H155169   2.282   5.504  17.097  0.8331  2.5712  1.4206
11226TIP3    H255170   2.304   5.560  16.958  1.9582  1.4867  1.1360
11227TIP3   OH255171   5.465   6.288   3.983  0.0705  0.0712  0.0540
11227TIP3    H155172   5.491   6.324   4.069  0.2743  3.0170 -1.1121
11227TIP3    H255173   5.375   6.259   3.996  0.3886 -0.3939  1.4757
11228TIP3   OH255174   2.489   2.571  11.747  0.1364  0.4532  0.7152
11228TIP3    H155175   2.434   2.558  11.671  1.5809 -0.3906 -0.2254
11228TIP3    H255176   2.456   2.509  11.812 -0.5182  0.5366  0.4701
11229TIP3   OH255177   4.305   5.102   1.701 -0.8020 -0.4168 -0.2190
11229TIP3    H155178   4.327   5.138   1.615 -0.7630 -0.7362 -0.3425
11229TIP3    H255179   4.210   5.103   1.704 -0.8078  1.5683  0.5651
11230TIP3   OH255180   2.208   1.550   6.394  0.2152 -0.5852  0.0648
11230TIP3    H155181   2.145   1.599   6.445 -0.6013 -1.0650 -0.4581
11230TIP3    H255182   2.161   1.527   6.313 -0.2207 -4.0150  1.1142
11231TIP3   OH255183   5.034   0.582   3.742 -0.6841 -0.8452 -0.6659
11231TIP3    H155184   5.123   0.602   3.712 -0.1469 -3.2123 -0.8810
11231TIP3    H255185   5.037   0.596   3.837 -0.6265  0.7673 -0.8783
11232TIP3   OH255186   6.033   0.627  12.986 -0.8127  0.2048 -0.0206
11232TIP3    H155187   6.040   0.572  12.908  1.1673  0.0254  0.2326
11232TIP3    H255188   5.940   0.627  13.007 -1.2153 -0.7838 -1.6357
11233TIP3   OH255189   5.709   3.225  14.091 -0.0568 -0.4512  0.2691
11233TIP3    H155190   5.767   3.283  14.140 -0.1825  1.4883 -1.7346
11233TIP3    H255191   5.621   3.244  14.125 -0.1019  0.6183 -0.4034
11234TIP3   OH255192   1.292   2.660  13.211  0.6023  0.3250  0.0259
11234TIP3    H155193   1.259   2.740  13.170 -0.2341 -0.0300 -0.0221
11234TIP3    H255194   1.383   2.680  13.233  0.3654  1.3350  0.1440
11235TIP3   OH255195   3.250   3.880  14.238  0.1747 -0.2954 -0.6546
11235TIP3    H155196   3.224   3.912  14.151 -2.1526 -0.7880 -0.2173
11235TIP3    H255197   3.309   3.808  14.220  1.2228  0.7775 -1.7606
11236TIP3   OH255198   6.239   6.401  13.830 -0.2466 -0.4247 -0.0866
11236TIP3    H155199   6.261   6.494  13.829  0.3630 -0.5680 -0.9308
11236TIP3    H255200   6.292   6.365  13.901 -0.0183 -0.2375 -0.1602
11237TIP3   OH255201   3.725   5.463  12.960 -0.4385  0.1569  0.2909
11237TIP3    H155202   3.641   5.480  12.918 -1.2463 -1.8898  0.9130
11237TIP3    H255203   3.706   5.465  13.053 -0.1852 -1.8323  0.4248
11238TIP3   OH255204   2.251   4.539  12.171  0.2307 -0.4165  0.3531
11238TIP3    H155205   2.338   4.514  12.139  0.0648 -0.2431 -0.2461
11238TIP3    H255206   2.203   4.564  12.092 -0.3736 -0.5368  0.6800
11239TIP3   OH255207   3.957   6.779  11.266 -0.4585 -0.3170 -0.4067
11239TIP3    H155208   4.004   6.759  11.185  0.5368  0.8816 -0.1573
11239TIP3    H255209   3.891   6.711  11.273 -1.7813  0.5215 -3.1823
11240TIP3   OH255210   4.346   6.282  13.632  0.0960  0.1207 -0.0238
11240TIP3    H155211   4.266   6.328  13.606  0.6896  0.5723 -1.1150
11240TIP3    H255212   4.414   6.318  13.575  0.5720 -2.2247 -1.0418
11241TIP3   OH255213   1.712   1.437   4.103 -0.0471  0.3530 -0.3960
11241TIP3    H155214   1.629   1.418   4.146 -1.1682  0.7481 -2.2567
11241TIP3    H255215   1.763   1.483   4.169 -0.6556 -1.3076  1.3176
11242TIP3   OH255216   1.820   1.501  11.893  0.2171  0.0796  0.0087
11242TIP3    H155217   1.840   1.590  11.921 -0.9305  0.2781  0.2670
11242TIP3    H255218   1.726   1.492  11.910  0.8264 -2.2419  3.0008
11243TIP3   OH255219   4.792   1.266   0.855  0.6316  0.4413  0.0918
11243TIP3    H155220   4.726   1.198   0.868  0.7340  0.6313  1.8687
11243TIP3    H255221   4.818   1.257   0.763 -0.8816 -0.5098 -0.2831
11244TIP3   OH255222   0.562   2.527  15.332  0.2412  0.3987 -0.4651
11244TIP3    H155223   0.546   2.602  15.274 -0.3743  1.4172  0.9627
11244TIP3    H255224   0.657   2.526  15.345  0.1269  2.0435  0.8592
11245TIP3   OH255225   2.391   4.910  12.503  0.5481 -0.2830  0.7765
11245TIP3    H155226   2.453   4.941  12.569  1.3526 -0.8887  0.3100
11245TIP3    H255227   2.420   4.822  12.482  0.9974  0.3036 -1.2286
11246TIP3   OH255228   0.667   5.420  15.998 -0.4073 -0.1884  0.3274
11246TIP3    H155229   0.740   5.372  15.959 -0.3098  1.3496 -1.5460
11246TIP3    H255230   0.698   5.446  16.085 -0.0752 -2.4963  0.9555
11247TIP3   OH255231   1.592   6.433  13.597 -0.3563 -0.3912  0.7421
11247TIP3    H155232   1.620   6.417  13.506 -1.4057  1.3950  0.0434
11247TIP3    H255233   1.600   6.528  13.607  1.1586 -0.6908  3.0497
11248TIP3   OH255234   2.639   2.500   2.846  0.6809 -0.2772  0.1180
11248TIP3    H155235   2.690   2.435   2.894  2.3598  0.7299 -0.1951
11248TIP3    H255236   2.566   2.522   2.904  0.6569 -1.6839  0.6364
11249TIP3   OH255237   4.233   0.432  14.960 -0.3636 -0.4992  0.2903
11249TIP3    H155238   4.196   0.385  14.885  0.0474  0.8986 -0.8466
11249TIP3    H255239   4.167   0.496  14.983 -0.1664 -0.4179  0.6366
11250TIP3   OH255240   1.032   3.557   0.616 -0.3445 -0.4089  0.6191
11250TIP3    H155241   0.938   3.561   0.634 -0.5253 -2.6117  0.3309
11250TIP3    H255242   1.039   3.518   0.529  0.8511 -0.9703  0.9414
11251TIP3   OH255243   2.172   6.215   3.733 -0.1583  0.4961  0.1741
11251TIP3    H155244   2.139   6.129   3.708  0.6071  0.1962  0.1549
11251TIP3    H255245   2.252   6.226   3.681  0.6244  0.5217  1.3568
11252TIP3   OH255246   5.460   1.277  11.778 -0.5762  0.3131 -0.1639
11252TIP3    H155247   5.483   1.198  11.826 -0.9929 -0.1637 -0.7461
11252TIP3    H255248   5.527   1.284  11.710 -1.2205 -0.1962 -0.8570
11253TIP3   OH255249   6.407   3.336  14.526 -0.0150 -0.4987  0.3836
11253TIP3    H155250   6.466   3.305  14.457 -1.4396 -0.9134 -0.7108
11253TIP3    H255251   6.350   3.399  14.481 -0.5226 -0.2443  1.3672
11254TIP3   OH255252   6.252   2.303  11.646  0.0975  0.3708 -0.0412
11254TIP3    H155253   6.254   2.214  11.610 -1.4799  0.6132 -0.8386
11254TIP3    H255254   6.331   2.310  11.698 -0.9191 -2.3725  2.1290
11255TIP3   OH255255   0.056   1.736   2.486  0.3617 -0.0742  0.6820
11255TIP3    H155256   0.070   1.696   2.401 -0.5536 -0.3527  0.6520
11255TIP3    H255257   0.114   1.812   2.487  1.8611 -1.1746  0.5975
11256TIP3   OH255258   2.813   1.750   0.694 -0.2846 -0.0114 -0.2035
11256TIP3    H155259   2.849   1.681   0.638 -0.1079 -0.2969  0.2571
11256TIP3    H255260   2.776   1.702   0.768  0.2152  0.4216  0.3265
11257TIP3   OH255261   1.526   5.248   4.390 -0.2490  0.3413  0.5766
11257TIP3    H155262   1.504   5.243   4.483  0.7512 -0.0713  0.8024
11257TIP3    H255263   1.589   5.321   4.385 -0.5503  0.5741  0.1715
11258TIP3   OH255264   6.319   5.114   0.919  0.6651  0.4364  0.1298
11258TIP3    H155265   6.368   5.158   0.987  0.8216  0.0082  0.2977
11258TIP3    H255266   6.378   5.046   0.886  0.3456  0.2012  0.0349
11259TIP3   OH255267   1.366   1.247   6.450  0.1571  0.0857  0.2028
11259TIP3    H155268   1.309   1.174   6.425  0.2886  0.3363 -0.8617
11259TIP3    H255269   1.305   1.318   6.471  0.0425 -0.1444  0.6572
11260TIP3   OH255270   6.038   6.529  16.556  0.4247  0.0016  0.2772
11260TIP3    H155271   6.045   6.473  16.478 -1.0855 -0.1161  0.1956
11260TIP3    H255272   6.061   6.616  16.524 -2.0676  0.3520 -0.8628
11261TIP3   OH255273   4.045   2.797   5.458 -0.0292 -0.0311 -0.0223
11261TIP3    H155274   4.102   2.873   5.462  1.1019 -0.7520 -1.5934
11261TIP3    H255275   4.079   2.745   5.385 -2.9521 -0.2765 -1.3435
11262TIP3   OH255276   0.644   1.552   2.642  0.5804  0.2352  0.4596
11262TIP3    H155277   0.596   1.476   2.675 -1.6047  2.2547  2.3384
11262TIP3    H255278   0.709   1.570   2.710 -0.4233  1.3101  1.1759
11263TIP3   OH255279   4.609   4.921  14.824  0.2361 -0.3446  0.6287
11263TIP3    H155280   4.588   4.958  14.739  1.6897  0.4820  0.5867
11263TIP3    H255281   4.598   4.993  14.886 -2.5447 -1.3740  1.4773
11264TIP3   OH255282   0.998   4.002  12.214 -0.3072 -0.6981  0.1337
11264TIP3    H155283   0.975   4.025  12.304  0.9733 -0.2825  0.3864
11264TIP3    H255284   1.090   3.974  12.220  0.1618  0.4530 -1.2072
11265TIP3   OH255285   2.395   6.258  12.237  0.3768 -0.2139 -0.0508
11265TIP3    H155286   2.336   6.275  12.163 -0.8494 -0.4138  0.8485
11265TIP3    H255287   2.463   6.325  12.230 -1.3615  1.7004  0.3334
11266TIP3   OH255288   1.387   5.241   0.350  0.3353 -0.5998  0.9016
11266TIP3    H155289   1.320   5.211   0.288 -1.0756  2.6899  0.6489
11266TIP3    H255290   1.348   5.225   0.436  0.8653 -2.0727  0.8956
11267TIP3   OH255291   3.433   2.133   4.510  0.2843 -0.1825  0.5505
11267TIP3    H155292   3.506   2.175   4.465 -0.6970  1.1576  0.1520
11267TIP3    H255293   3.447   2.040   4.497  3.3887 -0.1805  2.7510
11268TIP3   OH255294   5.309   2.394   0.518 -0.4563  0.2351 -0.0341
11268TIP3    H155295   5.223   2.425   0.545 -1.3992  0.1322 -2.6515
11268TIP3    H255296   5.316   2.418   0.426  1.6846 -1.1403 -0.3126
11269TIP3   OH255297   3.944   1.145   6.960 -0.0142 -0.3379  0.1222
11269TIP3    H155298   3.969   1.065   6.915 -2.2491 -1.5791  0.9440
11269TIP3    H255299   3.867   1.176   6.912  0.8539  1.3978 -0.2286
11270TIP3   OH255300   1.319   6.131   3.973 -0.3000 -0.7002  0.6944
11270TIP3    H155301   1.379   6.118   3.900  1.0349 -0.1754  1.6368
11270TIP3    H255302   1.236   6.155   3.933  0.3126 -0.7273 -0.6471
11271TIP3   OH255303   4.205   1.424  11.747 -0.4571 -0.2110 -0.3823
11271TIP3    H155304   4.213   1.519  11.750  0.2875 -0.2501 -0.8564
11271TIP3    H255305   4.251   1.399  11.667 -0.3675 -0.9956 -0.0931
11272TIP3   OH255306   0.975   0.257   5.413  0.0321 -0.3111  0.2027
11272TIP3    H155307   1.007   0.180   5.366  0.4382 -0.8554  1.3208
11272TIP3    H255308   1.043   0.275   5.478 -0.6755  0.1968  0.8184
11273TIP3   OH255309   2.600   6.772  15.687  0.2529  0.5035  0.2355
11273TIP3    H155310   2.615   6.823  15.607  2.7220 -0.1108  0.2443
11273TIP3    H255311   2.547   6.697  15.659 -0.5202  1.2643 -0.4133
11274TIP3   OH255312   6.114   4.144  15.960 -0.1656  0.4477 -0.1766
11274TIP3    H155313   6.112   4.116  16.051 -0.1845  3.4396  0.8599
11274TIP3    H255314   6.202   4.180  15.948 -1.0225  2.5758 -0.4453
11275TIP3   OH255315   4.955   2.015  14.463  0.2028 -0.5236  0.0041
11275TIP3    H155316   5.006   1.981  14.389 -0.3690 -1.6486  0.1110
11275TIP3    H255317   4.937   1.938  14.517 -3.8254 -0.7178 -1.3215
11276TIP3   OH255318   3.231   5.172  12.377  0.1102  0.0760  0.0992
11276TIP3    H155319   3.195   5.172  12.465 -0.1453  1.1886  0.0107
11276TIP3    H255320   3.321   5.143  12.388 -0.2759 -1.0126  0.5501
11277TIP3   OH255321   2.617   1.819   0.521 -0.6070  0.2164  0.4326
11277TIP3    H155322   2.693   1.865   0.485  0.6687 -2.0709  0.0411
11277TIP3    H255323   2.634   1.814   0.615  0.3011 -1.2153  0.2166
11278TIP3   OH255324   4.639   2.636  11.648 -0.4050  0.3323  0.0781
11278TIP3    H155325   4.619   2.687  11.569 -0.7416 -2.0952 -1.5164
11278TIP3    H255326   4.729   2.660  11.670 -0.3705  1.2116 -0.9181
11279TIP3   OH255327   5.220   5.886   2.102  0.2409  0.1412 -0.2180
11279TIP3    H155328   5.204   5.792   2.094 -2.3728  0.4718  0.1055
11279TIP3    H255329   5.270   5.895   2.183 -0.4696 -0.9295  0.3740
11280TIP3   OH255330   3.775   5.238  16.961  0.0557 -0.4122  0.1945
11280TIP3    H155331   3.770   5.159  17.016  1.5514 -1.6733 -1.3718
11280TIP3    H255332   3.689   5.279  16.970 -1.0987 -2.7179  0.3603
11281TIP3   OH255333   3.078   3.412   6.618 -0.4851 -0.8898  0.7763
11281TIP3    H155334   3.007   3.407   6.681 -2.5803 -0.0303 -1.3880
11281TIP3    H255335   3.083   3.324   6.580 -0.1993 -1.0222  1.1178
11282TIP3   OH255336   3.608   4.042  13.489  0.2863 -0.2546  0.5017
11282TIP3    H155337   3.675   4.051  13.556  2.2806  1.0823 -1.5003
11282TIP3    H255338   3.536   4.098  13.518 -0.0598 -1.7331  2.7083
11283TIP3   OH255339   5.195   2.883  15.659 -0.4400  0.2081  0.0978
11283TIP3    H155340   5.191   2.789  15.673  0.3332  0.1557  0.0121
11283TIP3    H255341   5.171   2.921  15.743 -0.1324 -0.0690  0.3098
11284TIP3   OH255342   0.071   4.723  11.428 -0.1469  0.2311  0.3867
11284TIP3    H155343   0.154   4.766  11.449 -0.7047  0.6555  1.8857
11284TIP3    H255344   0.058   4.661  11.499 -1.3658  0.5461  0.4500
11285TIP3   OH255345   2.315   1.527   0.165  0.1051  0.2635  0.1723
11285TIP3    H155346   2.384   1.513   0.230  1.6235 -0.1361 -1.4646
11285TIP3    H255347   2.285   1.438   0.143  0.7930  0.2797 -0.8888
11286TIP3   OH255348   0.331   0.654   2.148  0.3298 -0.7131  0.0491
11286TIP3    H155349   0.419   0.657   2.111  0.9357  0.3175  1.4849
11286TIP3    H255350   0.330   0.724   2.212 -1.0255 -1.7344  1.1955
11287TIP3   OH255351   0.781   0.156   1.824  0.0754  0.6713 -0.2565
11287TIP3    H155352   0.707   0.159   1.763 -1.1046  0.2789  1.0945
11287TIP3    H255353   0.787   0.064   1.849  1.0265  0.7030 -0.3156
11288TIP3   OH255354   5.849   5.028   0.308 -0.2605 -0.3743 -0.4260
11288TIP3    H155355   5.827   5.045   0.217 -0.5087 -0.2457 -0.3413
11288TIP3    H255356   5.929   5.078   0.324 -0.4092 -0.1229 -0.4748
11289TIP3   OH255357   3.965   4.029  15.679 -0.0899 -0.0603  0.2722
11289TIP3    H155358   3.950   4.021  15.584  1.8158 -0.2850 -0.0534
11289TIP3    H255359   4.049   4.075  15.686 -1.5176  2.5676  1.9172
11290TIP3   OH255360   0.965   1.417   4.941  0.1707  0.0140  0.2202
11290TIP3    H155361   0.986   1.395   5.032  2.0900  1.7490  0.2873
11290TIP3    H255362   0.959   1.333   4.896 -1.5221 -0.9198  2.0471
11291TIP3   OH255363   0.304   3.625   3.533 -0.0884  0.2433 -0.1813
11291TIP3    H155364   0.320   3.648   3.624  0.8473 -0.0403 -0.2629
11291TIP3    H255365   0.214   3.652   3.517 -0.4922 -0.3155  1.0222
11292TIP3   OH255366   2.944   3.952  17.264 -0.3196 -0.0149 -0.0110
11292TIP3    H155367   2.974   4.015  17.330 -2.0309 -0.2501  1.0554
11292TIP3    H255368   3.022   3.899  17.244  0.8126  1.5418  0.0693
11293TIP3   OH255369   1.488   2.550   2.463 -0.4179  0.0646 -0.1531
11293TIP3    H155370   1.467   2.643   2.466 -1.9669 -0.2734  0.5371
11293TIP3    H255371   1.412   2.510   2.421 -0.0391 -0.9663  0.1146
11294TIP3   OH255372   4.775   4.580  17.061  0.2936 -0.2457  0.2277
11294TIP3    H155373   4.832   4.579  16.985  0.9255 -2.7280  0.6708
11294TIP3    H255374   4.712   4.650  17.042 -0.6530 -1.8279 -3.3963
11295TIP3   OH255375   3.670   0.170  11.551 -0.1138 -0.0117 -0.6893
11295TIP3    H155376   3.766   0.171  11.553 -0.0831 -0.8910 -1.1576
11295TIP3    H255377   3.646   0.253  11.509  0.4819 -0.2506 -1.5331
11296TIP3   OH255378   0.797   6.348  15.307  0.3845 -0.0877  0.0698
11296TIP3    H155379   0.767   6.341  15.217  0.9206  0.5022 -0.1646
11296TIP3    H255380   0.783   6.440  15.330 -1.2331 -0.5649  1.1388
11297TIP3   OH255381   6.499   4.030  15.682  0.0874  0.2527 -0.2112
11297TIP3    H155382   6.509   4.034  15.777  1.3701 -1.4599 -0.2272
11297TIP3    H255383   6.557   3.959  15.655  0.6920  1.4920 -2.4101
11298TIP3   OH255384   3.645   5.224   5.910  0.6386  0.4698 -0.0376
11298TIP3    H155385   3.717   5.162   5.910  2.2286  2.2176  0.6485
11298TIP3    H255386   3.603   5.213   5.995  0.4803 -0.0976 -0.1829
11299TIP3   OH255387   3.712   1.561   2.788 -0.3812 -0.0920  0.5120
11299TIP3    H155388   3.764   1.591   2.713 -0.5131 -2.7470 -0.7721
11299TIP3    H255389   3.655   1.635   2.810  2.0584  1.9775  0.2784
11300TIP3   OH255390   0.246   3.504   0.935 -0.0263  0.3140  0.3319
11300TIP3    H155391   0.167   3.491   0.882 -0.3242  1.1127  0.5607
11300TIP3    H255392   0.231   3.452   1.014  0.2216 -0.5201 -0.1636
11301TIP3   OH255393   1.162   5.804   0.095  0.2000  0.2065  0.0117
11301TIP3    H155394   1.201   5.783   0.180 -0.3957  1.2883  0.5706
11301TIP3    H255395   1.215   5.876   0.061 -0.8443  1.2081  0.4532
11302TIP3   OH255396   6.461   6.014   0.339 -0.1551  0.2850  0.5958
11302TIP3    H155397   6.427   6.074   0.272  0.3472  0.2534  0.3030
11302TIP3    H255398   6.519   6.068   0.392 -0.8730  0.4050  1.2655
11303TIP3   OH255399   3.936   3.442  11.241 -0.3023  0.0455 -0.1292
11303TIP3    H155400   3.966   3.472  11.155  1.6005 -1.5615 -0.1086
11303TIP3    H255401   3.891   3.360  11.223 -0.9732  0.3096  0.3093
11304TIP3   OH255402   5.865   3.099   2.808 -0.7528 -0.0412  0.3250
11304TIP3    H155403   5.857   3.193   2.827 -1.2009 -0.0546  0.2073
11304TIP3    H255404   5.959   3.082   2.814 -0.4288  0.8276 -1.5784
11305TIP3   OH255405   5.248   4.688   1.892 -0.2208 -0.3784 -0.2410
11305TIP3    H155406   5.341   4.681   1.869 -0.0870  2.0368 -0.6884
11305TIP3    H255407   5.210   4.739   1.821 -1.0066  2.2653  1.9368
11306TIP3   OH255408   2.154   3.086  16.342  0.5337  0.9590 -0.5393
11306TIP3    H155409   2.235   3.071  16.391  0.3144  0.8330 -0.2132
11306TIP3    H255410   2.104   3.147  16.396  0.2577  0.7598 -0.5685
11307TIP3   OH255411   1.743   2.891   4.546  0.4271 -0.4400  0.1092
11307TIP3    H155412   1.709   2.944   4.618 -1.3462 -1.5291  0.1202
11307TIP3    H255413   1.772   2.956   4.481 -3.6368  0.7168 -0.7952
11308TIP3   OH255414   4.173   4.727  17.499 -0.0336  0.0135 -0.1730
11308TIP3    H155415   4.177   4.636  17.470  0.8366  0.0674 -0.2790
11308TIP3    H255416   4.111   4.728  17.571 -1.5149 -0.3160 -1.3874
11309TIP3   OH255417   2.597   0.224   1.008  0.1416  0.2742  0.3442
11309TIP3    H155418   2.554   0.270   0.936  1.7389  0.8133 -0.3166
11309TIP3    H255419   2.592   0.131   0.984 -2.7369  0.0351  1.4861
11310TIP3   OH255420   6.655   3.374   3.182 -0.3687 -0.7711 -0.0317
11310TIP3    H155421   6.695   3.376   3.095 -2.3006 -2.9127 -1.0536
11310TIP3    H255422   6.622   3.463   3.195 -0.5942 -0.5579 -1.7847
11311TIP3   OH255423   1.026   3.718  14.903  0.4511  0.2863 -0.1499
11311TIP3    H155424   0.956   3.657  14.925  0.7709 -0.3839 -0.9612
11311TIP3    H255425   1.071   3.733  14.986  0.8884 -1.2423 -0.0900
11312TIP3   OH255426   5.097   0.454  12.927  0.0140 -0.0962 -0.2680
11312TIP3    H155427   5.160   0.403  12.977 -0.1149  0.0832  0.0850
11312TIP3    H255428   5.038   0.389  12.888  0.0270 -0.2331 -0.0630
11313TIP3   OH255429   3.358   5.926  16.650 -0.1640 -0.0929  0.2515
11313TIP3    H155430   3.452   5.939  16.659 -0.1643 -0.3639  0.6717
11313TIP3    H255431   3.319   6.009  16.679 -0.0749 -0.2076  0.7179
11314TIP3   OH255432   1.982   5.142  14.932  0.4206  0.0958 -0.2175
11314TIP3    H155433   1.914   5.079  14.956 -1.1206  1.1050 -1.6597
11314TIP3    H255434   2.047   5.135  15.001 -1.2125 -0.8369  1.3069
11315TIP3   OH255435   1.027   3.375   5.819 -0.5286 -0.4545  0.4817
11315TIP3    H155436   0.940   3.403   5.848  0.0884  1.5904  0.4931
11315TIP3    H255437   1.052   3.307   5.882 -1.3488  0.2455  1.6003
11316TIP3   OH255438   2.892   4.915  12.504 -0.0579  0.7004  0.3271
11316TIP3    H155439   2.884   4.930  12.598  0.7324  1.1396  0.3335
11316TIP3    H255440   2.967   4.858  12.495 -2.0633 -2.1192  0.1681
11317TIP3   OH255441   5.071   4.513   2.656 -0.3692 -0.0816 -0.2343
11317TIP3    H155442   5.060   4.491   2.749 -0.5509  2.5492  0.4338
11317TIP3    H255443   4.984   4.543   2.629  0.3661  2.0704 -0.3664
11318TIP3   OH255444   2.569   0.816  16.293 -0.1662  0.1663  0.3964
11318TIP3    H155445   2.640   0.879  16.307 -0.2689  0.0762  1.3321
11318TIP3    H255446   2.489   0.865  16.310 -0.2472 -0.2075  1.0972
11319TIP3   OH255447   0.401   4.440  14.005  0.0453 -0.4252  0.2549
11319TIP3    H155448   0.321   4.488  14.027 -0.5397 -0.7239 -1.0966
11319TIP3    H255449   0.455   4.503  13.957  0.5043 -0.3113  0.9084
11320TIP3   OH255450   2.405   3.135  15.406  0.8557 -0.3355  0.2943
11320TIP3    H155451   2.361   3.126  15.490  0.4611  0.3298  0.1675
11320TIP3    H255452   2.478   3.074  15.410  1.4557  0.4202  1.5205
11321TIP3   OH255453   1.213   6.528   5.309  0.2080 -0.4240 -0.0225
11321TIP3    H155454   1.146   6.590   5.339  1.5287  1.2156 -0.2743
11321TIP3    H255455   1.269   6.515   5.385  1.5477  0.9825 -0.7016
11322TIP3   OH255456   6.537   4.941  13.436  0.1267  0.0030  0.3087
11322TIP3    H155457   6.493   4.991  13.366 -2.0043 -1.4459  0.5374
11322TIP3    H255458   6.600   4.887  13.390  0.4231  0.7781 -0.2292
11323TIP3   OH255459   6.500   2.135   3.570  0.1819  0.8646  0.6844
11323TIP3    H155460   6.492   2.230   3.576 -0.4300  0.8412  0.2081
11323TIP3    H255461   6.513   2.107   3.661  0.5823  1.4159  0.8030
11324TIP3   OH255462   3.078   5.109   5.957  0.1219  0.3637 -0.0984
11324TIP3    H155463   3.111   5.178   5.899  0.4990 -0.0036 -0.3301
11324TIP3    H255464   3.096   5.141   6.045  1.1439  0.1660 -0.2189
11325TIP3   OH255465   4.718   5.974   0.501 -0.3186  0.7316  0.2773
11325TIP3    H155466   4.714   5.974   0.405  0.7298 -0.2835  0.2140
11325TIP3    H255467   4.774   6.049   0.522 -1.4264  1.6137  0.1665
11326TIP3   OH255468   0.084   2.270  14.102  1.0062 -0.5858  0.0648
11326TIP3    H155469   0.130   2.329  14.042  1.4877  0.2432  1.2073
11326TIP3    H255470   0.000   2.313  14.119  0.6529 -1.0741 -0.3981
11327TIP3   OH255471   5.011   0.563  13.238 -0.1707 -0.8030  0.3805
11327TIP3    H155472   5.054   0.640  13.275  1.0425 -1.6414  0.7797
11327TIP3    H255473   5.082   0.501  13.223 -1.3320 -2.5837  1.8915
11328TIP3   OH255474   3.949   2.331  12.592  0.3469 -0.2767  0.0766
11328TIP3    H155475   3.881   2.366  12.649 -1.0635  0.5354 -1.9832
11328TIP3    H255476   3.907   2.257  12.548  0.9872 -0.1678 -0.7402
11329TIP3   OH255477   5.655   3.780  14.871 -0.0576 -0.5724  0.0219
11329TIP3    H155478   5.570   3.761  14.832 -0.9126  0.5911  1.2349
11329TIP3    H255479   5.676   3.701  14.921 -0.3442 -0.9246 -0.4040
11330TIP3   OH255480   2.549   6.117   0.228 -0.8967 -0.3863  0.1032
11330TIP3    H155481   2.634   6.109   0.272 -0.3475  2.2368 -0.3145
11330TIP3    H255482   2.486   6.119   0.300 -0.3086  0.6329  0.6122
11331TIP3   OH255483   6.061   2.173  14.189  0.0428  0.3613  0.0323
11331TIP3    H155484   6.147   2.179  14.230  0.3362 -0.5322 -0.4145
11331TIP3    H255485   6.064   2.091  14.139 -0.8474  0.6310 -0.4934
11332TIP3   OH255486   0.589   6.380   4.605  0.1363  0.5106  0.0625
11332TIP3    H155487   0.577   6.294   4.565  2.1427  0.5210 -0.6209
11332TIP3    H255488   0.610   6.438   4.533 -1.2599  1.6320  0.5086
11333TIP3   OH255489   1.664   4.520   1.759  0.3920  0.0424  0.1738
11333TIP3    H155490   1.725   4.590   1.736  1.5542 -0.6296  1.0767
11333TIP3    H255491   1.719   4.441   1.760 -0.4468 -0.5473  1.2256
11334TIP3   OH255492   4.552   4.960  13.233 -0.0093  0.2284  0.2727
11334TIP3    H155493   4.492   4.932  13.164  1.3330  0.0062 -0.8497
11334TIP3    H255494   4.631   4.908  13.218  1.2123  1.9760  0.4200
11335TIP3   OH255495   2.927   4.093   5.002 -0.4195 -0.6431 -0.5063
11335TIP3    H155496   2.977   4.159   5.051 -2.7609  2.2484 -1.7273
11335TIP3    H255497   2.844   4.087   5.049 -1.1578 -0.8775 -1.8118
11336TIP3   OH255498   0.078   4.484  14.224 -0.3248  0.4731 -0.0326
11336TIP3    H155499   0.024   4.460  14.299 -0.1433  1.0855  0.3058
11336TIP3    H255500   0.141   4.547  14.260  1.6360 -1.3482 -0.0538
11337TIP3   OH255501   5.536   2.436  13.396  0.2815 -0.1014  0.6084
11337TIP3    H155502   5.474   2.415  13.466 -0.6529 -0.0586 -0.1860
11337TIP3    H255503   5.557   2.351  13.357 -0.8239  0.0499 -0.3809
11338TIP3   OH255504   4.038   4.432   0.641  0.0218 -0.0707  1.2551
11338TIP3    H155505   4.020   4.453   0.733  0.4869 -1.5871  1.7358
11338TIP3    H255506   4.055   4.337   0.642 -0.3058 -0.1675 -0.4553
11339TIP3   OH255507   4.989   5.446  15.981 -0.0388  0.0234 -0.6492
11339TIP3    H155508   4.898   5.417  15.981  0.4295 -1.5866  0.5194
11339TIP3    H255509   4.987   5.533  15.942 -2.3157  0.7464  0.8913
11340TIP3   OH255510   1.425   4.438  12.945  0.6038  0.0892 -0.4623
11340TIP3    H155511   1.367   4.510  12.919 -0.8344 -1.2332 -1.0309
11340TIP3    H255512   1.445   4.456  13.037 -1.0868  0.3598 -0.1154
11341TIP3   OH255513   3.638   3.009   1.911 -0.3707  0.1026 -0.3428
11341TIP3    H155514   3.564   2.956   1.881 -1.7880  1.5573  0.3632
11341TIP3    H255515   3.616   3.032   2.002  0.1734  1.8162 -0.5961
11342TIP3   OH255516   6.281   6.606   3.112 -0.1173 -0.7757 -0.6427
11342TIP3    H155517   6.190   6.616   3.084 -0.4764  0.8326  0.9540
11342TIP3    H255518   6.281   6.631   3.204  1.8920 -1.0471 -0.5270
11343TIP3   OH255519   0.754   6.011   4.156 -0.5196  0.3744  0.2073
11343TIP3    H155520   0.751   5.929   4.107  1.7370 -1.2132  2.4381
11343TIP3    H255521   0.665   6.046   4.150 -1.9644 -2.9342  0.1948
11344TIP3   OH255522   5.258   6.677  16.485 -0.7403  0.3985 -0.2332
11344TIP3    H155523   5.169   6.642  16.487 -0.6971  0.2944  0.0078
11344TIP3    H255524   5.313   6.601  16.501 -0.6858  0.7081  1.2188
11345TIP3   OH255525   2.682   0.718  17.441  0.0248  0.3778  0.2674
11345TIP3    H155526   2.710   0.804  17.410  1.0231  0.5623  1.5725
11345TIP3    H255527   2.599   0.735  17.486 -0.4626  0.4214 -0.6364
11346TIP3   OH255528   4.056   2.450  11.921  0.0943  0.1298 -0.4886
11346TIP3    H155529   3.968   2.480  11.940  0.6975  1.9366 -0.3690
11346TIP3    H255530   4.113   2.521  11.950  1.6547 -1.3001  0.1322
11347TIP3   OH255531   1.950   2.866   5.706 -0.2497  0.7087  0.0056
11347TIP3    H155532   1.874   2.916   5.736 -1.3715 -0.6672 -0.4171
11347TIP3    H255533   1.930   2.775   5.730  0.8679  0.1974 -0.8976
11348TIP3   OH255534   0.419   2.969   6.107  0.3476 -0.4096 -0.4401
11348TIP3    H155535   0.492   2.908   6.100 -0.2441 -1.1000 -0.7972
11348TIP3    H255536   0.431   3.012   6.191 -0.0010 -2.0593  0.4958
11349TIP3   OH255537   6.284   6.057   1.718 -0.1338 -0.1499 -0.3243
11349TIP3    H155538   6.334   6.102   1.650 -0.6834  1.0170  0.0124
11349TIP3    H255539   6.315   5.966   1.715  1.6155  0.4190 -0.4540
11350TIP3   OH255540   2.681   4.727   1.942  0.2462 -0.2022 -0.2506
11350TIP3    H155541   2.697   4.722   1.848  1.7885  0.8021 -0.0801
11350TIP3    H255542   2.657   4.818   1.958 -1.3795 -0.6756  0.1661
11351TIP3   OH255543   1.061   5.298  13.872  0.0854  0.1415 -0.0799
11351TIP3    H155544   1.110   5.227  13.832 -0.1554  0.4143 -0.8847
11351TIP3    H255545   1.098   5.378  13.834 -1.0113  0.3487 -0.7645
11352TIP3   OH255546   4.407   5.819  14.974  0.2198 -0.2949  0.0445
11352TIP3    H155547   4.332   5.877  14.960  1.0184  0.5998 -0.6986
11352TIP3    H255548   4.433   5.836  15.065  1.2788  1.6054 -0.5511
11353TIP3   OH255549   2.475   3.730   3.052 -0.0724  0.6776  0.2061
11353TIP3    H155550   2.453   3.770   2.967  1.0023 -2.5256 -1.7692
11353TIP3    H255551   2.390   3.712   3.092 -0.6285  1.6069 -0.4950
11354TIP3   OH255552   5.532   2.944   1.783  0.0794  0.1428  0.4677
11354TIP3    H155553   5.455   2.924   1.729 -0.9778  2.4590  0.9913
11354TIP3    H255554   5.607   2.932   1.724 -0.8369 -0.0515 -0.6852
11355TIP3   OH255555   2.727   5.473  12.019 -0.2698 -0.3531 -0.4350
11355TIP3    H155556   2.705   5.400  11.961 -0.1155 -0.8528  0.1228
11355TIP3    H255557   2.813   5.451  12.054  0.2607  0.6200 -1.0677
11356TIP3   OH255558   4.700   6.493   2.938  0.1654 -0.5834 -0.1761
11356TIP3    H155559   4.781   6.468   2.894  0.4380 -0.3527  0.1840
11356TIP3    H255560   4.631   6.450   2.888  0.5537 -1.3006 -0.1071
11357TIP3   OH255561   4.796   4.561   1.480  0.1878 -0.2873  0.5108
11357TIP3    H155562   4.850   4.539   1.404 -0.6576 -1.1163  0.1206
11357TIP3    H255563   4.840   4.636   1.520  0.6496  0.1782 -0.8055
11358TIP3   OH255564   2.656   2.524  12.774  0.4552 -0.2933  0.4789
11358TIP3    H155565   2.653   2.616  12.799  1.0265 -0.2811  0.5091
11358TIP3    H255566   2.672   2.477  12.856  1.6889 -0.3007  0.2493
11359TIP3   OH255567   0.083   1.850  12.686  0.0557 -0.0452  0.3781
11359TIP3    H155568   0.130   1.788  12.630  1.2806  0.1627  1.1435
11359TIP3    H255569   0.122   1.839  12.772 -0.7895  0.6956  0.8699
11360TIP3   OH255570   0.905   1.066   0.907  0.0659  1.0822  0.2164
11360TIP3    H155571   0.947   1.001   0.964  0.9243  2.4906  1.2761
11360TIP3    H255572   0.916   1.032   0.819  0.8774  0.0141  0.7067
11361TIP3   OH255573   0.024   2.736  13.225  0.0743  0.6107  0.2444
11361TIP3    H155574  -0.055   2.773  13.188 -1.8716 -2.3760  1.0567
11361TIP3    H255575   0.089   2.741  13.155 -2.0666 -0.5738 -1.9503
11362TIP3   OH255576   3.655   1.557   0.114  0.1105  0.1654  0.3709
11362TIP3    H155577   3.628   1.486   0.055 -1.3928  0.9586  0.0652
11362TIP3    H255578   3.688   1.512   0.192 -0.5700 -0.8743  0.0811
11363TIP3   OH255579   4.180   4.132  12.975 -0.1180 -0.2161 -0.5468
11363TIP3    H155580   4.202   4.221  13.001 -0.5350 -0.6733  1.5223
11363TIP3    H255581   4.150   4.089  13.055 -0.1103 -2.1797 -1.5155
11364TIP3   OH255582   2.540   3.113   2.029 -0.0605 -0.4388 -0.0205
11364TIP3    H155583   2.541   3.190   1.972  0.7701  0.4655  1.1583
11364TIP3    H255584   2.500   3.044   1.976 -2.5138  1.2304 -0.5257
11365TIP3   OH255585   4.608   4.471  11.173 -0.2455 -0.4314  0.4093
11365TIP3    H155586   4.650   4.419  11.105  0.5245 -0.1035  0.6310
11365TIP3    H255587   4.606   4.560  11.138  0.6654 -0.1516  1.0319
11366TIP3   OH255588   0.635   2.236  16.774 -0.3918 -0.5387  0.3387
11366TIP3    H155589   0.555   2.261  16.727  1.4089 -0.5732 -3.0098
11366TIP3    H255590   0.646   2.143  16.755  0.6341 -0.4407  0.4237
11367TIP3   OH255591   4.996   4.326  16.614  0.0621  0.3238 -0.6055
11367TIP3    H155592   4.914   4.304  16.658  0.4071  0.4709  0.1269
11367TIP3    H255593   4.991   4.421  16.602  0.6978  0.5355  0.6576
11368TIP3   OH255594   1.466   2.028  13.331  0.0704  0.0425 -0.1235
11368TIP3    H155595   1.475   1.955  13.392 -2.2508 -1.7385 -1.7109
11368TIP3    H255596   1.443   2.103  13.386 -0.1075 -1.0409  1.3393
11369TIP3   OH255597   3.545   0.499   2.499 -0.3073 -0.0671 -0.2984
11369TIP3    H155598   3.549   0.578   2.552 -1.2671  0.0175 -0.3373
11369TIP3    H255599   3.598   0.519   2.421  0.0781  0.2472  0.0403
11370TIP3   OH255600   5.366   3.867  12.836 -0.2043  0.0623 -0.1176
11370TIP3    H155601   5.401   3.805  12.772  1.9918  1.1568 -0.0655
11370TIP3    H255602   5.295   3.911  12.789  0.7120  0.1384 -1.4967
11371TIP3   OH255603   4.095   1.686  14.473 -0.8482  0.2739 -0.0067
11371TIP3    H155604   4.101   1.613  14.536 -0.4795  1.1081  0.9470
11371TIP3    H255605   4.133   1.760  14.519  1.1134  0.5071 -1.8678
11372TIP3   OH255606   0.678   6.062   6.644 -0.1936  0.2573 -0.0032
11372TIP3    H155607   0.764   6.043   6.605 -1.7024 -2.5973 -2.4101
11372TIP3    H255608   0.627   5.983   6.627 -3.2698  1.7600  1.5240
11373TIP3   OH255609   5.307   6.146   0.719  0.1802 -0.4469 -0.4455
11373TIP3    H155610   5.221   6.110   0.741 -0.3588  0.6837 -0.6315
11373TIP3    H255611   5.289   6.237   0.694  1.8489  1.2952  3.7325
11374TIP3   OH255612   3.125   0.660   3.229 -0.5836  0.0335 -0.4268
11374TIP3    H155613   3.068   0.713   3.284  1.1842  1.6718 -0.0508
11374TIP3    H255614   3.090   0.670   3.140  0.0076  2.3972 -0.4683
11375TIP3   OH255615   1.225   1.690   4.339 -0.0071  0.2875  0.0959
11375TIP3    H155616   1.166   1.616   4.348 -1.5697  0.9229 -3.3104
11375TIP3    H255617   1.301   1.655   4.291  1.2869  0.0702  2.1600
11376TIP3   OH255618   2.793   1.884   2.972  0.1313  0.2994  0.1689
11376TIP3    H155619   2.778   1.977   2.986  1.2913  0.6688 -0.8157
11376TIP3    H255620   2.747   1.841   3.044  0.9293  1.7136  1.5928
11377TIP3   OH255621   6.143   0.752   4.173  0.3903  0.1981 -0.2457
11377TIP3    H155622   6.147   0.666   4.131 -1.1648  1.4550 -3.2614
11377TIP3    H255623   6.071   0.745   4.235  1.4965 -1.1614  0.9579
11378TIP3   OH255624   0.730   6.646   1.222  0.8188  0.3570  0.0233
11378TIP3    H155625   0.689   6.675   1.303  1.0288  0.3638  0.1256
11378TIP3    H255626   0.820   6.626   1.246  0.5155 -1.0264  0.1041
11379TIP3   OH255627   4.340   2.933  12.736  0.0632  0.1352  0.2157
11379TIP3    H155628   4.266   2.880  12.764 -0.3683  0.9128  0.5733
11379TIP3    H255629   4.333   2.933  12.640 -0.9041  0.8898  0.2691
11380TIP3   OH255630   5.098   6.137   3.607 -0.0034  0.7979 -0.3307
11380TIP3    H155631   5.091   6.051   3.648 -0.4733  1.1515  0.3367
11380TIP3    H255632   5.056   6.197   3.668 -1.5099  1.2247 -1.7201
11381TIP3   OH255633   3.083   4.231   2.799  0.1147 -0.1289 -0.1343
11381TIP3    H155634   3.128   4.146   2.795 -0.0236 -0.2351  0.4147
11381TIP3    H255635   2.990   4.209   2.806  0.0013  0.0858 -0.8709
11382TIP3   OH255636   2.772   5.753   4.455  0.1418 -0.5559 -0.3125
11382TIP3    H155637   2.774   5.759   4.359 -0.6225  1.7927 -0.2564
11382TIP3    H255638   2.861   5.777   4.482  0.1447 -0.4300 -0.4305
11383TIP3   OH255639   4.020   4.791  11.813 -0.0725  0.7132  0.3584
11383TIP3    H155640   3.947   4.852  11.805 -1.3773 -0.8382  0.0978
11383TIP3    H255641   4.033   4.781  11.907  0.4971  1.7413  0.4104
11384TIP3   OH255642   4.395   1.194  13.086 -0.6407  0.3368 -1.1621
11384TIP3    H155643   4.413   1.201  12.992  0.6439  0.9029 -0.8930
11384TIP3    H255644   4.357   1.279  13.109  2.8813  1.8996 -0.4271
11385TIP3   OH255645   5.495   4.713   4.136 -0.2844  0.0277 -0.0992
11385TIP3    H155646   5.441   4.637   4.115 -0.6969  0.1760  0.4072
11385TIP3    H255647   5.584   4.688   4.111 -0.4375 -0.5728 -0.0425
11386TIP3   OH255648   1.694   6.447   4.962  0.4210  0.3746 -0.7788
11386TIP3    H155649   1.736   6.500   5.029  0.7101  0.8014 -1.2872
11386TIP3    H255650   1.621   6.500   4.931  0.4253  0.2793 -0.9564
11387TIP3   OH255651   0.238   4.546  17.324  0.5115  0.3865 -0.4718
11387TIP3    H155652   0.176   4.598  17.273 -0.5850 -0.5524 -0.1221
11387TIP3    H255653   0.191   4.466  17.345  2.5510 -1.3447 -2.0420
11388TIP3   OH255654   6.447   3.826   3.916  0.4125  0.0897  0.0726
11388TIP3    H155655   6.454   3.820   4.011 -2.0445 -0.5081  0.2684
11388TIP3    H255656   6.483   3.743   3.884 -0.6363 -0.6009  0.6347
11389TIP3   OH255657   4.681   6.211  17.286 -0.0361 -0.0676 -0.0172
11389TIP3    H155658   4.753   6.190  17.227  0.7594  1.0966  0.4928
11389TIP3    H255659   4.671   6.133  17.341 -0.4101 -0.9420 -1.2796
11390TIP3   OH255660   3.881   6.117  13.964 -0.1727  0.6151 -0.0074
11390TIP3    H155661   3.823   6.040  13.959  1.4678 -0.9289  2.4933
11390TIP3    H255662   3.823   6.188  13.993 -0.9470 -0.8376  2.2812
11391TIP3   OH255663   5.464   0.054  15.675  0.4403 -0.3967  0.5099
11391TIP3    H155664   5.436  -0.016  15.617  1.9215  0.2484 -1.0707
11391TIP3    H255665   5.558   0.039  15.687  0.4020  0.2304  1.6969
11392TIP3   OH255666   2.985   0.491   3.545  0.2263  0.2332 -0.4697
11392TIP3    H155667   2.903   0.513   3.501 -0.0246 -0.6231 -0.4474
11392TIP3    H255668   3.040   0.568   3.534 -1.1313  1.4558  0.8731
11393TIP3   OH255669   3.309   1.363   3.662  0.1715 -0.0262 -0.0325
11393TIP3    H155670   3.221   1.337   3.689  0.1534 -0.3971 -0.4348
11393TIP3    H255671   3.341   1.289   3.612  0.0691  0.7639 -1.3166
11394TIP3   OH255672   3.380   3.535  16.186  0.0943  0.2095  0.2205
11394TIP3    H155673   3.473   3.532  16.165  0.4070  1.3222  1.2882
11394TIP3    H255674   3.336   3.517  16.104  1.2458  1.9168 -0.8415
11395TIP3   OH255675   1.247   4.455  17.232 -0.0582 -0.1909  0.2355
11395TIP3    H155676   1.285   4.370  17.211 -0.1370 -0.2411  0.2952
11395TIP3    H255677   1.152   4.441  17.230 -0.1233  0.2699 -1.3349
11396TIP3   OH255678   1.165   2.643  16.492 -0.0255 -0.3318 -0.2759
11396TIP3    H155679   1.130   2.730  16.474  2.4100  0.8625  0.4215
11396TIP3    H255680   1.138   2.624  16.581 -3.0380 -1.6635 -1.3312
11397TIP3   OH255681   6.166   2.610  17.269 -1.1689  0.6415 -0.0097
11397TIP3    H155682   6.150   2.655  17.186 -2.5558  0.5380  0.1737
11397TIP3    H255683   6.141   2.519  17.251  0.3639  0.1965 -0.0062
11398TIP3   OH255684   6.312   3.664   3.711  0.2760  0.0554  0.1013
11398TIP3    H155685   6.221   3.641   3.692 -0.0389  1.6736 -0.5935
11398TIP3    H255686   6.342   3.598   3.773 -1.4887 -0.3052  0.6183
11399TIP3   OH255687   2.203   2.916  16.776  0.3483 -0.3852 -0.1300
11399TIP3    H155688   2.256   2.882  16.703 -0.0814  0.1992 -0.7316
11399TIP3    H255689   2.156   2.990  16.738  0.5635  0.2962  0.9085
11400TIP3   OH255690   3.450   6.399  13.358 -0.2934 -0.1417 -0.0074
11400TIP3    H155691   3.417   6.410  13.447 -1.2978 -0.8304 -0.2738
11400TIP3    H255692   3.523   6.461  13.351 -1.3527  1.2509  0.7232
11401TIP3   OH255693   3.475   4.840  16.452  0.2503  0.4689 -0.2943
11401TIP3    H155694   3.549   4.782  16.465 -0.9502 -0.9215  0.7098
11401TIP3    H255695   3.434   4.808  16.371  1.8493  2.5449 -2.0255
11402TIP3   OH255696   1.585   6.685  14.936 -0.5496  0.6018 -0.0188
11402TIP3    H155697   1.510   6.626  14.931 -0.4329  0.4310  0.2290
11402TIP3    H255698   1.653   6.634  14.980 -0.7387  1.2035  1.0022
11403TIP3   OH255699   0.128   5.978   3.412 -0.1973  0.0769 -0.2007
11403TIP3    H155700   0.035   5.964   3.390 -0.0716  1.6139 -2.0158
11403TIP3    H255701   0.150   5.906   3.470 -2.5301 -0.3443  0.2743
11404TIP3   OH255702   3.538   3.969   4.679  0.1346 -0.8500 -0.6271
11404TIP3    H155703   3.493   3.899   4.631 -1.3218 -0.3568 -0.0419
11404TIP3    H255704   3.618   3.985   4.629 -0.2952 -1.8143 -1.6698
11405TIP3   OH255705   0.070   0.295  12.369  0.0386 -0.1268  0.4141
11405TIP3    H155706   0.067   0.200  12.357  1.1180 -0.2165  0.7973
11405TIP3    H255707   0.117   0.327  12.292 -1.4245  0.2467 -0.3691
11406TIP3   OH255708   5.211   4.285  16.446  0.4789 -0.7744  0.2220
11406TIP3    H155709   5.136   4.304  16.503  1.0972 -0.6184  0.9879
11406TIP3    H255710   5.243   4.200  16.476  0.3568 -1.0509 -0.3961
11407TIP3   OH255711   6.258   4.064  11.977  0.0685  0.2977  0.2579
11407TIP3    H155712   6.268   4.022  11.892  2.1429 -2.2177  1.5908
11407TIP3    H255713   6.174   4.110  11.972 -1.0410 -1.7758 -2.3125
11408TIP3   OH255714   0.049   6.288  16.511 -0.5746 -0.0809 -0.2557
11408TIP3    H155715  -0.024   6.245  16.557  1.9237 -2.7249  1.6097
11408TIP3    H255716   0.096   6.336  16.579 -0.5837  1.7163 -1.4511
11409TIP3   OH255717   1.295   2.562  13.496 -0.0340 -0.4372 -0.0374
11409TIP3    H155718   1.382   2.584  13.529 -0.6404  0.0292  1.3070
11409TIP3    H255719   1.308   2.547  13.402  1.3064  0.6529 -0.0525
11410TIP3   OH255720   4.046   6.167  15.706  0.3834 -0.6502  0.2585
11410TIP3    H155721   3.994   6.121  15.639  2.1427 -1.4826 -0.5952
11410TIP3    H255722   4.037   6.260  15.683  3.1112 -1.0018 -2.9376
11411TIP3   OH255723   5.166   2.077  15.962  0.6236 -0.2206 -0.0336
11411TIP3    H155724   5.231   2.148  15.967 -1.7675  2.1044  0.3629
11411TIP3    H255725   5.128   2.085  15.875 -1.1345  0.4760  0.7342
11412TIP3   OH255726   2.200   0.018  11.431  0.2427  0.2239  0.4891
11412TIP3    H155727   2.228   0.076  11.360 -0.7584 -0.1587 -0.2517
11412TIP3    H255728   2.140   0.071  11.483 -1.3123 -0.3315 -0.6535
11413TIP3   OH255729   4.455   0.076   1.096 -0.2891 -0.1016  0.3284
11413TIP3    H155730   4.505   0.041   1.169  2.4999 -0.1256 -1.4421
11413TIP3    H255731   4.443   0.001   1.038 -2.0607  0.0155  0.5030
11414TIP3   OH255732   2.200   4.253  14.712  0.1657 -0.0521 -0.3009
11414TIP3    H155733   2.145   4.184  14.750  0.7895 -0.1720  0.3912
11414TIP3    H255734   2.200   4.323  14.777  0.6271  0.0500 -0.4075
11415TIP3   OH255735   5.227   3.837   5.202  0.0114 -0.6770  0.2997
11415TIP3    H155736   5.227   3.789   5.119  0.6919  0.9986 -0.7251
11415TIP3    H255737   5.301   3.801   5.251  1.1545 -0.0270 -0.8903
11416TIP3   OH255738   5.450   6.123   2.574  0.0350 -0.0540  0.1259
11416TIP3    H155739   5.428   6.188   2.507  0.9666  1.0102  0.8092
11416TIP3    H255740   5.541   6.099   2.554 -0.3804 -1.3859 -0.2799
11417TIP3   OH255741   1.919   2.950   2.834 -0.5669 -0.0605 -0.0567
11417TIP3    H155742   1.967   2.971   2.754  1.3253  1.0928  1.2858
11417TIP3    H255743   1.963   3.002   2.902 -3.2030  0.3457  1.4436
11418TIP3   OH255744   5.069   2.245  11.907 -0.3977 -0.8545 -0.0360
11418TIP3    H155745   4.995   2.296  11.939  1.6212  1.5450  1.1779
11418TIP3    H255746   5.077   2.270  11.815  0.9324  1.7559  0.6750
11419TIP3   OH255747   3.834   3.496  10.882  0.1221 -0.4385  0.5074
11419TIP3    H155748   3.917   3.481  10.927 -0.4555 -1.0221  1.4162
11419TIP3    H255749   3.822   3.419  10.827  0.2688 -0.2656  0.2315
11420TIP3   OH255750   2.688   6.141   4.997 -0.1023  0.3341  0.1456
11420TIP3    H155751   2.699   6.070   4.934  0.4873 -0.0553  0.6783
11420TIP3    H255752   2.597   6.134   5.025  0.0109 -0.3522  0.3567
11421TIP3   OH255753   5.383   5.425  14.451  0.0547  0.4573 -0.4335
11421TIP3    H155754   5.417   5.405  14.364 -1.1441 -0.6828 -0.6663
11421TIP3    H255755   5.399   5.346  14.502 -1.4297  0.2100 -0.3180
11422TIP3   OH255756   1.507   3.769  11.007  0.2793  0.2586 -0.4517
11422TIP3    H155757   1.496   3.712  10.931 -0.5200  0.3275 -0.3931
11422TIP3    H255758   1.600   3.792  11.006  0.9325 -2.0748  0.2581
11423TIP3   OH255759   0.288   3.366  16.292 -0.0755  0.8148  0.6903
11423TIP3    H155760   0.347   3.312  16.239 -0.1033  2.0436 -0.6433
11423TIP3    H255761   0.342   3.441  16.318 -0.0814  0.2736  2.4010
11424TIP3   OH255762   0.501   5.518  14.797 -0.4508  0.8076 -0.3333
11424TIP3    H155763   0.538   5.546  14.881 -0.5348 -1.2964  0.4923
11424TIP3    H255764   0.578   5.504  14.741 -0.1314 -0.6168  0.3973
11425TIP3   OH255765   3.769   4.447  15.609  0.1942 -0.1835  0.4882
11425TIP3    H155766   3.699   4.383  15.595 -0.1190  0.2005  0.2920
11425TIP3    H255767   3.723   4.529  15.626  0.5796  0.3519 -0.8940
11426TIP3   OH255768   5.386   0.214  14.017 -0.3826  0.4962  0.1348
11426TIP3    H155769   5.368   0.233  14.109  0.4422 -0.0142  0.4167
11426TIP3    H255770   5.364   0.295  13.971 -1.5322  0.5081  0.6718
11427TIP3   OH255771   6.136   2.235  17.482  0.2023 -0.0363  0.1811
11427TIP3    H155772   6.114   2.142  17.483 -0.9018  0.2018 -0.0758
11427TIP3    H255773   6.111   2.264  17.394  0.4053  0.5373  0.3049
11428TIP3   OH255774   4.539   6.424  15.428 -0.3430 -0.3280 -0.1479
11428TIP3    H155775   4.462   6.368  15.420  1.3335 -2.6197 -0.9421
11428TIP3    H255776   4.557   6.426  15.522 -0.9290 -0.3326 -0.0279
11429TIP3   OH255777   5.558   3.819   5.343 -0.4511 -1.1785  0.1057
11429TIP3    H155778   5.588   3.843   5.256  0.5564 -0.3855  0.6428
11429TIP3    H255779   5.548   3.724   5.340  0.5980 -1.2808 -0.5716
11430TIP3   OH255780   0.181   2.993   5.779  0.4741 -0.4750 -0.5787
11430TIP3    H155781   0.132   2.993   5.861  0.6963 -0.2642 -0.4408
11430TIP3    H255782   0.262   2.947   5.799  0.0659 -1.3895 -0.9777
11431TIP3   OH255783   0.039   1.783  11.991  0.2171  0.4608  0.2812
11431TIP3    H155784   0.089   1.702  11.996  1.1921  1.0811  1.2215
11431TIP3    H255785   0.038   1.805  11.898 -0.3857 -0.7989 -0.0326
11432TIP3   OH255786   0.113   2.917   3.573 -0.4697  0.2253  0.0554
11432TIP3    H155787   0.113   2.957   3.660 -1.1838 -0.1402  0.2341
11432TIP3    H255788   0.193   2.949   3.531 -0.3152  0.7050  0.7079
11433TIP3   OH255789   6.660   5.944  12.380 -0.3487 -0.3497 -0.6255
11433TIP3    H155790   6.606   5.893  12.439 -0.1262  0.0713 -0.0469
11433TIP3    H255791   6.705   5.880  12.326 -0.7061 -0.7308 -0.4706
11434TIP3   OH255792   2.337   0.929   3.805  0.1155 -0.2516 -0.4933
11434TIP3    H155793   2.423   0.965   3.782 -0.4411  1.2365 -0.3619
11434TIP3    H255794   2.315   0.970   3.888 -1.3540  0.5691 -1.2419
11435TIP3   OH255795   6.344   0.790  13.505 -0.5293 -0.5472 -0.0163
11435TIP3    H155796   6.274   0.726  13.498 -1.5333  0.4334  0.7751
11435TIP3    H255797   6.400   0.756  13.575 -0.4257 -1.1336 -0.3816
11436TIP3   OH255798   1.565   4.941   0.018  0.2728 -0.1252  0.1074
11436TIP3    H155799   1.646   4.973   0.058 -1.4609  3.4278  1.1976
11436TIP3    H255800   1.591   4.919  -0.072  2.6218 -0.1120  0.7038
11437TIP3   OH255801   2.374   2.119   1.074  0.2489  0.3377 -0.0250
11437TIP3    H155802   2.363   2.214   1.072  0.5898  0.4299  1.4783
11437TIP3    H255803   2.436   2.100   1.003  0.2894  1.2467 -0.2411
11438TIP3   OH255804   1.304   1.087  12.494  0.2197  0.5659 -0.1760
11438TIP3    H155805   1.304   1.146  12.418 -1.4028 -0.7992 -1.3116
11438TIP3    H255806   1.379   1.115  12.545  1.7312  1.1862 -2.5606
11439TIP3   OH255807   1.205   4.353  12.625 -0.4376  0.2199 -0.0119
11439TIP3    H155808   1.184   4.331  12.715  3.3925  0.8998  1.2199
11439TIP3    H255809   1.275   4.417  12.631  1.3882 -1.1867 -3.4269
11440TIP3   OH255810   0.183   4.054   1.410  0.3564 -0.5331  0.5476
11440TIP3    H155811   0.254   4.117   1.422  0.0735 -0.5436  2.5445
11440TIP3    H255812   0.105   4.107   1.393  0.7012 -0.5052 -1.1104
11441TIP3   OH255813   6.363   3.790   1.219  0.1591 -0.1028  0.2585
11441TIP3    H155814   6.311   3.870   1.219 -0.8968 -0.7567 -0.8584
11441TIP3    H255815   6.360   3.759   1.128  0.4176 -1.4763  0.6954
11442TIP3   OH255816   6.766   6.338  14.765 -0.1737  0.0123  0.5872
11442TIP3    H155817   6.721   6.423  14.773  2.3968  1.5271 -0.0316
11442TIP3    H255818   6.736   6.303  14.681 -1.0665  0.3867  0.7321
11443TIP3   OH255819   4.306   2.839   1.087  0.1075  1.0091  0.3703
11443TIP3    H155820   4.250   2.805   1.156  0.4242  2.1637  1.2385
11443TIP3    H255821   4.311   2.769   1.022 -0.1294 -0.1338  1.5598
11444TIP3   OH255822   5.579   5.918  14.763  0.0758 -0.0300 -0.3506
11444TIP3    H155823   5.559   5.849  14.826 -0.1837  0.3325 -0.0312
11444TIP3    H255824   5.673   5.910  14.748  0.5192  1.0821  1.5253
11445TIP3   OH255825   3.333   1.756  13.541 -0.4836  0.0753  0.1699
11445TIP3    H155826   3.337   1.837  13.491  2.8603 -0.3643 -0.5592
11445TIP3    H255827   3.363   1.781  13.629 -0.2458 -0.2122  0.1730
11446TIP3   OH255828   2.449   0.156   0.279 -0.3568 -0.6519  0.4454
11446TIP3    H155829   2.538   0.136   0.250  0.4817  1.1774  1.5649
11446TIP3    H255830   2.438   0.249   0.258 -1.9211 -0.7781  0.5810
11447TIP3   OH255831   1.294   3.838  13.700  0.0204 -0.9774 -0.3482
11447TIP3    H155832   1.335   3.821  13.616 -1.4835 -3.1509 -0.7406
11447TIP3    H255833   1.239   3.760  13.716 -1.6096  0.4372  1.4757
11448TIP3   OH255834   1.684   2.017  12.438  0.5076  0.2088  0.4842
11448TIP3    H155835   1.701   2.067  12.359 -0.3898 -0.5584 -0.2096
11448TIP3    H255836   1.731   2.064  12.507  0.9238  1.1354 -0.4178
11449TIP3   OH255837   6.352   4.639  10.900  0.4927 -0.9861  0.1784
11449TIP3    H155838   6.314   4.721  10.931  0.7268 -0.6204 -0.4871
11449TIP3    H255839   6.442   4.641  10.932  0.3934 -1.1660  0.4813
11450TIP3   OH255840   1.388   4.804  11.173  0.0435 -0.4541 -0.2624
11450TIP3    H155841   1.313   4.772  11.124 -1.7539  0.9600  1.3873
11450TIP3    H255842   1.453   4.828  11.106 -0.9415 -1.7213 -1.7262
11451TIP3   OH255843   3.104   4.432  15.701  0.3640 -0.2321 -0.1562
11451TIP3    H155844   3.091   4.523  15.726 -0.2518 -0.3744  0.0553
11451TIP3    H255845   3.128   4.436  15.608  2.6963  0.2964  0.3844
11452TIP3   OH255846   6.100   5.089   0.216 -0.0043  0.2425 -0.0001
11452TIP3    H155847   6.136   5.137   0.141 -1.5386 -0.2436 -1.0868
11452TIP3    H255848   6.056   5.013   0.178 -1.0062  0.0986  1.3722
11453TIP3   OH255849   6.750   5.889   5.687  0.4655  0.0758  0.3261
11453TIP3    H155850   6.786   5.932   5.765  1.8548 -1.0830  0.3781
11453TIP3    H255851   6.827   5.853   5.643 -0.4291 -0.3239 -0.9501
11454TIP3   OH255852   4.160   2.924   0.704 -0.8707  0.4311 -0.0944
11454TIP3    H155853   4.149   2.883   0.618 -0.9273  0.2752 -0.0143
11454TIP3    H255854   4.134   3.015   0.691 -0.0005  0.6456 -0.4640
11455TIP3   OH255855   3.875   5.576  13.592 -0.5380  0.4810  0.5118
11455TIP3    H155856   3.884   5.484  13.617  0.0171 -0.2819 -2.2126
11455TIP3    H255857   3.954   5.618  13.624 -0.3685 -0.1737  0.9695
11456TIP3   OH255858   4.606   4.289  17.330 -0.3310  0.4976  0.2841
11456TIP3    H155859   4.589   4.206  17.374  1.6181  0.3318  0.8322
11456TIP3    H255860   4.615   4.353  17.401  1.6512  0.4598  0.1264
11457TIP3   OH255861   0.281   2.751  16.342  0.2000 -0.0493  0.6107
11457TIP3    H155862   0.186   2.752  16.337  0.2505  0.3169 -1.3354
11457TIP3    H255863   0.305   2.658  16.349 -0.2867 -0.1396  1.0976
11458TIP3   OH255864   2.537   3.457   4.770 -0.0890  0.1362  0.2959
11458TIP3    H155865   2.479   3.402   4.717  0.0851  0.9296 -0.7575
11458TIP3    H255866   2.621   3.410   4.771  0.6599  1.2515 -2.2772
11459TIP3   OH255867   3.626   3.148  13.198  0.0270 -0.4402  0.0253
11459TIP3    H155868   3.596   3.092  13.270  1.7209 -3.4566 -1.4647
11459TIP3    H255869   3.719   3.163  13.217 -0.1040  0.8780 -0.2762
11460TIP3   OH255870   0.043   6.459   3.264  0.0926 -0.8210  0.1690
11460TIP3    H155871   0.035   6.544   3.308 -2.7943 -1.3168  0.7681
11460TIP3    H255872   0.118   6.470   3.205 -0.5169  2.3558 -0.1986
11461TIP3   OH255873   6.489   0.804   5.721  0.3244  1.0350 -0.2951
11461TIP3    H155874   6.554   0.751   5.767  0.0245  2.3512  1.7691
11461TIP3    H255875   6.463   0.750   5.646  2.5086 -0.2464 -0.2144
11462TIP3   OH255876   1.798   3.114   4.357 -0.2224 -0.4809  0.0551
11462TIP3    H155877   1.754   3.141   4.276 -1.4506  1.5769  1.3050
11462TIP3    H255878   1.889   3.140   4.344 -0.8479  2.1018  0.1418
11463TIP3   OH255879   2.171   4.282   4.939  0.2385  0.3144 -0.4248
11463TIP3    H155880   2.253   4.321   4.971  0.8110 -1.7360  0.8074
11463TIP3    H255881   2.197   4.229   4.864  0.2648 -1.0855  0.5271
11464TIP3   OH255882   4.795   5.466  14.325  0.0610  0.2397 -0.2271
11464TIP3    H155883   4.870   5.524  14.340  0.1130 -0.2049  1.4293
11464TIP3    H255884   4.758   5.452  14.412 -1.8265  0.2612 -0.9851
11465TIP3   OH255885   2.248   1.276   1.489  0.1872  0.0180  0.2234
11465TIP3    H155886   2.205   1.277   1.403 -0.2537 -1.5216  0.3853
11465TIP3    H255887   2.249   1.367   1.516  1.7846  0.7754 -2.0959
11466TIP3   OH255888   1.120   6.300   5.631  0.3900  0.0693  0.2031
11466TIP3    H155889   1.070   6.294   5.712 -0.4078 -0.8759 -0.3405
11466TIP3    H255890   1.118   6.393   5.608 -0.2074  0.1971  0.7487
11467TIP3   OH255891   3.539   0.522  16.944 -0.1216  0.5709 -0.7802
11467TIP3    H155892   3.465   0.469  16.976 -0.4282  0.5764 -1.4500
11467TIP3    H255893   3.617   0.476  16.974 -0.3774  1.3982  1.2826
11468TIP3   OH255894   5.109   5.581   0.101  0.2668 -0.0240  0.2763
11468TIP3    H155895   5.118   5.660   0.047  2.3797 -0.9173 -0.8237
11468TIP3    H255896   5.192   5.574   0.147 -0.5152 -0.7574  1.6461
11469TIP3   OH255897   4.424   5.115   0.020 -0.1173  0.4139  0.2663
11469TIP3    H155898   4.432   5.024   0.048 -3.3183 -0.1065 -0.1304
11469TIP3    H255899   4.437   5.166   0.100 -0.5798 -0.5463  0.9763
11470TIP3   OH255900   4.871   6.317  12.350  0.2359 -0.2522  0.2903
11470TIP3    H155901   4.834   6.251  12.292 -0.8272  1.5919 -1.2164
11470TIP3    H255902   4.889   6.392  12.294 -2.6049  2.3731  2.5373
11471TIP3   OH255903   5.217   1.096  14.846  0.3158 -0.1629 -0.1673
11471TIP3    H155904   5.178   1.024  14.895 -0.4804  0.6605  0.4369
11471TIP3    H255905   5.243   1.160  14.912 -1.0296  1.0901 -0.8000
11472TIP3   OH255906   0.029   1.704   4.565  0.3859  0.2750  0.3816
11472TIP3    H155907  -0.036   1.637   4.545  0.5575  0.3530 -0.4769
11472TIP3    H255908   0.022   1.717   4.660 -0.0176 -0.5680  0.4760
11473TIP3   OH255909   6.762   2.553  14.296 -0.3404 -0.5738  0.5269
11473TIP3    H155910   6.838   2.584  14.247  1.0873 -2.0216  1.7083
11473TIP3    H255911   6.692   2.547  14.231  1.2169 -1.5167 -1.1572
11474TIP3   OH255912   0.092   6.505  17.453  0.8305 -0.1061  0.6192
11474TIP3    H155913   0.015   6.476  17.403  1.5102 -2.5228  0.8202
11474TIP3    H255914   0.056   6.543  17.533 -0.1796 -0.1734  0.2090
11475TIP3   OH255915   0.125   6.181   2.509 -0.2726 -0.0393 -0.5706
11475TIP3    H155916   0.089   6.262   2.543  1.1773 -0.0803  1.2768
11475TIP3    H255917   0.110   6.117   2.579 -0.4883 -1.1127 -1.5684
11476TIP3   OH255918   5.156   1.992  12.884 -0.4511 -0.1193  0.1889
11476TIP3    H155919   5.111   2.076  12.880  1.1434  0.8312  1.2890
11476TIP3    H255920   5.244   2.010  12.853 -1.0400 -2.2164 -3.2224
11477TIP3   OH255921   2.426   2.695  17.148 -0.7756 -1.0676  0.5279
11477TIP3    H155922   2.420   2.781  17.188  0.3370 -0.3915 -0.6486
11477TIP3    H255923   2.419   2.712  17.054 -0.1400 -2.1930  0.2533
11478TIP3   OH255924   5.807   4.119   1.263 -0.2539  0.0325  0.0446
11478TIP3    H155925   5.772   4.112   1.351  1.3655 -1.8809  0.6258
11478TIP3    H255926   5.759   4.191   1.223 -1.9757  0.0716  2.0237
11479TIP3   OH255927   2.569   4.351  12.639  0.0101 -0.1421  0.1849
11479TIP3    H155928   2.523   4.289  12.583  1.3433 -1.2097  0.2273
11479TIP3    H255929   2.501   4.410  12.671 -1.3507 -1.7819  0.4146
11480TIP3   OH255930   2.110   0.029  10.914 -0.5923 -0.3133  0.0011
11480TIP3    H155931   2.150   0.113  10.939 -0.2687 -0.4614 -0.0156
11480TIP3    H255932   2.138   0.016  10.823 -0.0383 -0.7942  0.2367
11481TIP3   OH255933   1.022   6.737  14.755 -0.8328 -0.2248  0.1417
11481TIP3    H155934   0.956   6.702  14.695  0.1707 -0.4823 -0.8416
11481TIP3    H255935   1.101   6.686  14.736  0.4831  2.0274 -0.8387
11482TIP3   OH255936   5.453   3.418   3.943 -0.2983 -0.1175  0.1827
11482TIP3    H155937   5.408   3.361   3.881 -3.6125  0.6051  1.6908
11482TIP3    H255938   5.466   3.363   4.020  2.7562 -0.6812 -0.6293
11483TIP3   OH255939   2.194   6.393   4.604  0.0447 -0.4171  0.0459
11483TIP3    H155940   2.217   6.300   4.603  2.4940  0.1215 -0.5810
11483TIP3    H255941   2.277   6.439   4.585 -1.3872  1.8333 -1.3252
11484TIP3   OH255942   3.009   1.337   0.523  0.3199 -0.3041  0.1679
11484TIP3    H155943   3.007   1.354   0.617  1.6967  0.0056  0.1614
11484TIP3    H255944   3.091   1.289   0.509  0.7751  0.7561 -1.0352
11485TIP3   OH255945   5.853   4.633  15.602  0.6689 -0.1483  0.3039
11485TIP3    H155946   5.898   4.653  15.520  0.5191 -0.0206  0.2520
11485TIP3    H255947   5.858   4.538  15.610 -0.5220 -0.3085 -0.5557
11486TIP3   OH255948   5.700   2.451   5.834 -0.5195  0.8031  0.4688
11486TIP3    H155949   5.617   2.413   5.804  0.9241 -1.7387 -0.6991
11486TIP3    H255950   5.682   2.481   5.923 -2.2425 -1.4565  0.9782
11487TIP3   OH255951   0.490   6.776  14.070  0.1493  0.5852 -0.5058
11487TIP3    H155952   0.436   6.852  14.050  0.3298  0.5154 -1.2921
11487TIP3    H255953   0.565   6.783  14.010  1.2047  0.8727  0.7872
11488TIP3   OH255954   4.778   5.374  11.059  0.1114 -0.5654  0.0050
11488TIP3    H155955   4.841   5.308  11.031  0.1646  0.3888 -2.3447
11488TIP3    H255956   4.772   5.435  10.985 -1.5029  0.8972  1.2512
11489TIP3   OH255957   0.650   1.319  15.718 -0.1008 -0.2374 -0.3120
11489TIP3    H155958   0.664   1.413  15.731 -1.0997 -0.1855  0.4701
11489TIP3    H255959   0.591   1.314  15.643  0.0667 -0.2511 -0.4439
11490TIP3   OH255960   1.183   5.557   4.515 -0.5768 -0.6988 -0.0420
11490TIP3    H155961   1.135   5.519   4.442 -0.1564 -0.6649 -0.3410
11490TIP3    H255962   1.272   5.521   4.507 -0.3103 -0.0672 -0.0334
11491TIP3   OH255963   1.685   5.048  13.131  0.1991  0.3376 -0.3333
11491TIP3    H155964   1.633   5.106  13.186  2.3914  1.4573  0.6789
11491TIP3    H255965   1.712   5.102  13.057  2.3256  0.7292  0.6556
11492TIP3   OH255966   0.560   1.184   2.486  0.3478 -0.5772 -0.7090
11492TIP3    H155967   0.483   1.216   2.532  1.2149 -0.5823  0.7900
11492TIP3    H255968   0.530   1.105   2.440 -0.6744 -0.2305 -0.6433
11493TIP3   OH255969   0.505   2.070   0.601  0.3079  0.5619 -0.3932
11493TIP3    H155970   0.435   2.071   0.535 -2.4184  0.9151  2.2945
11493TIP3    H255971   0.478   2.135   0.666  3.2384  0.7601  0.7632
11494TIP3   OH255972   4.136   5.350  11.496 -0.3038 -0.1951  0.5023
11494TIP3    H155973   4.097   5.279  11.445 -0.3372  0.4404 -0.3747
11494TIP3    H255974   4.083   5.427  11.475  1.3951  0.6919 -0.7087
11495TIP3   OH255975   0.402   3.103  13.232 -0.2457 -0.4219  0.4963
11495TIP3    H155976   0.325   3.149  13.199  0.3149  0.3333  0.2186
11495TIP3    H255977   0.389   3.012  13.204 -2.3032 -0.9207  2.7004
11496TIP3   OH255978   2.093   1.729   2.769 -0.2552  0.2418 -0.3137
11496TIP3    H155979   1.998   1.731   2.779 -0.2599 -0.9702 -0.0008
11496TIP3    H255980   2.125   1.696   2.853  0.3410 -0.7542 -0.9147
11497TIP3   OH255981   4.441   6.650   0.924 -0.4251  0.0201 -0.5376
11497TIP3    H155982   4.354   6.618   0.901 -0.4030 -1.5353  1.3159
11497TIP3    H255983   4.487   6.574   0.959  1.9329  0.6327 -2.0011
11498TIP3   OH255984   0.932   3.359   5.103 -0.1182  0.0855 -0.1334
11498TIP3    H155985   0.979   3.333   5.023  0.9732  1.7455 -0.0797
11498TIP3    H255986   0.904   3.449   5.086 -0.2168  0.3192  1.1999
11499TIP3   OH255987   1.678   1.291  12.866 -0.2933  0.4426  0.6082
11499TIP3    H155988   1.766   1.275  12.899 -0.9772  1.2078  2.9461
11499TIP3    H255989   1.687   1.369  12.810  0.6540 -0.0237  0.1014
11500TIP3   OH255990   4.047   1.036   2.930 -0.1011 -0.0329 -0.1880
11500TIP3    H155991   4.080   0.984   2.856 -1.1258 -0.2424 -0.5204
11500TIP3    H255992   4.015   0.970   2.993  1.5933  0.1075  0.8777
11501TIP3   OH255993   6.134   2.119  12.902  0.0940 -0.2409  0.0730
11501TIP3    H155994   6.050   2.088  12.870 -0.2213 -1.1315  1.6628
11501TIP3    H255995   6.158   2.190  12.842 -1.7149 -0.0474 -0.4701
11502TIP3   OH255996   2.808   1.924   1.409 -0.0722 -0.2694 -0.7289
11502TIP3    H155997   2.732   1.925   1.351  0.7312 -0.2710 -1.7998
11502TIP3    H255998   2.863   1.996   1.378  0.4123 -0.3232 -0.0172
11503TIP3   OH255999   6.356   3.577  13.207  0.7053 -0.4206  0.1347
11503TIP3    H156000   6.389   3.493  13.240  0.2193 -1.8194 -2.6551
11503TIP3    H256001   6.267   3.558  13.178 -1.0702  2.1587  3.1886
11504TIP3   OH256002   2.786   0.484  17.016 -0.0340  0.0077  0.6093
11504TIP3    H156003   2.763   0.576  17.024 -0.5384  0.0151 -0.6922
11504TIP3    H256004   2.798   0.469  16.922 -1.6295 -1.6045  0.5923
11505TIP3   OH256005   2.400   6.275   3.588  0.1003 -0.2182  0.1676
11505TIP3    H156006   2.396   6.362   3.547 -0.5080 -0.9870 -1.5144
11505TIP3    H256007   2.492   6.264   3.612  0.0328  1.2232  1.2199
11506TIP3   OH256008   5.560   3.123  14.903  0.1498 -0.5925 -0.2882
11506TIP3    H156009   5.649   3.092  14.914 -0.1178 -0.6002  2.7550
11506TIP3    H256010   5.557   3.207  14.949 -1.1178  0.0328 -1.4256
11507TIP3   OH256011   0.339   2.129   2.684  0.1585 -0.0197 -0.1034
11507TIP3    H156012   0.399   2.186   2.634  1.3291 -0.1320  1.1054
11507TIP3    H256013   0.360   2.148   2.776  0.6959 -2.5047  0.3497
11508TIP3   OH256014   4.803   4.390  15.553 -0.3070  0.4030 -0.0530
11508TIP3    H156015   4.813   4.485  15.544 -0.4049  0.4668  0.4821
11508TIP3    H256016   4.893   4.357  15.553 -0.3000  0.3788 -1.3720
11509TIP3   OH256017   1.787   5.318   6.035  0.1337  0.1468 -0.4317
11509TIP3    H156018   1.853   5.321   6.105 -0.8623 -1.0137  0.5930
11509TIP3    H256019   1.780   5.226   6.012 -1.7197  0.1272  0.0704
11510TIP3   OH256020   3.755   4.188  13.109 -0.4842  0.2759  0.4066
11510TIP3    H156021   3.806   4.129  13.054 -0.9189 -0.4334  0.7516
11510TIP3    H256022   3.668   4.150  13.111 -0.4960  0.3256  1.5261
11511TIP3   OH256023   3.790   5.325  15.520  0.3597 -0.0993 -0.1828
11511TIP3    H156024   3.734   5.282  15.454  0.3056 -1.2094  0.5590
11511TIP3    H256025   3.731   5.384  15.566  0.3878  0.6602 -1.0799
11512TIP3   OH256026   3.371   4.785   3.514 -0.0714  0.1949  0.5498
11512TIP3    H156027   3.278   4.779   3.492 -0.1866 -0.2962  1.1483
11512TIP3    H256028   3.406   4.851   3.454 -0.3316 -1.2391 -1.2927
11513TIP3   OH256029   6.435   5.604   3.879  0.0512 -0.1845 -0.7017
11513TIP3    H156030   6.370   5.571   3.941 -0.1699 -0.8164 -1.2574
11513TIP3    H256031   6.423   5.551   3.801  2.5842 -1.7909 -0.1408
11514TIP3   OH256032   2.026   1.693  17.220  0.4838 -0.5124  0.2542
11514TIP3    H156033   2.038   1.598  17.216  0.2469 -0.5087 -0.9470
11514TIP3    H256034   2.094   1.729  17.163  0.9251  0.0874  1.1319
11515TIP3   OH256035   1.147   6.189   5.879 -0.5475  0.0755 -0.0550
11515TIP3    H156036   1.138   6.175   5.973 -0.0457 -2.9380 -0.3549
11515TIP3    H256037   1.239   6.213   5.866 -0.3160 -0.6805  0.1424
11516TIP3   OH256038   2.796   6.460   6.047 -0.1389  0.1655 -0.2960
11516TIP3    H156039   2.800   6.368   6.071 -3.1739 -0.0264 -0.0818
11516TIP3    H256040   2.846   6.506   6.114  1.8746 -1.3036 -0.7088
11517TIP3   OH256041   6.033   0.147  11.699 -0.2102  0.3641 -0.1248
11517TIP3    H156042   5.958   0.170  11.644 -0.8584  0.9927  0.9712
11517TIP3    H256043   6.079   0.230  11.713 -0.8711  0.5148  1.4188
11518TIP3   OH256044   6.290   4.058  13.274  0.3140 -0.3000  0.3751
11518TIP3    H156045   6.234   3.981  13.264  0.6376 -0.6061  0.8677
11518TIP3    H256046   6.352   4.034  13.342  0.6519  0.2677  0.2767
11519TIP3   OH256047   4.885   1.097  11.308  0.3277 -0.5243  0.0972
11519TIP3    H156048   4.887   1.115  11.214 -0.3803  1.6328  0.4470
11519TIP3    H256049   4.796   1.119  11.335  0.5200 -1.1187  1.2799
11520TIP3   OH256050   0.385   0.015  16.682  0.2100  0.1219 -0.0960
11520TIP3    H156051   0.341   0.010  16.768  0.5358 -0.7050  0.0254
11520TIP3    H256052   0.419   0.104  16.679 -1.3110  0.7438 -0.1119
11521TIP3   OH256053   5.909   6.137  12.351  0.1285  0.4391 -0.2559
11521TIP3    H156054   5.952   6.221  12.335  0.3529  1.1812  3.4829
11521TIP3    H256055   5.817   6.160  12.366  0.2007  0.0588  0.8458
11522TIP3   OH256056   1.716   1.287   0.859  0.6932  0.0663 -0.1400
11522TIP3    H156057   1.810   1.267   0.851  1.2892  2.0063  1.2121
11522TIP3    H256058   1.689   1.243   0.939  0.1174 -1.4758 -1.1494
11523TIP3   OH256059   0.630   3.724   3.823 -0.4024  0.1355 -0.4885
11523TIP3    H156060   0.702   3.762   3.873  1.8501 -1.4723 -2.2858
11523TIP3    H256061   0.670   3.652   3.774 -3.3901 -1.2139 -1.1651
11524TIP3   OH256062   3.380   3.041   1.526  0.5971 -0.0358  0.2658
11524TIP3    H156063   3.315   3.065   1.461  0.2725 -0.2843  0.4938
11524TIP3    H256064   3.442   3.114   1.527  1.0631 -0.3981 -0.9006
11525TIP3   OH256065   1.839   3.432  17.043  0.3685 -0.6547 -0.3589
11525TIP3    H156066   1.842   3.527  17.040  0.9614 -0.6852 -1.3425
11525TIP3    H256067   1.857   3.409  17.134 -0.2052  0.1746 -0.0271
11526TIP3   OH256068   3.871   2.803  13.439  0.2963  0.8284  0.5964
11526TIP3    H156069   3.898   2.870  13.502 -0.9312  0.0394  2.0289
11526TIP3    H256070   3.788   2.835  13.404  0.2167  0.5526  0.5303
11527TIP3   OH256071   3.172   5.927  10.451 -0.5492 -0.0832  0.0750
11527TIP3    H156072   3.187   5.865  10.380 -1.2009 -2.7365  2.1182
11527TIP3    H256073   3.106   5.987  10.416 -0.4233 -0.9289 -1.7495
11528TIP3   OH256074   4.038   4.059  12.755 -0.4677  0.3466  0.6468
11528TIP3    H156075   4.106   4.079  12.819 -0.4574  1.1197  0.4046
11528TIP3    H256076   4.010   4.144  12.722  1.0434 -0.0641 -1.9775
11529TIP3   OH256077   4.347   6.071   1.981 -0.2712  0.2389  0.4361
11529TIP3    H156078   4.304   6.103   2.060 -1.7730 -0.0436 -0.2305
11529TIP3    H256079   4.427   6.028   2.012 -0.0525  1.4634  1.6414
11530TIP3   OH256080   1.458   0.792   4.686  0.3835 -0.1075  0.3260
11530TIP3    H156081   1.437   0.869   4.633 -0.7474 -0.7742 -0.2200
11530TIP3    H256082   1.554   0.789   4.687  0.4530  1.4007  0.5101
11531TIP3   OH256083   2.158   5.483   6.059  0.0757 -0.4318 -0.4847
11531TIP3    H156084   2.095   5.417   6.088 -0.3982  0.1378 -0.1979
11531TIP3    H256085   2.204   5.508   6.139 -0.3591  0.2184 -0.4268
11532TIP3   OH256086   4.585   4.477   2.642  0.1550  0.4274  0.6946
11532TIP3    H156087   4.672   4.480   2.601 -0.2795 -1.8262 -0.5453
11532TIP3    H256088   4.533   4.423   2.583 -1.9699  1.2701  1.7029
11533TIP3   OH256089   3.237   5.699  16.743 -0.6134  0.1541 -0.7277
11533TIP3    H156090   3.169   5.755  16.780  0.2620  0.9758 -0.2952
11533TIP3    H256091   3.280   5.754  16.677  1.3337  0.6383  0.8480
11534TIP3   OH256092   0.760   6.229  16.116  0.4617 -0.1781 -0.3408
11534TIP3    H156093   0.791   6.285  16.187  0.7413  2.1796 -2.2042
11534TIP3    H256094   0.680   6.188  16.151  0.8303  0.5557  1.4494
11535TIP3   OH256095   6.405   1.687   3.421  0.0718 -0.0478  0.4745
11535TIP3    H156096   6.375   1.777   3.416 -2.4131 -0.8076  0.5357
11535TIP3    H256097   6.328   1.634   3.400  1.7064 -2.1561 -0.7129
11536TIP3   OH256098   2.523   5.722  13.610  0.4661  0.2094  0.1693
11536TIP3    H156099   2.492   5.738  13.698  0.9549 -0.1178  0.4095
11536TIP3    H256100   2.604   5.671  13.622 -0.1224 -0.9315 -0.4944
11537TIP3   OH256101   4.195   1.947  11.859  0.4491  0.2721  0.0899
11537TIP3    H156102   4.168   2.037  11.875  1.4397  0.1666  2.8544
11537TIP3    H256103   4.210   1.911  11.946  0.5263 -2.4473 -0.9579
11538TIP3   OH256104   5.035   1.021  13.638  0.6915 -0.5478 -0.2540
11538TIP3    H156105   5.035   1.109  13.601  0.8656  0.0210  1.0651
11538TIP3    H256106   5.042   1.034  13.732  0.2586 -1.9689 -0.0030
11539TIP3   OH256107   6.671   5.792   2.231  0.0098  0.0986 -0.7506
11539TIP3    H156108   6.616   5.839   2.169 -1.3373  0.4090  0.6144
11539TIP3    H256109   6.610   5.756   2.295  1.2980 -0.6619  0.1078
11540TIP3   OH256110   6.062   6.421   6.209 -0.1067 -0.1643 -0.7067
11540TIP3    H156111   6.032   6.364   6.139 -1.0580  0.9940 -1.2855
11540TIP3    H256112   6.085   6.362   6.281  3.2024 -1.5727 -2.7284
11541TIP3   OH256113   5.233   1.680  14.217 -0.0741 -0.0781 -0.0309
11541TIP3    H156114   5.287   1.618  14.266 -0.1354  0.7955  1.1757
11541TIP3    H256115   5.290   1.755  14.202 -0.4961  0.2489 -0.0267
11542TIP3   OH256116   3.157   5.750  11.922  0.1289  0.1768 -0.1220
11542TIP3    H156117   3.161   5.685  11.992 -4.1244 -0.5808 -0.3391
11542TIP3    H256118   3.243   5.793  11.925  1.4862 -2.2969  3.0277
11543TIP3   OH256119   1.790   5.437  15.691 -0.2342  0.4006 -0.1475
11543TIP3    H156120   1.779   5.479  15.606  0.9456  1.4383  0.1962
11543TIP3    H256121   1.762   5.346  15.676 -0.7233  0.7381 -1.4445
11544TIP3   OH256122   5.769   5.830  11.536  0.6441  0.5806 -0.0094
11544TIP3    H156123   5.805   5.746  11.509 -0.9903  0.3825 -1.7892
11544TIP3    H256124   5.767   5.826  11.631  1.1450 -1.1675 -0.0441
11545TIP3   OH256125   6.590   0.625   1.914  0.3665  0.5715 -0.3154
11545TIP3    H156126   6.520   0.591   1.970  0.7228 -0.5199 -0.5024
11545TIP3    H256127   6.577   0.583   1.829  0.8037  0.9311 -0.5675
11546TIP3   OH256128   6.211   3.648  11.600  0.0499  0.0609 -0.6362
11546TIP3    H156129   6.127   3.648  11.554 -0.4045 -0.7736  0.1759
11546TIP3    H256130   6.245   3.737  11.587 -1.1679  0.5519 -0.5817
11547TIP3   OH256131   3.235   4.376   2.078 -0.4686 -0.7067 -0.1402
11547TIP3    H156132   3.250   4.333   1.993 -0.2734 -0.9467  0.0158
11547TIP3    H256133   3.293   4.330   2.138  1.1307  0.9504 -0.3279
11548TIP3   OH256134   1.573   0.600   0.892 -0.0139 -0.0008 -0.0750
11548TIP3    H156135   1.557   0.682   0.845  1.4363  0.6252  0.4648
11548TIP3    H256136   1.486   0.571   0.920 -0.4784  1.9170  0.6247
11549TIP3   OH256137   5.735   0.030   1.940 -0.1504 -0.0598 -0.2454
11549TIP3    H156138   5.767   0.065   2.023  2.6801  0.2774 -1.3688
11549TIP3    H256139   5.750  -0.064   1.946 -0.3715 -0.0947 -0.2233
11550TIP3   OH256140   3.223   5.402  11.874 -0.1883 -0.0436 -0.8787
11550TIP3    H156141   3.227   5.381  11.967  0.7442  0.5150 -0.7714
11550TIP3    H256142   3.296   5.463  11.861  1.2435 -1.9576 -2.4401
11551TIP3   OH256143   2.314   1.631   0.601  0.2161 -0.4956  0.4690
11551TIP3    H156144   2.350   1.554   0.557 -0.8458 -0.4801 -0.4727
11551TIP3    H256145   2.225   1.606   0.623  0.1392  0.1720  0.9297
11552TIP3   OH256146   2.022   5.042   5.772 -0.3021  0.0468 -0.2503
11552TIP3    H156147   2.074   5.036   5.852 -0.6902  2.2911  0.2287
11552TIP3    H256148   2.054   4.970   5.718  0.4505 -1.1162  1.6240
11553TIP3   OH256149   2.923   1.916   5.518 -0.1211 -0.1734 -0.3767
11553TIP3    H156150   2.953   1.968   5.444  2.0774 -1.4886 -0.4907
11553TIP3    H256151   2.925   1.976   5.593  1.1469  0.2372 -0.7268
11554TIP3   OH256152   1.948   4.211  11.698 -0.1475 -0.1193 -0.0319
11554TIP3    H156153   1.858   4.195  11.725 -0.8494  0.0866 -2.0335
11554TIP3    H256154   1.953   4.306  11.686  0.3535 -0.1221  0.1260
11555TIP3   OH256155   2.033   3.602  11.072  0.0730 -0.1719  0.0245
11555TIP3    H156156   1.944   3.599  11.038  0.5893 -1.4599 -1.3232
11555TIP3    H256157   2.030   3.666  11.143 -1.3880  1.6062 -1.5395
11556TIP3   OH256158   0.691   5.442   0.809  0.1555  0.5227  0.4426
11556TIP3    H156159   0.640   5.482   0.739  0.1934  0.3867  0.3365
11556TIP3    H256160   0.639   5.366   0.836  0.3290  0.3472  0.2912
11557TIP3   OH256161   1.430   1.840  15.095 -0.1486  0.0960 -0.7457
11557TIP3    H156162   1.348   1.799  15.068  0.1261 -0.0451 -1.3937
11557TIP3    H256163   1.421   1.931  15.067 -0.7682  0.5049  0.7132
11558TIP3   OH256164   4.099   6.103   5.051  0.8627  0.0685  0.4880
11558TIP3    H156165   4.053   6.055   5.120 -2.0506  0.0326 -1.2985
11558TIP3    H256166   4.119   6.188   5.090  1.4073 -0.7294  2.0501
11559TIP3   OH256167   4.666   5.654   5.603 -0.1063 -0.0654  0.1986
11559TIP3    H156168   4.736   5.590   5.611  0.0868 -0.0955 -1.4193
11559TIP3    H256169   4.596   5.608   5.558  0.2782  0.9865 -1.5869
11560TIP3   OH256170   0.481   5.330   1.224 -0.3285  0.0890  0.2384
11560TIP3    H156171   0.395   5.289   1.220  0.0714 -0.7256 -0.3236
11560TIP3    H256172   0.478   5.399   1.158 -0.2584 -0.5241 -0.4108
11561TIP3   OH256173   1.165   3.896   6.728 -0.1877 -0.7058  0.2279
11561TIP3    H156174   1.254   3.930   6.733  0.7693 -2.8526 -0.5713
11561TIP3    H256175   1.140   3.906   6.636 -1.7666  1.9906  0.8442
11562TIP3   OH256176   3.898   5.313  13.674  0.0547  0.4207 -0.0418
11562TIP3    H156177   3.827   5.261  13.711 -0.1098 -0.9150 -2.0498
11562TIP3    H256178   3.976   5.283  13.720 -0.3100 -0.1565  0.2176
11563TIP3   OH256179   3.382   5.843  13.918 -0.0140 -0.0498  0.3242
11563TIP3    H156180   3.444   5.783  13.877  0.9999  0.9573  0.3154
11563TIP3    H256181   3.390   5.924  13.867 -2.9561 -0.5248 -1.0700
11564TIP3   OH256182   3.025   6.143  16.443 -0.6968  0.4309 -0.2865
11564TIP3    H156183   2.968   6.215  16.417  0.1307  1.2933  0.2383
11564TIP3    H256184   3.113   6.181  16.447 -0.0999 -0.8130 -0.8468
11565TIP3   OH256185   6.684   0.518   3.492  0.4387  0.1254 -0.0187
11565TIP3    H156186   6.756   0.522   3.554 -0.7998 -1.2718  1.6234
11565TIP3    H256187   6.667   0.610   3.468  1.6195  0.5994  0.8905
11566TIP3   OH256188   6.421   3.118   5.555  0.5460  0.0804 -0.1743
11566TIP3    H156189   6.330   3.127   5.582  0.2662  2.0807 -1.5431
11566TIP3    H256190   6.465   3.079   5.631 -1.0202  1.1874  1.3725
11567TIP3   OH256191   6.481   1.076  16.073  0.2587  0.2430 -0.4753
11567TIP3    H156192   6.544   1.066  16.145  1.4080  2.6868 -1.0357
11567TIP3    H256193   6.526   1.133  16.010 -1.7383  0.3464 -1.8938
11568TIP3   OH256194   5.059   2.094   4.739  0.5311  0.4214  0.6895
11568TIP3    H156195   5.106   2.149   4.802  2.6426  0.1369 -0.5420
11568TIP3    H256196   5.127   2.064   4.678 -1.4247  0.7746 -1.8050
11569TIP3   OH256197   5.961   0.150  15.510  0.1016 -0.0276  0.2939
11569TIP3    H156198   5.895   0.218  15.500  0.5164  0.3081 -0.2385
11569TIP3    H256199   5.956   0.125  15.602 -1.2155 -0.4819  0.1055
11570TIP3   OH256200   2.600   2.295   0.708 -0.4044 -0.4424  0.3196
11570TIP3    H156201   2.630   2.215   0.751  0.6971 -0.8707 -1.1597
11570TIP3    H256202   2.540   2.264   0.640  0.3989 -0.0922 -0.5824
11571TIP3   OH256203   0.296   6.468   3.092 -0.8832  0.0879 -0.1720
11571TIP3    H156204   0.273   6.416   3.016 -0.1686 -0.4939 -0.0068
11571TIP3    H256205   0.373   6.518   3.065 -0.3318 -0.4880  0.3143
11572TIP3   OH256206   4.313   3.536  15.712  0.5120 -0.1589  0.1619
11572TIP3    H156207   4.382   3.552  15.776 -0.1823  0.2196  0.8390
11572TIP3    H256208   4.327   3.601  15.643  0.0249  0.8483  0.9788
11573TIP3   OH256209   5.904   6.326  11.726 -0.0717 -0.3447  0.2162
11573TIP3    H156210   5.985   6.284  11.754  0.3331  0.6282  0.5584
11573TIP3    H256211   5.920   6.419  11.739 -0.9024 -0.0692 -0.6292
11574TIP3   OH256212   4.716   5.734   0.264 -0.2736 -0.1868 -0.3803
11574TIP3    H156213   4.650   5.723   0.332  0.3119  0.2688  0.2766
11574TIP3    H256214   4.700   5.822   0.229 -0.3627 -0.2892 -0.5948
11575TIP3   OH256215   5.870   6.512   6.657  0.3660  0.4080 -0.5846
11575TIP3    H156216   5.803   6.451   6.688  1.6505 -0.5019  0.5165
11575TIP3    H256217   5.849   6.526   6.565  0.0638 -1.7876 -0.8967
11576TIP3   OH256218   1.337   4.349   3.964 -0.1516 -0.3498 -0.1457
11576TIP3    H156219   1.431   4.335   3.962 -0.2540 -1.4936  1.6080
11576TIP3    H256220   1.315   4.376   3.874  1.7968 -0.2063 -0.6142
11577TIP3   OH256221   1.563   5.657   4.107  0.2680 -0.1127  0.5935
11577TIP3    H156222   1.477   5.617   4.093  0.3548  0.2877 -1.2548
11577TIP3    H256223   1.545   5.751   4.113  0.7609  0.2353 -2.2155
11578TIP3   OH256224   3.932   6.323   5.909 -0.2087 -0.2930  0.1469
11578TIP3    H156225   3.990   6.294   5.979 -2.6462 -0.0686  2.4020
11578TIP3    H256226   3.944   6.418   5.906  1.5321 -0.4886 -1.4086
11579TIP3   OH256227   2.039   3.289   1.472  0.1014 -0.0621  0.2407
11579TIP3    H156228   2.057   3.207   1.519 -0.1151  0.4196  1.1849
11579TIP3    H256229   2.101   3.288   1.400 -0.8159 -1.7090 -0.5881
11580TIP3   OH256230   2.724   5.639   5.635 -0.4053 -0.5773 -0.0525
11580TIP3    H156231   2.663   5.627   5.562 -2.3350 -0.1967  1.4111
11580TIP3    H256232   2.716   5.731   5.659  3.4097  0.4464 -1.9559
11581TIP3   OH256233   3.709   4.644  11.875 -0.1159  0.0264  0.4022
11581TIP3    H156234   3.687   4.635  11.782 -0.4445 -1.1027  0.5649
11581TIP3    H256235   3.804   4.632  11.878 -0.0356  0.5542  0.1677
11582TIP3   OH256236   1.887   1.917   0.771 -0.4088  0.1758 -0.1006
11582TIP3    H156237   1.972   1.942   0.735 -1.4929  1.3978 -1.9458
11582TIP3    H256238   1.841   1.876   0.698 -0.8469 -2.0253  1.3198
11583TIP3   OH256239   1.010   5.044  12.433 -0.2628 -0.0990  0.5436
11583TIP3    H156240   0.997   4.950  12.426  1.3961 -0.4872  2.0188
11583TIP3    H256241   1.056   5.068  12.352 -3.2661  0.0649 -1.2847
11584TIP3   OH256242   2.611   1.335   3.789 -0.5191  0.2337 -0.4394
11584TIP3    H156243   2.611   1.354   3.883  0.6945  0.3695 -0.4427
11584TIP3    H256244   2.540   1.273   3.776 -0.8367  0.3849  0.5360
11585TIP3   OH256245   3.065   0.997   5.598  0.0839 -0.1566  0.1890
11585TIP3    H156246   2.974   0.972   5.579  0.3102  0.2975 -1.6535
11585TIP3    H256247   3.113   0.914   5.599 -0.3283 -0.3995  1.1660
11586TIP3   OH256248   2.551   5.051   0.779 -0.4680  0.1037  0.8480
11586TIP3    H156249   2.531   5.140   0.750 -1.5128 -0.2437  0.4343
11586TIP3    H256250   2.623   5.061   0.841 -0.7310  1.2554  0.9910
11587TIP3   OH256251   6.255   6.377  11.365  0.5774  0.0269  0.4277
11587TIP3    H156252   6.216   6.300  11.406 -0.7827  0.7798  0.6160
11587TIP3    H256253   6.333   6.395  11.417  0.3237 -0.6086  1.0375
11588TIP3   OH256254   4.905   1.367  16.123 -0.1818 -0.5235 -0.3655
11588TIP3    H156255   4.857   1.307  16.065  0.4405 -2.2235  0.7849
11588TIP3    H256256   4.838   1.427  16.156 -1.5242 -2.5867  0.8956
11589TIP3   OH256257   4.515   3.092  13.384  0.6827 -0.1254  0.2081
11589TIP3    H156258   4.534   3.003  13.415 -0.4458 -0.3994  0.1433
11589TIP3    H256259   4.428   3.111  13.419  0.2723  0.3702 -1.0302
11590TIP3   OH256260   4.267   1.987   4.587 -0.3286 -0.2799  0.0390
11590TIP3    H156261   4.351   2.027   4.564  0.5581 -2.4903 -0.8434
11590TIP3    H256262   4.205   2.026   4.526  0.2699  0.5883 -0.0326
11591TIP3   OH256263   2.844   1.786   0.309 -0.1771  0.1737  0.1348
11591TIP3    H156264   2.900   1.828   0.375 -0.9630 -0.7586  1.4430
11591TIP3    H256265   2.834   1.696   0.340 -3.3372  0.5740  0.6039
11592TIP3   OH256266   3.839   1.273   3.555  0.0038  0.8125 -0.3611
11592TIP3    H156267   3.783   1.350   3.561  1.0234  1.5401 -0.0117
11592TIP3    H256268   3.895   1.289   3.480 -0.8948 -0.3714 -1.3255
11593TIP3   OH256269   1.947   1.153  15.918  0.0696  0.0071  0.4759
11593TIP3    H156270   1.981   1.065  15.936 -1.3156 -0.7379 -0.3341
11593TIP3    H256271   1.880   1.139  15.851  0.1657  1.7588 -0.0358
11594TIP3   OH256272   1.894   0.888  14.696  0.3359 -0.0557  0.2339
11594TIP3    H156273   1.862   0.977  14.677  1.8559  0.3051 -0.8193
11594TIP3    H256274   1.933   0.895  14.783  0.7940  0.4168 -0.0061
11595TIP3   OH256275   3.896   6.223  11.601 -0.1397 -0.6718  0.3494
11595TIP3    H156276   3.840   6.225  11.523 -0.7087 -2.4695  0.6660
11595TIP3    H256277   3.977   6.181  11.571 -0.7659 -2.3726  0.9185
11596TIP3   OH256278   5.137   0.135  11.454 -0.0692  0.1728 -0.3387
11596TIP3    H156279   5.154   0.197  11.525 -0.1072  0.3731 -0.5043
11596TIP3    H256280   5.090   0.187  11.388 -0.5477 -0.1542 -0.2629
11597TIP3   OH256281   4.127   1.644  13.177 -0.0393 -0.4490  0.1424
11597TIP3    H156282   4.062   1.615  13.241 -0.0020  0.1740  0.4701
11597TIP3    H256283   4.102   1.734  13.157  0.4336 -0.3690 -0.0995
11598TIP3   OH256284   4.743   2.981   5.377 -0.0475 -0.2014 -0.0297
11598TIP3    H156285   4.734   2.963   5.283  0.0625  1.6546 -0.4358
11598TIP3    H256286   4.682   3.053   5.393 -0.5327 -0.9292  1.4695
11599TIP3   OH256287   1.362   0.157   0.401 -0.0114  0.4777  0.8356
11599TIP3    H156288   1.341   0.069   0.433  0.5596  0.7579  2.0494
11599TIP3    H256289   1.320   0.216   0.463 -0.4889  1.0759 -0.0393
11600TIP3   OH256290   0.309   0.087   5.380 -0.7249  0.2811  0.2625
11600TIP3    H156291   0.380   0.034   5.415 -0.0100 -0.3761 -1.9960
11600TIP3    H256292   0.246   0.024   5.345  0.1842  0.7665 -2.5594
11601TIP3   OH256293   1.100   2.478   5.161  0.5489 -0.3209 -0.1754
11601TIP3    H156294   1.056   2.517   5.086 -0.0380  1.2951  0.9507
11601TIP3    H256295   1.030   2.439   5.212  0.8915 -1.0169 -0.2315
11602TIP3   OH256296   4.820   1.644  13.647  0.1891  0.3164  0.2212
11602TIP3    H156297   4.810   1.570  13.587  0.8295  1.2352 -1.0701
11602TIP3    H256298   4.793   1.610  13.732  0.2010 -1.3117 -0.3934
11603TIP3   OH256299   0.319   1.722  17.484 -0.8643  0.5789 -0.1847
11603TIP3    H156300   0.307   1.755  17.395 -1.7698 -2.9492 -1.5373
11603TIP3    H256301   0.239   1.674  17.503 -0.5233  0.9148  2.4391
11604TIP3   OH256302   3.830   1.988   0.043 -0.5934  0.4550 -0.5388
11604TIP3    H156303   3.895   2.042   0.088 -1.2429  0.4393  0.4264
11604TIP3    H256304   3.874   1.904   0.031  0.0521  0.8545 -1.1421
11605TIP3   OH256305   3.065   4.370   0.760 -0.2225 -0.3468  0.0125
11605TIP3    H156306   2.973   4.387   0.780  0.1732  0.8191  1.0113
11605TIP3    H256307   3.065   4.289   0.709 -2.0290  0.9253 -2.1834
11606TIP3   OH256308   6.096   2.878   5.469 -0.1909 -0.4728  0.9904
11606TIP3    H156309   6.053   2.917   5.393 -1.5373 -1.2880  1.3095
11606TIP3    H256310   6.117   2.952   5.525 -1.7327 -0.0848  1.0930
11607TIP3   OH256311   4.056   5.099   5.725 -0.0390 -0.0802  0.2334
11607TIP3    H156312   3.983   5.053   5.766 -0.6324  1.9546  1.6256
11607TIP3    H256313   4.127   5.093   5.789  0.1594  0.1901  0.0405
11608TIP3   OH256314   0.366   6.406   2.803 -0.6965  0.3714  0.5465
11608TIP3    H156315   0.373   6.312   2.788  1.1189  0.6168 -0.5495
11608TIP3    H256316   0.448   6.429   2.847 -0.5129  1.6091 -0.3843
11609TIP3   OH256317   4.790   6.320  14.451 -0.7415  0.1243  0.1590
11609TIP3    H156318   4.828   6.233  14.459 -0.7844 -0.1545 -1.9613
11609TIP3    H256319   4.709   6.316  14.502 -0.0025 -0.5767  1.3245
11610TIP3   OH256320   6.661   6.642  11.035 -0.0167  0.1987 -0.0180
11610TIP3    H156321   6.629   6.575  10.974 -0.6407  1.4631 -1.1383
11610TIP3    H256322   6.727   6.690  10.985  0.2383  0.5835  0.6784
11611TIP3   OH256323   6.697   0.797   4.573 -0.1200 -0.2026  0.2984
11611TIP3    H156324   6.738   0.734   4.514 -2.2446 -1.1012 -0.2718
11611TIP3    H256325   6.643   0.852   4.517 -1.6886 -0.6715  1.2919
11612TIP3   OH256326   5.291   4.438  10.941  0.3008  0.0499 -0.6458
11612TIP3    H156327   5.250   4.355  10.962  0.0120  0.0230 -1.2823
11612TIP3    H256328   5.336   4.464  11.022 -1.6971  0.5184  0.3750
11613TIP3   OH256329   1.713   2.793  12.913  0.3711 -0.6513  0.2801
11613TIP3    H156330   1.782   2.755  12.858 -0.0278 -2.1228  0.7539
11613TIP3    H256331   1.761   2.838  12.983  0.8880  1.2361 -1.1807
11614TIP3   OH256332   2.944   3.211   0.268  0.0765  0.1601  0.2610
11614TIP3    H156333   2.965   3.195   0.360 -3.5793 -2.8258  0.8209
11614TIP3    H256334   2.890   3.290   0.269  0.3367  0.3312  0.6530
11615TIP3   OH256335   5.050   6.025  12.899 -0.7799  0.0460 -0.0060
11615TIP3    H156336   5.117   5.956  12.902 -0.1707  0.6346  0.1949
11615TIP3    H256337   4.974   5.986  12.942 -0.3637 -0.4202  0.3290
11616TIP3   OH256338   2.607   1.692  14.468  0.0429  0.0747  0.0071
11616TIP3    H156339   2.532   1.674  14.412  0.5468 -0.3961 -0.5265
11616TIP3    H256340   2.678   1.713  14.407  0.5421 -0.2333  0.4690
11617TIP3   OH256341   5.165   6.277  16.967 -0.1981 -0.3661 -0.2365
11617TIP3    H156342   5.199   6.255  16.881 -0.4127 -1.8545  0.0356
11617TIP3    H256343   5.242   6.280  17.024 -0.1386 -0.1254 -0.3283
11618TIP3   OH256344   0.871   2.762   4.184 -0.3166  0.3409 -0.5230
11618TIP3    H156345   0.779   2.749   4.206 -0.6260  0.8024 -1.4999
11618TIP3    H256346   0.878   2.736   4.092  0.8181 -0.9779 -0.0921
11619TIP3   OH256347   5.808   6.540   3.960 -0.4718  0.2415  0.6131
11619TIP3    H156348   5.845   6.475   4.021 -0.4055  0.2994  0.6359
11619TIP3    H256349   5.801   6.620   4.013  1.0898  0.7355  0.1174
11620TIP3   OH256350   4.825   1.848   0.913  0.1433 -0.1976 -0.1705
11620TIP3    H156351   4.834   1.872   0.821 -2.8619  1.4665 -0.1609
11620TIP3    H256352   4.834   1.931   0.960 -3.4571 -0.0463  0.5016
11621TIP3   OH256353   2.300   5.673   1.355  0.4997  0.1440 -0.5140
11621TIP3    H156354   2.320   5.755   1.400 -2.0168  0.4267  0.2025
11621TIP3    H256355   2.318   5.605   1.420 -1.3343  0.4400  0.3693
11622TIP3   OH256356   4.684   5.509  15.420  0.4803 -0.3339  0.3857
11622TIP3    H156357   4.609   5.493  15.477 -0.3735  2.4213  0.1345
11622TIP3    H256358   4.668   5.452  15.344 -0.4938 -0.9772  1.0429
11623TIP3   OH256359   5.953   3.265  16.167  0.0281 -0.5344  0.4672
11623TIP3    H156360   5.874   3.312  16.140 -0.2683 -1.0344  0.4554
11623TIP3    H256361   6.012   3.334  16.197 -0.3656 -0.1441  0.3647
11624TIP3   OH256362   1.480   6.575  13.230  0.6447  0.1048 -0.4444
11624TIP3    H156363   1.431   6.556  13.149  2.6859 -1.5879 -1.3759
11624TIP3    H256364   1.443   6.657  13.262 -0.9698  0.2616 -2.5052
11625TIP3   OH256365   0.953   3.993   5.887 -0.0339  0.4587 -0.0279
11625TIP3    H156366   1.047   3.978   5.890 -0.2392 -0.8182  0.2672
11625TIP3    H256367   0.922   3.975   5.976 -0.7997 -0.9210 -0.5384
11626TIP3   OH256368   3.435   4.482   1.095  0.0479 -0.6529  0.0838
11626TIP3    H156369   3.435   4.420   1.168  2.1471 -1.2771 -0.3801
11626TIP3    H256370   3.396   4.433   1.022 -0.3650 -0.6500  0.2999
11627TIP3   OH256371   2.058   0.278  11.513 -0.1571 -0.1973  0.2609
11627TIP3    H156372   2.072   0.370  11.489 -1.0936 -0.3580 -0.9700
11627TIP3    H256373   1.975   0.278  11.561 -0.2794 -0.4426  0.0485
11628TIP3   OH256374   0.892   0.233  14.009  0.2055 -0.2813 -0.5585
11628TIP3    H156375   0.942   0.306  14.046  1.0979 -0.5174 -1.2651
11628TIP3    H256376   0.841   0.272  13.938  0.1406 -0.2199 -0.4789
11629TIP3   OH256377   1.963   0.700   1.470 -0.0318 -0.0258 -0.1176
11629TIP3    H156378   2.002   0.781   1.438  3.2334 -0.6105  1.8484
11629TIP3    H256379   1.879   0.726   1.507  0.0122  2.0469 -1.3399
11630TIP3   OH256380   2.311   4.353  11.475 -0.2601  0.5504 -0.2499
11630TIP3    H156381   2.391   4.321  11.434 -0.4138  1.0136 -0.9362
11630TIP3    H256382   2.244   4.342  11.407 -0.5642  1.1337 -0.0499
11631TIP3   OH256383   6.222   4.693  15.836  0.2768 -0.0180  0.0498
11631TIP3    H156384   6.201   4.768  15.891  0.1696 -0.4709  0.6406
11631TIP3    H256385   6.159   4.626  15.863  1.9075 -1.1399  1.2740
11632TIP3   OH256386   3.223   4.506   1.550 -0.4446 -0.6594 -0.8413
11632TIP3    H156387   3.306   4.458   1.553 -0.4403 -0.6183  1.0905
11632TIP3    H256388   3.160   4.446   1.591 -0.6345  0.5976  0.7618
11633TIP3   OH256389   1.241   4.773  15.956  0.0970 -0.1027 -0.3959
11633TIP3    H156390   1.207   4.805  15.872  1.2605 -1.3030 -1.3835
11633TIP3    H256391   1.211   4.682  15.959  1.5195 -0.5923 -0.3669
11634TIP3   OH256392   2.436   5.744   4.441 -0.2469 -0.2853 -0.0814
11634TIP3    H156393   2.389   5.767   4.361 -0.0407 -0.1306 -0.1584
11634TIP3    H256394   2.497   5.675   4.415 -0.3638 -0.4186 -0.0021
11635TIP3   OH256395   6.404   4.096  17.330 -0.3386 -0.3523 -0.1135
11635TIP3    H156396   6.394   4.190  17.345  0.3684 -0.5947  2.3122
11635TIP3    H256397   6.495   4.085  17.302  0.2130 -0.4784  1.6421
11636TIP3   OH256398   6.104   0.983   4.030 -0.4290  0.4690 -0.1134
11636TIP3    H156399   6.116   0.918   4.099 -1.7788 -0.0786 -0.3822
11636TIP3    H256400   6.092   1.066   4.077 -0.5482  0.2272  0.2830
11637TIP3   OH256401   1.556   4.028   6.581  0.1105 -0.3444  0.4976
11637TIP3    H156402   1.512   4.054   6.501  1.0347 -1.0481 -0.2703
11637TIP3    H256403   1.492   4.043   6.651 -0.4167  1.0685 -0.2581
11638TIP3   OH256404   0.222   3.198   2.333 -0.5281 -0.4196  0.1577
11638TIP3    H156405   0.258   3.226   2.249 -0.5798 -0.6862  0.0487
11638TIP3    H256406   0.298   3.176   2.386 -0.4897 -0.1458  0.2195
11639TIP3   OH256407   5.132   6.739   2.928 -0.0008 -0.0919  0.0374
11639TIP3    H156408   5.038   6.757   2.927 -0.2085 -1.0362  1.2183
11639TIP3    H256409   5.166   6.794   2.999  0.3404  0.1893 -0.3357
11640TIP3   OH256410   5.679   5.700   0.496 -0.0840 -0.1457 -0.0328
11640TIP3    H156411   5.748   5.764   0.515  1.4946 -2.1559  1.4905
11640TIP3    H256412   5.600   5.737   0.536  1.0976  0.2283  2.0975
11641TIP3   OH256413   2.855   4.682  11.513 -0.5707 -0.2621 -0.1524
11641TIP3    H156414   2.826   4.686  11.604 -0.5558 -1.2547 -0.0921
11641TIP3    H256415   2.949   4.666  11.518 -0.7317 -1.3324 -0.3275
11642TIP3   OH256416   0.856   1.094  15.290 -0.1636  0.3162 -0.1261
11642TIP3    H156417   0.817   1.122  15.207 -1.6873  0.5441  0.6353
11642TIP3    H256418   0.895   1.009  15.270  1.2063  1.2152 -1.5325
11643TIP3   OH256419   6.011   6.663  12.252  0.7749 -0.3225  0.2707
11643TIP3    H156420   6.084   6.717  12.283  0.5899 -0.0979  0.3141
11643TIP3    H256421   6.020   6.663  12.157 -0.0693  0.9962  0.1579
11644TIP3   OH256422   3.078   3.526   4.876  0.2248 -0.0395 -0.4328
11644TIP3    H156423   3.137   3.600   4.889  0.3636 -0.3804  1.0048
11644TIP3    H256424   3.044   3.538   4.787  1.8206  0.6013 -0.9880
11645TIP3   OH256425   6.723   3.852   1.383  0.2698  0.1549  0.5452
11645TIP3    H156426   6.738   3.892   1.297 -0.7368  1.2042  0.8292
11645TIP3    H256427   6.647   3.795   1.369 -0.2801  0.8013  0.8730
11646TIP3   OH256428   1.821   3.846  12.196  0.5393  0.1173  0.6816
11646TIP3    H156429   1.845   3.768  12.146 -1.0646  0.3969 -0.5766
11646TIP3    H256430   1.886   3.912  12.171  0.4025 -0.0763 -0.2168
11647TIP3   OH256431   0.051   5.811  12.242 -0.3745 -0.2521 -0.5540
11647TIP3    H156432   0.096   5.728  12.257 -0.3834 -0.6050 -2.3188
11647TIP3    H256433   0.086   5.843  12.159  0.1289  1.8718  0.4071
11648TIP3   OH256434   5.285   4.660  12.817 -0.0121  0.6758 -0.3691
11648TIP3    H156435   5.279   4.717  12.893  0.0346  0.3394 -0.1122
11648TIP3    H256436   5.237   4.581  12.842  1.8341 -0.3533  0.1674
11649TIP3   OH256437   6.456   1.290   0.620 -0.2544 -0.0484  0.6112
11649TIP3    H156438   6.506   1.326   0.693 -0.5134 -1.4474  1.5120
11649TIP3    H256439   6.439   1.199   0.645  2.0283 -1.4607 -2.3606
11650TIP3   OH256440   2.502   1.053  15.350 -0.0098 -0.0646 -0.1863
11650TIP3    H156441   2.423   1.016  15.390 -0.9295  1.3989 -0.5646
11650TIP3    H256442   2.469   1.118  15.287  1.4623 -0.6121 -1.5857
11651TIP3   OH256443   4.732   2.480  14.218  0.6291  0.1834  1.1248
11651TIP3    H156444   4.665   2.411  14.215  0.7347  0.1244 -0.6239
11651TIP3    H256445   4.793   2.449  14.285 -0.5694 -0.2154  2.0953
11652TIP3   OH256446   5.866   0.565  15.374  0.3353 -0.3546  0.1315
11652TIP3    H156447   5.922   0.619  15.318  1.4395 -1.1098  0.4852
11652TIP3    H256448   5.798   0.625  15.405  1.0277  0.6161 -0.1962
11653TIP3   OH256449   4.981   1.700  11.964  0.6528  0.4214 -0.5413
11653TIP3    H156450   4.983   1.605  11.972 -0.0892  0.3665 -0.9651
11653TIP3    H256451   5.060   1.722  11.915  0.8380  0.0270 -0.4240
11654TIP3   OH256452   5.546   4.928   3.024 -0.4119 -0.3923  0.4615
11654TIP3    H156453   5.582   5.011   3.054 -1.4980 -0.4076  1.9195
11654TIP3    H256454   5.527   4.942   2.931  1.7917  0.1161  0.0335
11655TIP3   OH256455   5.064   4.176  14.395 -0.2414 -0.0269  0.3455
11655TIP3    H156456   5.136   4.144  14.449 -1.3106 -1.5805  0.9115
11655TIP3    H256457   5.105   4.196  14.311  1.1925  1.0498  1.2406
11656TIP3   OH256458   3.908   2.666  16.588  0.1036 -0.1869  0.5851
11656TIP3    H156459   3.980   2.608  16.563 -0.9804 -0.3732 -2.4884
11656TIP3    H256460   3.844   2.610  16.631  0.7653 -0.4408  1.2681
11657TIP3   OH256461   1.636   3.510  16.445 -0.0139 -0.1733 -0.5520
11657TIP3    H156462   1.657   3.431  16.395  1.0353  0.2246 -0.7659
11657TIP3    H256463   1.611   3.575  16.379 -3.2174 -0.9279 -0.2727
11658TIP3   OH256464   3.603   1.871  16.247 -0.1800 -0.0202 -0.0895
11658TIP3    H156465   3.602   1.957  16.288  0.7952 -0.2666  0.4829
11658TIP3    H256466   3.510   1.848  16.237 -0.4759  1.5233 -1.2209
11659TIP3   OH256467   1.977   2.643  12.391 -0.3766 -0.3284 -0.0756
11659TIP3    H156468   2.055   2.587  12.387 -0.1235 -0.3162  2.6597
11659TIP3    H256469   2.009   2.730  12.369  0.3273 -0.4093  0.5645
11660TIP3   OH256470   0.505   0.451   3.006 -0.2744 -0.0932  0.0323
11660TIP3    H156471   0.529   0.379   2.948 -0.6968  0.5215 -0.9255
11660TIP3    H256472   0.447   0.411   3.071 -0.0006 -0.7362 -0.1066
11661TIP3   OH256473   6.529   0.506   3.936  0.0739 -0.6733 -0.1552
11661TIP3    H156474   6.483   0.499   3.852 -2.2669  1.0891  0.8574
11661TIP3    H256475   6.620   0.524   3.912 -0.4644 -0.5132 -2.3105
11662TIP3   OH256476   6.202   1.954  12.347 -0.4667 -0.3117  0.1679
11662TIP3    H156477   6.174   1.888  12.411 -1.7640  1.5592  1.6290
11662TIP3    H256478   6.265   2.008  12.395  0.9033 -0.6942 -1.1432
11663TIP3   OH256479   0.883   1.627  16.119 -0.6694  0.0156  0.2276
11663TIP3    H156480   0.792   1.647  16.140 -1.3498 -1.6035 -0.9616
11663TIP3    H256481   0.924   1.610  16.203 -1.8877 -0.7951  0.6960
11664TIP3   OH256482   5.640   6.619  13.563 -0.2421  0.6740  0.2700
11664TIP3    H156483   5.696   6.649  13.635  0.6621 -0.9741  0.2915
11664TIP3    H256484   5.660   6.526  13.554 -0.6755  0.7429 -1.8263
11665TIP3   OH256485   2.123   2.218  12.592 -0.0433  0.0087  0.8015
11665TIP3    H156486   2.068   2.142  12.611 -3.8307  2.1789 -0.3652
11665TIP3    H256487   2.172   2.193  12.513  0.6482 -1.9480  1.7734
11666TIP3   OH256488   4.734   6.449  11.873 -0.4908 -0.0445  0.3679
11666TIP3    H156489   4.790   6.523  11.850 -3.0722  1.9376 -0.0499
11666TIP3    H256490   4.725   6.399  11.791  0.4414 -0.2375  0.3812
11667TIP3   OH256491   4.186   4.470   4.027  0.1059  0.4229  0.2784
11667TIP3    H156492   4.140   4.511   4.101  0.2532  0.7513  0.1885
11667TIP3    H256493   4.232   4.542   3.984  3.9851 -0.3321  2.6442
11668TIP3   OH256494   5.381   5.988  11.591  0.4966 -0.1785 -0.1572
11668TIP3    H156495   5.404   6.019  11.679 -0.2489  1.7584 -0.5990
11668TIP3    H256496   5.296   5.945  11.603  0.5742 -0.2604  0.1207
11669TIP3   OH256497   2.473   1.761   0.049  0.8092 -0.7809 -0.0667
11669TIP3    H156498   2.438   1.709   0.121 -0.3753  0.6433  0.4453
11669TIP3    H256499   2.543   1.813   0.089 -0.2485  0.4590  0.2623
11670TIP3   OH256500   3.677   2.945  14.399  0.1306  0.3780 -0.5159
11670TIP3    H156501   3.647   2.998  14.326  0.6610 -0.6019 -1.4676
11670TIP3    H256502   3.769   2.971  14.411  1.0552 -1.7520 -2.3742
11671TIP3   OH256503   0.555   6.332  14.229 -0.8003  0.6158  0.4361
11671TIP3    H156504   0.616   6.392  14.273 -0.7853 -0.7282  2.4135
11671TIP3    H256505   0.510   6.386  14.165  1.0045  2.1277  0.3491
11672TIP3   OH256506   2.812   5.555  15.025 -0.1553 -0.0442 -0.2116
11672TIP3    H156507   2.903   5.529  15.041  0.3507  2.0171  0.5542
11672TIP3    H256508   2.760   5.497  15.080  0.7003 -1.1029 -0.4897
11673TIP3   OH256509   4.287   6.278  15.417  0.8263  0.1887  0.5376
11673TIP3    H156510   4.204   6.316  15.444 -1.0409  0.5882 -4.6419
11673TIP3    H256511   4.283   6.187  15.447 -1.6605  0.1304  0.2396
11674TIP3   OH256512   0.213   6.243  15.619  0.6325  0.1718 -0.1368
11674TIP3    H156513   0.124   6.217  15.595  0.1593  1.6094 -0.0032
11674TIP3    H256514   0.201   6.314  15.682  1.8819 -0.1318  0.4628
11675TIP3   OH256515   6.054   3.872  11.378  0.0164 -0.0275  0.2719
11675TIP3    H156516   6.128   3.893  11.320 -0.1146 -1.2208 -0.3696
11675TIP3    H256517   6.011   3.956  11.394  0.0358  0.3356 -1.4060
11676TIP3   OH256518   1.308   2.747   0.752 -0.5153 -0.3714 -0.0959
11676TIP3    H156519   1.289   2.840   0.745 -1.2362 -0.5749 -1.2350
11676TIP3    H256520   1.335   2.734   0.843 -1.0324  0.8265  0.2441
11677TIP3   OH256521   2.471   0.709  11.554  0.0035  0.2309  0.5523
11677TIP3    H156522   2.376   0.700  11.558  0.0035 -0.8684 -1.0088
11677TIP3    H256523   2.486   0.787  11.501 -0.0587 -0.2952 -0.2636
11678TIP3   OH256524   2.336   0.000  16.478  0.1738 -0.0607  0.3436
11678TIP3    H156525   2.285  -0.081  16.476 -0.2355  0.2086 -0.1824
11678TIP3    H256526   2.319   0.038  16.564 -0.1570 -0.1972  0.3365
11679TIP3   OH256527   6.712   3.362   5.342  0.3282  0.0744  0.1318
11679TIP3    H156528   6.709   3.300   5.269  1.2645 -1.7068  1.5268
11679TIP3    H256529   6.756   3.439   5.307 -0.4074 -0.2095 -1.5103
11680TIP3   OH256530   5.941   5.316  16.331  0.3681 -1.1424 -0.0939
11680TIP3    H156531   5.925   5.234  16.378 -0.1187 -1.7735 -1.3351
11680TIP3    H256532   5.856   5.360  16.329  0.3376 -1.2253 -0.5909
11681TIP3   OH256533   4.046   5.190   1.031 -0.1443 -0.1757 -0.5538
11681TIP3    H156534   3.979   5.161   1.093 -0.7920 -0.1452 -1.2299
11681TIP3    H256535   4.023   5.281   1.012  0.1115 -0.1544 -0.7655
11682TIP3   OH256536   3.458   5.375   2.170 -0.5986 -0.6828 -0.3653
11682TIP3    H156537   3.407   5.432   2.113 -0.5506 -1.3111 -1.0366
11682TIP3    H256538   3.437   5.286   2.142  1.2920 -0.9538 -1.0533
11683TIP3   OH256539   4.045   4.035  13.206 -0.7252 -0.0593  0.1085
11683TIP3    H156540   4.098   4.008  13.281 -0.6130  1.7568  0.7172
11683TIP3    H256541   3.971   4.082  13.243 -0.4717  1.2005 -0.9107
11684TIP3   OH256542   5.204   5.022  16.548 -0.1135 -0.0142 -0.4520
11684TIP3    H156543   5.225   5.068  16.467 -0.7845 -0.8149 -1.0948
11684TIP3    H256544   5.252   4.940  16.542 -0.3632 -0.1833 -0.1551
11685TIP3   OH256545   0.670   0.884   0.269 -0.0135  0.1390  0.1936
11685TIP3    H156546   0.624   0.843   0.196 -0.5542  3.9968 -1.8964
11685TIP3    H256547   0.762   0.881   0.244  0.6088 -3.5191  2.2313
11686TIP3   OH256548   4.109   1.436   4.148  0.3942 -0.2301 -0.2998
11686TIP3    H156549   4.164   1.512   4.167  0.1118 -0.3352  0.9903
11686TIP3    H256550   4.154   1.363   4.189  0.4286 -0.6945 -1.1499
11687TIP3   OH256551   6.045   4.302   5.039  0.4550  0.4064 -0.5263
11687TIP3    H156552   5.992   4.226   5.014  0.7467 -0.4604  1.2929
11687TIP3    H256553   6.098   4.321   4.962 -1.4859  0.4398 -1.9239
11688TIP3   OH256554   3.115   6.086  10.805  0.7001  0.3688 -0.0466
11688TIP3    H156555   3.183   6.129  10.754  1.0368 -0.4675 -0.3310
11688TIP3    H256556   3.050   6.154  10.823  0.8004  0.7827 -1.1979
11689TIP3   OH256557   1.741   3.732  16.665  0.3664  0.1721  0.0123
11689TIP3    H156558   1.787   3.782  16.598  0.2165  0.1432 -0.1156
11689TIP3    H256559   1.648   3.750  16.648  0.3722  2.5262  2.0596
11690TIP3   OH256560   1.524   1.053   2.976  0.2419  0.1191 -0.3657
11690TIP3    H156561   1.461   1.074   3.045 -0.3454 -1.5146 -0.3463
11690TIP3    H256562   1.607   1.043   3.021  0.2139  0.7742 -0.1611
11691TIP3   OH256563   5.747   2.869   3.030 -0.0431  0.3915  0.1736
11691TIP3    H156564   5.828   2.882   3.079  0.1913  0.1335 -0.1442
11691TIP3    H256565   5.772   2.880   2.939 -0.3779  0.3544  0.0771
11692TIP3   OH256566   3.928   4.049  14.052 -0.2657  0.2002  0.2313
11692TIP3    H156567   3.964   4.037  13.964 -2.2616 -0.2665 -0.5814
11692TIP3    H256568   3.897   4.140  14.052  0.3676  0.4256  0.7325
11693TIP3   OH256569   1.047   3.487  13.990  0.1634 -0.2640 -0.1794
11693TIP3    H156570   1.017   3.562  14.042 -0.5442 -0.9104  0.3686
11693TIP3    H256571   0.987   3.417  14.013  0.5446 -0.8811 -1.0330
11694TIP3   OH256572   4.573   1.828  13.887  0.6640  0.1515  0.6497
11694TIP3    H156573   4.610   1.746  13.920  0.0151 -0.1118  0.7465
11694TIP3    H256574   4.513   1.800  13.818 -0.5747  0.4442  1.5841
11695TIP3   OH256575   2.571   4.399   6.294 -0.2974  0.3356  0.3888
11695TIP3    H156576   2.580   4.412   6.388  2.8946 -0.2434  0.2506
11695TIP3    H256577   2.598   4.483   6.255  1.5369 -0.4132 -0.0370
11696TIP3   OH256578   6.372   4.663  17.013  0.1669  0.0004 -0.4084
11696TIP3    H156579   6.422   4.696  16.938 -0.0488  1.2925 -0.0084
11696TIP3    H256580   6.280   4.674  16.989  0.0807 -0.5923 -0.3776
11697TIP3   OH256581   1.761   5.734   6.384 -0.2938 -0.0317  0.5735
11697TIP3    H156582   1.670   5.759   6.402  0.4285  2.3551  1.3497
11697TIP3    H256583   1.811   5.814   6.398  1.6939 -0.6296 -2.1429
11698TIP3   OH256584   3.126   5.489   1.298 -0.4447 -0.0044 -0.1995
11698TIP3    H156585   3.190   5.430   1.258 -1.4659 -0.3427 -1.4026
11698TIP3    H256586   3.101   5.549   1.227  1.5265  2.8220  1.2957
11699TIP3   OH256587   2.869   2.029   4.885  0.1232 -0.2761  0.0569
11699TIP3    H156588   2.965   2.023   4.886  0.1316 -1.2922  3.0366
11699TIP3    H256589   2.843   2.003   4.973 -2.8477  1.4022 -0.2203
11700TIP3   OH256590   2.521   0.792  16.008 -0.4796 -0.2763  0.6035
11700TIP3    H156591   2.579   0.724  15.976  0.4400  0.5608  0.4322
11700TIP3    H256592   2.543   0.802  16.100 -0.2188  0.1727  0.4941
11701TIP3   OH256593   4.886   1.036  15.002 -0.0732 -0.4578 -0.4108
11701TIP3    H156594   4.825   0.963  15.012  0.2571 -0.8048 -0.8832
11701TIP3    H256595   4.900   1.069  15.091 -2.1345  0.6260 -0.4317
11702TIP3   OH256596   5.908   3.778   4.661  0.0972 -0.1075 -0.2714
11702TIP3    H156597   5.898   3.809   4.751 -1.4688 -0.1947 -0.3797
11702TIP3    H256598   5.892   3.856   4.608 -0.0366 -0.2823 -0.4868
11703TIP3   OH256599   5.376   3.225   5.262 -0.0229 -0.4220  0.2484
11703TIP3    H156600   5.341   3.154   5.315  0.0420 -0.3213  0.4271
11703TIP3    H256601   5.323   3.225   5.183 -0.8020  0.0935  0.7575
11704TIP3   OH256602   3.249   3.805   6.394 -0.1200 -0.4771  0.4726
11704TIP3    H156603   3.183   3.777   6.457 -1.0220 -1.2106 -0.7543
11704TIP3    H256604   3.322   3.744   6.407 -1.5138 -2.6568 -1.2205
11705TIP3   OH256605   6.609   2.837  10.955  0.1520 -0.2245 -0.2893
11705TIP3    H156606   6.569   2.754  10.980 -1.1289  0.7635  1.1602
11705TIP3    H256607   6.548   2.876  10.893  0.9375 -0.5014 -1.2664
11706TIP3   OH256608   0.437   0.933  16.770  0.1222  1.2893 -0.6344
11706TIP3    H156609   0.471   1.019  16.745 -0.7243  1.8429  0.0582
11706TIP3    H256610   0.402   0.897  16.688  2.4910  0.5994 -1.4200
11707TIP3   OH256611   1.387   1.416   0.289  0.0741 -0.7345  0.0651
11707TIP3    H156612   1.391   1.508   0.261  0.2608 -0.4446  1.0196
11707TIP3    H256613   1.305   1.383   0.253 -2.2659  1.0297  3.2627
11708TIP3   OH256614   2.422   2.692  12.156 -0.1555 -0.2838  0.0797
11708TIP3    H156615   2.402   2.772  12.204 -1.7475  0.0268 -1.0195
11708TIP3    H256616   2.468   2.723  12.077  0.6460 -0.6025  0.4185
11709TIP3   OH256617   3.529   6.438  12.291  0.3143  0.3934 -0.4076
11709TIP3    H156618   3.483   6.522  12.285 -0.5179 -0.0296 -0.0746
11709TIP3    H256619   3.564   6.424  12.203 -0.2533  0.6904 -0.6892
11710TIP3   OH256620   6.438   4.553  12.482  0.5361 -0.2551  0.0194
11710TIP3    H156621   6.368   4.531  12.544  0.3006 -0.9493 -0.4822
11710TIP3    H256622   6.416   4.641  12.452  0.3867 -0.1034  0.5525
11711TIP3   OH256623   1.344   6.749   4.722  1.1361  0.1517  0.5818
11711TIP3    H156624   1.288   6.671   4.722  2.3556 -0.7504  0.3307
11711TIP3    H256625   1.395   6.743   4.803  2.4753 -0.2475 -0.2677
11712TIP3   OH256626   4.312   6.177   2.238  0.0202 -0.4350 -0.1753
11712TIP3    H156627   4.385   6.239   2.243  0.6306 -1.2280  1.8118
11712TIP3    H256628   4.308   6.138   2.326 -1.8772 -1.4711 -0.6676
11713TIP3   OH256629   0.881   4.917   4.861 -0.1637  0.1322  0.0096
11713TIP3    H156630   0.968   4.939   4.828  0.1310  0.1684  0.7807
11713TIP3    H256631   0.888   4.827   4.891 -0.6276 -0.1396 -0.6880
11714TIP3   OH256632   6.777   4.467  16.964  0.2815 -0.2464 -0.1496
11714TIP3    H156633   6.711   4.522  17.004  0.3338 -0.9654  0.9861
11714TIP3    H256634   6.854   4.477  17.020 -0.1000 -2.4271  0.8607
11715TIP3   OH256635   5.185   1.703   5.828 -0.5253 -0.4990 -0.3418
11715TIP3    H156636   5.193   1.618   5.786  0.5636 -0.9768  0.7681
11715TIP3    H256637   5.124   1.751   5.773 -0.3115 -1.6083 -1.6076
11716TIP3   OH256638   6.644   1.192  13.731 -0.5569  0.3111 -0.1924
11716TIP3    H156639   6.616   1.179  13.822  0.1138  1.8625  0.2685
11716TIP3    H256640   6.654   1.103  13.697 -0.4939 -0.3155  1.3438
11717TIP3   OH256641   6.441   5.679  14.321  0.0470 -0.6603 -0.0651
11717TIP3    H156642   6.445   5.767  14.360 -0.5960 -1.0627  0.9624
11717TIP3    H256643   6.362   5.681  14.267 -0.6378 -0.9500  0.8959
11718TIP3   OH256644   5.210   0.391   5.896  0.1188  0.4701 -0.0063
11718TIP3    H156645   5.285   0.422   5.947 -0.2895  0.1892  0.7762
11718TIP3    H256646   5.168   0.326   5.952 -0.3613  0.1766 -0.6897
11719TIP3   OH256647   6.767   3.413   4.928  0.3538 -0.3064  0.1524
11719TIP3    H156648   6.749   3.342   4.989  0.6448 -0.4126  0.1131
11719TIP3    H256649   6.768   3.370   4.842  0.4332 -0.2386  0.1198
11720TIP3   OH256650   2.352   5.085  17.154  0.1002  0.0220  0.3772
11720TIP3    H156651   2.294   5.111  17.226 -0.4303  1.3994 -0.4931
11720TIP3    H256652   2.440   5.101  17.187 -0.0899 -0.3638  1.0832
11721TIP3   OH256653   6.772   4.184  13.782  0.0856  0.2226  0.5297
11721TIP3    H156654   6.855   4.230  13.775 -0.2451  0.6062 -1.8007
11721TIP3    H256655   6.720   4.216  13.708 -1.8231 -0.6416  1.4046
11722TIP3   OH256656   4.725   0.783  14.382 -0.1613  0.2757  0.7961
11722TIP3    H156657   4.741   0.706  14.327  1.8927  0.5563  0.9295
11722TIP3    H256658   4.733   0.751  14.472 -0.4481  0.4287  0.8768
11723TIP3   OH256659   5.886   4.740   0.653 -0.0880  0.3084 -0.0853
11723TIP3    H156660   5.888   4.759   0.559 -0.2365 -0.9468 -0.3631
11723TIP3    H256661   5.813   4.679   0.663  1.2012 -1.1962  0.5062
11724TIP3   OH256662   0.412   4.512   1.388  0.4017  0.9773  0.3422
11724TIP3    H156663   0.468   4.572   1.437 -0.8200  1.6489  0.9578
11724TIP3    H256664   0.421   4.541   1.297  2.0642  0.2253  0.2384
11725TIP3   OH256665   5.954   0.913  16.650  0.1514  0.1783  0.4021
11725TIP3    H156666   5.967   0.902  16.555 -2.1647  0.5296 -0.0104
11725TIP3    H256667   5.918   0.830  16.680 -1.1504  0.7720  0.5413
11726TIP3   OH256668   6.580   1.503   4.497 -0.0473  0.1043 -0.2538
11726TIP3    H156669   6.558   1.452   4.419 -0.1061 -1.3035  0.6512
11726TIP3    H256670   6.501   1.499   4.551  0.1538  0.6626  0.0935
11727TIP3   OH256671   4.366   2.763  17.083  0.1889 -0.1909 -0.0707
11727TIP3    H156672   4.407   2.762  17.170 -1.6614  2.0083  0.9181
11727TIP3    H256673   4.439   2.746  17.023  1.7595 -0.5771  1.8275
11728TIP3   OH256674   1.779   2.448  12.699  0.0494  0.0638 -0.6049
11728TIP3    H156675   1.732   2.497  12.632  1.7035 -0.0682 -1.9436
11728TIP3    H256676   1.762   2.357  12.679  0.4867  0.0263 -0.8367
11729TIP3   OH256677   2.790   3.440   1.197  0.0327  0.2242 -0.0503
11729TIP3    H156678   2.801   3.533   1.217 -1.8734  0.1914  1.4243
11729TIP3    H256679   2.794   3.396   1.282  0.1570 -0.9694 -0.6467
11730TIP3   OH256680   1.155   5.785   5.809 -0.1557  0.4089  0.0015
11730TIP3    H156681   1.145   5.703   5.760 -0.1537 -0.2582  1.0760
11730TIP3    H256682   1.144   5.854   5.744 -0.8425 -0.4405 -0.8072
11731TIP3   OH256683   2.126   1.310  13.872  0.2000  0.4121 -0.2160
11731TIP3    H156684   2.133   1.313  13.776  0.7552 -0.0891 -0.1931
11731TIP3    H256685   2.052   1.368  13.892  1.3926  2.2144 -0.7846
11732TIP3   OH256686   5.750   3.359   2.804 -0.0498  0.4566  0.0824
11732TIP3    H156687   5.662   3.388   2.778 -0.3796 -0.1952  0.4477
11732TIP3    H256688   5.783   3.429   2.860 -1.6400 -0.6825  2.6326
11733TIP3   OH256689   4.547   5.608  15.196 -0.2497  0.2652  0.2746
11733TIP3    H156690   4.610   5.620  15.267  0.5804 -0.1735 -0.3729
11733TIP3    H256691   4.565   5.680  15.136 -2.3801  1.9239  1.4955
11734TIP3   OH256692   1.421   0.920  10.661  0.3936 -0.4533  0.6860
11734TIP3    H156693   1.498   0.951  10.612  2.0821 -1.5411  2.4958
11734TIP3    H256694   1.443   0.939  10.752 -0.8295 -2.1730  1.3757
11735TIP3   OH256695   2.872   4.876  12.772  0.4677  0.0155 -0.0856
11735TIP3    H156696   2.935   4.897  12.841  1.9202  0.9648 -1.6026
11735TIP3    H256697   2.866   4.781  12.772  1.3660 -0.0500  0.5740
11736TIP3   OH256698   3.398   0.604   3.561  0.0898 -0.7225 -0.0373
11736TIP3    H156699   3.447   0.558   3.493 -0.5731 -2.7276  0.7644
11736TIP3    H256700   3.324   0.547   3.579 -0.1892  0.1583  1.7966
11737TIP3   OH256701   3.695   5.620   1.507  0.1258 -0.2519  0.3877
11737TIP3    H156702   3.637   5.622   1.431  0.2531 -1.4270  0.2452
11737TIP3    H256703   3.753   5.696   1.496 -1.6918  1.2823  0.8031
11738TIP3   OH256704   2.325   2.104  16.392 -0.3602  0.0460  0.4001
11738TIP3    H156705   2.242   2.094  16.346 -1.3223  3.0745  1.2350
11738TIP3    H256706   2.384   2.141  16.326 -0.1049 -0.6504  0.2252
11739TIP3   OH256707   6.123   1.433  14.753  0.0596  0.0103 -0.0983
11739TIP3    H156708   6.169   1.467  14.676 -0.3960  1.6611  0.3188
11739TIP3    H256709   6.182   1.450  14.826  0.6353 -1.8628 -0.0827
11740TIP3   OH256710   2.078   1.284   4.907  0.3140 -0.6866  0.7064
11740TIP3    H156711   2.048   1.336   4.832 -1.3429 -1.0278  1.0806
11740TIP3    H256712   2.138   1.220   4.869  3.7076  2.3173  0.4159
11741TIP3   OH256713   6.235   4.303  13.378  0.1074  0.6220 -0.6043
11741TIP3    H156714   6.262   4.219  13.341  0.2587  0.4409 -0.0813
11741TIP3    H256715   6.148   4.318  13.341 -0.2070 -0.0909 -0.1783
11742TIP3   OH256716   4.235   6.020   5.870 -0.2211 -0.4755  0.4823
11742TIP3    H156717   4.307   6.067   5.912  0.4892 -0.6960 -0.4584
11742TIP3    H256718   4.238   6.048   5.779 -2.0569  0.3828  0.6463
11743TIP3   OH256719   0.881   3.239   0.712 -0.3622  0.0778  0.3419
11743TIP3    H156720   0.906   3.273   0.626  0.0989  0.3395  0.5749
11743TIP3    H256721   0.788   3.257   0.719 -0.2925  0.5318  0.1147
11744TIP3   OH256722   1.357   3.457  16.126  0.1337  0.4062  0.3647
11744TIP3    H156723   1.288   3.414  16.076  0.3634  0.3624  0.0824
11744TIP3    H256724   1.338   3.436  16.217 -0.3535  0.5821  0.3071
11745TIP3   OH256725   0.071   1.447   2.849 -0.3849  0.5321  0.0625
11745TIP3    H156726   0.144   1.505   2.826  1.9490 -2.4858 -0.8785
11745TIP3    H256727   0.007   1.460   2.780  1.4890 -0.1745 -1.9260
11746TIP3   OH256728   3.007   1.840  11.722 -0.0014 -0.2826  0.2569
11746TIP3    H156729   3.005   1.776  11.793 -0.2269  0.1405  0.6319
11746TIP3    H256730   3.099   1.862  11.711  0.1264 -0.9707 -0.1498
11747TIP3   OH256731   0.434   3.744  16.973  0.0841  0.1997 -0.1907
11747TIP3    H156732   0.415   3.734  17.066 -0.1839 -1.1745 -0.3730
11747TIP3    H256733   0.348   3.746  16.931  0.2149  0.3752 -0.4542
11748TIP3   OH256734   3.578   4.160   2.813  0.8726  0.3433 -0.5697
11748TIP3    H156735   3.634   4.109   2.872 -0.0840  1.0166  0.9896
11748TIP3    H256736   3.547   4.097   2.749  0.7112 -0.7717  0.5697
11749TIP3   OH256737   0.675   2.126   5.269 -0.1994  0.2341  0.0735
11749TIP3    H156738   0.741   2.066   5.236 -0.5467 -0.3462  0.4208
11749TIP3    H256739   0.650   2.090   5.354 -1.3445  0.1473 -0.2807
11750TIP3   OH256740   6.722   1.684   6.520  0.1870  0.0825 -0.2332
11750TIP3    H156741   6.816   1.684   6.539  0.3217  1.1353 -0.8342
11750TIP3    H256742   6.713   1.740   6.442 -0.9202 -0.1253 -0.2701
11751TIP3   OH256743   1.889   1.746  14.035  0.2023 -0.2838 -0.3618
11751TIP3    H156744   1.858   1.770  13.948 -1.4291 -0.1958  0.2109
11751TIP3    H256745   1.957   1.811  14.056 -1.7341  1.7965 -0.2139
11752TIP3   OH256746   2.978   3.235  11.172  0.6396  0.2915 -0.0415
11752TIP3    H156747   2.989   3.287  11.092  1.5956  0.1992  0.0168
11752TIP3    H256748   2.936   3.155  11.143 -0.0691  0.7415 -0.2705
11753TIP3   OH256749   0.936   4.224  11.356  0.0991 -0.1456  0.4903
11753TIP3    H156750   0.983   4.295  11.313  0.7543 -0.2641  0.9954
11753TIP3    H256751   0.933   4.154  11.290 -0.0786  0.1551  0.1793
11754TIP3   OH256752   6.617   1.761   0.017 -0.1712  0.2236  0.2089
11754TIP3    H156753   6.544   1.773  -0.044 -0.5477  0.3920  0.6871
11754TIP3    H256754   6.575   1.739   0.101  0.3806 -2.9196 -0.1865
11755TIP3   OH256755   1.625   2.497  11.942 -0.2831 -0.1523 -0.3639
11755TIP3    H156756   1.718   2.479  11.931  0.0879  2.1368 -1.5580
11755TIP3    H256757   1.621   2.565  12.009 -0.8879  1.2359 -1.7515
11756TIP3   OH256758   6.256   4.830  11.632  0.2176 -0.9936 -0.1619
11756TIP3    H156759   6.204   4.756  11.601  0.0160 -0.1662 -1.9298
11756TIP3    H256760   6.267   4.814  11.726 -1.6967 -2.1035 -0.0785
11757TIP3   OH256761   0.905   0.503   3.884 -0.4135 -0.6117  0.5423
11757TIP3    H156762   0.825   0.526   3.838  0.9323  0.4152 -1.4221
11757TIP3    H256763   0.883   0.511   3.977 -2.3712  0.3153  0.0433
11758TIP3   OH256764   3.454   3.392   2.565  0.3555  0.4363  0.4352
11758TIP3    H156765   3.484   3.446   2.492  2.4641 -1.0094  0.1580
11758TIP3    H256766   3.491   3.434   2.643  2.2687 -0.6867  0.1926
11759TIP3   OH256767   4.006   6.261   3.594  0.6462 -0.2938 -0.2238
11759TIP3    H156768   3.917   6.230   3.611  0.8939 -1.0769 -0.3344
11759TIP3    H256769   3.994   6.338   3.537 -0.0479  0.7627  1.2854
11760TIP3   OH256770   2.661   2.734   5.612  0.1239  0.3739 -0.3699
11760TIP3    H156771   2.572   2.713   5.585  0.7002 -0.7857 -1.4956
11760TIP3    H256772   2.711   2.737   5.530  1.4061 -0.4655  0.3359
11761TIP3   OH256773   1.712   6.377   4.212  0.0486 -0.0333 -0.0802
11761TIP3    H156774   1.807   6.385   4.216 -0.1335  2.2022  2.1002
11761TIP3    H256775   1.685   6.447   4.152 -0.2682 -0.5133 -0.5095
11762TIP3   OH256776   6.288   5.176   4.874  0.4688 -0.2192  0.6184
11762TIP3    H156777   6.355   5.147   4.936  0.5166  0.5377  0.9298
11762TIP3    H256778   6.258   5.260   4.908  0.1342 -0.0313 -0.1151
11763TIP3   OH256779   0.231   5.095   1.445  0.5843  0.5417 -0.3306
11763TIP3    H156780   0.203   5.012   1.408  0.6368  0.1021  0.5947
11763TIP3    H256781   0.150   5.139   1.469  0.5796 -0.7420  2.3711
11764TIP3   OH256782   1.486   2.239  16.853 -0.6206 -0.0589  0.0993
11764TIP3    H156783   1.434   2.319  16.858  0.3635  0.6145  0.0142
11764TIP3    H256784   1.465   2.191  16.933 -0.7465  0.5871  0.4602
11765TIP3   OH256785   5.215   4.937   1.724 -0.5716 -0.2249 -0.4858
11765TIP3    H156786   5.280   4.977   1.666 -0.9624  0.6441 -0.3402
11765TIP3    H256787   5.131   4.963   1.687 -0.8353  0.9186  0.8415
11766TIP3   OH256788   2.053   2.129   4.610 -0.3763 -0.0996  0.0918
11766TIP3    H156789   2.136   2.132   4.562  0.7616 -0.9185  1.9025
11766TIP3    H256790   2.069   2.069   4.683 -1.9083  1.2637  1.6667
11767TIP3   OH256791   0.551   1.473   3.043  0.7390  0.2654  0.4136
11767TIP3    H156792   0.618   1.440   3.102  0.9122 -0.7661 -0.3311
11767TIP3    H256793   0.581   1.448   2.956 -0.1097  0.6839 -0.0153
11768TIP3   OH256794   4.100   4.352  12.719  0.3093  0.1796 -0.0650
11768TIP3    H156795   4.164   4.295  12.675 -0.9137 -1.3178  0.0102
11768TIP3    H256796   4.138   4.368  12.805  0.0133 -1.8654  0.5147
11769TIP3   OH256797   5.352   0.697  13.707 -0.9840  0.0502  0.2791
11769TIP3    H156798   5.421   0.764  13.712 -1.7415  0.8264  0.8129
11769TIP3    H256799   5.368   0.651  13.625  1.6964 -1.5045  1.5503
11770TIP3   OH256800   2.441   4.200   5.204 -0.4169  0.2586 -0.1895
11770TIP3    H156801   2.437   4.289   5.238  0.5194 -0.1447  1.0534
11770TIP3    H256802   2.523   4.196   5.154 -0.1969 -0.0400  0.1878
11771TIP3   OH256803   0.625   1.311   0.941 -0.6887  0.4127  0.0945
11771TIP3    H156804   0.645   1.361   1.021 -2.2835  0.6705  0.3552
11771TIP3    H256805   0.619   1.377   0.872  0.5860  0.2002 -0.2408
11772TIP3   OH256806   5.686   6.738   2.918 -0.3349  0.2253  0.1376
11772TIP3    H156807   5.614   6.760   2.976 -0.2267 -0.9145  0.7400
11772TIP3    H256808   5.649   6.675   2.856  0.3613 -1.2002  1.1103
11773TIP3   OH256809   4.985   2.694  17.434  0.1202  0.0139  0.0160
11773TIP3    H156810   4.980   2.599  17.428  1.9671 -0.1113  0.0056
11773TIP3    H256811   5.045   2.711  17.507  0.6930  1.1389 -0.6846
11774TIP3   OH256812   2.924   5.250   0.139  0.4608 -0.0955  0.3920
11774TIP3    H156813   2.973   5.186   0.087 -0.2809  0.0564 -0.5317
11774TIP3    H256814   2.905   5.322   0.078 -0.9426 -0.1782  0.6827
11775TIP3   OH256815   0.428   1.940   1.576 -0.4199  0.0587  0.7030
11775TIP3    H156816   0.462   1.852   1.560 -0.0363  0.3721 -0.3513
11775TIP3    H256817   0.504   1.991   1.602  0.0213  0.7785 -1.7297
11776TIP3   OH256818   2.165   2.551   6.378 -0.0190 -0.2300  0.4333
11776TIP3    H156819   2.101   2.494   6.421 -0.7686 -0.4679 -0.9589
11776TIP3    H256820   2.124   2.576   6.296  1.1150  0.7492  0.1413
11777TIP3   OH256821   5.738   1.037  12.762  0.3923 -0.0494 -0.0970
11777TIP3    H156822   5.747   0.945  12.787 -0.1746 -0.6197 -1.8437
11777TIP3    H256823   5.814   1.080  12.803 -0.8409 -0.6760  3.1670
11778TIP3   OH256824   0.083   5.281  16.421  0.2032 -0.1652 -0.0624
11778TIP3    H156825   0.112   5.190  16.417 -0.6896 -0.5063  0.7213
11778TIP3    H256826   0.136   5.327  16.356 -0.9144 -1.6702 -2.1518
11779TIP3   OH256827   6.198   4.683   0.454 -0.1378 -0.1391  0.6511
11779TIP3    H156828   6.240   4.621   0.394 -1.0530 -0.8006  0.6732
11779TIP3    H256829   6.129   4.723   0.402  0.9530  1.4938  0.3938
11780TIP3   OH256830   4.582   1.400   4.663 -0.1661 -0.0956  0.1516
11780TIP3    H156831   4.516   1.386   4.595  1.3398 -1.6073 -1.0913
11780TIP3    H256832   4.535   1.388   4.746 -1.5181 -0.8155 -0.6898
11781TIP3   OH256833   3.391   6.590   1.974  0.5316  0.0900 -0.3362
11781TIP3    H156834   3.441   6.614   1.896  0.6317 -1.2365 -0.7157
11781TIP3    H256835   3.457   6.553   2.033  0.1825 -0.6150 -0.3824
11782TIP3   OH256836   2.871   0.797   4.491  0.2706  0.0473 -0.5368
11782TIP3    H156837   2.884   0.848   4.571  0.4219  0.6088 -0.9136
11782TIP3    H256838   2.802   0.843   4.444  0.3684 -0.1290 -0.8537
11783TIP3   OH256839   1.274   6.464  13.621  0.0019 -0.2134 -0.8410
11783TIP3    H156840   1.280   6.560  13.623  0.6385 -0.2707  0.2004
11783TIP3    H256841   1.364   6.434  13.612 -0.2595 -0.7167 -2.0103
11784TIP3   OH256842   1.494   4.784   1.985 -0.0501 -0.4358 -1.0888
11784TIP3    H156843   1.416   4.736   2.012  0.1902 -1.9935 -2.9923
11784TIP3    H256844   1.563   4.718   1.977  1.0048  0.6284 -1.2211
11785TIP3   OH256845   3.240   3.504  14.172  0.3237 -0.3803  0.4963
11785TIP3    H156846   3.165   3.564  14.165 -0.1295 -0.9809  0.0383
11785TIP3    H256847   3.317   3.560  14.164 -0.0940  0.0615 -0.6312
11786TIP3   OH256848   3.179   1.467   0.292 -0.1157 -0.1012  0.1076
11786TIP3    H156849   3.174   1.482   0.386  1.8377 -1.0778  0.4217
11786TIP3    H256850   3.222   1.545   0.257 -1.8614  0.7713 -0.1728
11787TIP3   OH256851   1.660   0.662  16.956 -0.7532 -0.2215  0.2160
11787TIP3    H156852   1.568   0.662  16.928 -0.9528  1.6565  0.7179
11787TIP3    H256853   1.707   0.700  16.881 -0.2720 -1.6342 -0.2384
11788TIP3   OH256854   0.987   5.615  16.117  0.3857  0.2186 -0.3146
11788TIP3    H156855   1.058   5.655  16.167  0.1272  0.5458 -0.2113
11788TIP3    H256856   0.911   5.670  16.133  0.5174  0.9079 -1.8302
11789TIP3   OH256857   0.399   2.581   1.743  0.1168 -0.5774  0.1342
11789TIP3    H156858   0.340   2.646   1.706  0.2476 -0.8141 -0.5140
11789TIP3    H256859   0.481   2.594   1.696  0.4801 -0.4835  0.7792
11790TIP3   OH256860   1.730   3.138   3.649  0.5180  0.0061 -0.2415
11790TIP3    H156861   1.739   3.192   3.570  0.7472  1.1273  0.5198
11790TIP3    H256862   1.807   3.082   3.648  1.2151  0.9229 -0.1696
11791TIP3   OH256863   4.434   5.840   0.200  0.3181  0.2090  0.1117
11791TIP3    H156864   4.479   5.781   0.261 -1.6528 -0.5530  0.8928
11791TIP3    H256865   4.386   5.782   0.141 -1.8869  0.9784  1.0706
11792TIP3   OH256866   0.682   1.322   4.655 -1.2529 -0.3008  0.1879
11792TIP3    H156867   0.645   1.236   4.639  0.3532 -0.9819 -0.0301
11792TIP3    H256868   0.702   1.323   4.749 -0.3426 -0.5775  0.0112
11793TIP3   OH256869   0.412   5.513   1.419 -0.0765 -0.1259  0.3793
11793TIP3    H156870   0.445   5.507   1.508  0.0927 -1.4048  0.2527
11793TIP3    H256871   0.470   5.457   1.368 -0.5909  0.0449 -0.4099
11794TIP3   OH256872   0.362   1.997   1.911 -0.5462  0.3528  0.1559
11794TIP3    H156873   0.277   2.026   1.944 -0.9686 -0.9398  0.2648
11794TIP3    H256874   0.424   2.019   1.981 -0.4628  2.8683 -0.6182
11795TIP3   OH256875   0.019   4.897  15.290 -0.1198  0.6293 -0.4455
11795TIP3    H156876   0.027   4.890  15.386 -0.6462  1.0139 -0.3701
11795TIP3    H256877   0.110   4.899  15.259  0.0692 -0.7869 -0.0562
11796TIP3   OH256878   5.944   4.058  12.273 -0.1556  0.2895 -0.4189
11796TIP3    H156879   5.918   4.087  12.186  0.1536 -1.2200 -1.0368
11796TIP3    H256880   5.910   4.127  12.332 -4.1114 -0.6396 -1.2903
11797TIP3   OH256881   3.644   1.028   4.542  0.4656  0.1196 -0.1901
11797TIP3    H156882   3.623   1.070   4.625 -3.1966 -0.1180 -0.8443
11797TIP3    H256883   3.644   1.099   4.478 -0.4605 -0.1590 -0.5120
11798TIP3   OH256884   2.275   3.178  13.453  0.1050  0.2179 -0.3905
11798TIP3    H156885   2.206   3.129  13.409  0.0621  0.9871 -1.2284
11798TIP3    H256886   2.257   3.167  13.546  1.1262 -2.7907 -0.4488
11799TIP3   OH256887   5.364   0.988  17.164 -0.2073 -0.5052 -0.1914
11799TIP3    H156888   5.367   0.904  17.210 -0.9709  0.5957  1.9923
11799TIP3    H256889   5.334   1.051  17.230  1.7533  1.7718 -1.3110
11800TIP3   OH256890   6.095   0.510  16.491 -0.2859 -0.2516 -0.6946
11800TIP3    H156891   6.068   0.544  16.406  3.3408  1.7473 -1.2668
11800TIP3    H256892   6.109   0.588  16.545 -1.5725 -1.4406  1.4898
11801TIP3   OH256893   3.812   0.633  16.824 -0.0913 -0.2424 -0.0319
11801TIP3    H156894   3.737   0.592  16.780 -0.3416 -0.0858  0.2448
11801TIP3    H256895   3.806   0.725  16.800 -2.1173  0.5064  2.8825
11802TIP3   OH256896   6.657   5.918  12.930  0.2111 -0.2860  0.0765
11802TIP3    H156897   6.741   5.923  12.884  0.4409  0.8909  0.5836
11802TIP3    H256898   6.614   5.840  12.894  0.8409 -0.0058 -1.3524
11803TIP3   OH256899   3.406   0.457  14.579 -0.2846  0.6195  0.2822
11803TIP3    H156900   3.364   0.387  14.530 -0.5971 -0.2119  1.6717
11803TIP3    H256901   3.337   0.523  14.591 -0.5210  0.3391  0.4994
11804TIP3   OH256902   1.986   4.446  10.965  0.2159  0.6308  0.0926
11804TIP3    H156903   1.985   4.541  10.957  0.6749  0.5032 -2.2834
11804TIP3    H256904   1.915   4.417  10.907  0.5643 -0.4889  0.2121
11805TIP3   OH256905   2.870   6.683  15.516  0.1382 -0.9033 -0.2445
11805TIP3    H156906   2.807   6.699  15.446 -2.8783  2.1758  2.7351
11805TIP3    H256907   2.939   6.748  15.502  1.4704 -2.6101 -2.1161
11806TIP3   OH256908   6.124   6.134   3.654 -0.1470 -0.0469 -0.5313
11806TIP3    H156909   6.167   6.169   3.576 -3.2600  1.8311 -1.6022
11806TIP3    H256910   6.036   6.111   3.624 -1.1607 -0.1630  2.2459
11807TIP3   OH256911   3.695   1.204   4.770  0.2962 -0.2111 -0.6684
11807TIP3    H156912   3.635   1.269   4.732  0.7794 -1.5944 -4.1414
11807TIP3    H256913   3.781   1.246   4.766  0.2184  0.0603  0.1159
11808TIP3   OH256914   4.838   5.154   4.950 -0.1362  0.2987 -0.4854
11808TIP3    H156915   4.868   5.224   4.893  0.1047 -0.5780 -1.4800
11808TIP3    H256916   4.908   5.143   5.014  0.9174 -0.5678 -1.7381
11809TIP3   OH256917   0.292   4.404  13.330  0.2464 -1.3718  0.2742
11809TIP3    H156918   0.382   4.400  13.300  0.0136 -0.2328 -0.6327
11809TIP3    H256919   0.293   4.469  13.401  0.0151 -0.7944 -0.2441
11810TIP3   OH256920   6.515   4.713  16.785 -0.1131 -0.1059  0.5111
11810TIP3    H156921   6.484   4.803  16.776 -0.7810 -0.2778  1.0497
11810TIP3    H256922   6.469   4.665  16.715  0.5237  0.0315 -0.0169
11811TIP3   OH256923   2.433   5.961   4.812  0.5595 -0.3229  0.1445
11811TIP3    H156924   2.410   5.869   4.802  0.4118 -0.1554 -1.2854
11811TIP3    H256925   2.497   5.977   4.742  0.6708  0.6263  0.4510
11812TIP3   OH256926   4.012   1.065  12.061 -0.2024  0.8827 -0.3014
11812TIP3    H156927   4.019   0.972  12.041 -1.6750  0.6350  0.1944
11812TIP3    H256928   3.923   1.089  12.034 -0.0571  2.0017  0.1436
11813TIP3   OH256929   5.438   2.403   4.823 -0.6533 -0.0471  0.3238
11813TIP3    H156930   5.492   2.357   4.759  0.4587  1.0495  0.4428
11813TIP3    H256931   5.422   2.489   4.784 -2.3921 -0.3587  0.2706
11814TIP3   OH256932   4.559   2.872  17.318 -0.5704  0.0285 -0.0622
11814TIP3    H156933   4.596   2.818  17.388 -0.7743 -1.0815 -0.7811
11814TIP3    H256934   4.617   2.856  17.243 -0.8887  0.4864 -0.4097
11815TIP3   OH256935   1.647   4.592  15.556  0.1126  0.0062 -0.9053
11815TIP3    H156936   1.727   4.540  15.551  1.3440  1.8013 -0.5715
11815TIP3    H256937   1.619   4.584  15.647 -1.6095 -2.6804 -1.5408
11816TIP3   OH256938   0.060   4.522  16.204 -0.1929  0.2832 -0.2107
11816TIP3    H156939   0.126   4.586  16.228  0.1019 -0.2298  0.3605
11816TIP3    H256940   0.001   4.569  16.145 -0.3864  1.2878  0.7522
11817TIP3   OH256941   5.364   4.064  11.236  0.0991  0.0186 -0.0398
11817TIP3    H156942   5.377   3.972  11.214 -2.0456 -0.6410  1.1086
11817TIP3    H256943   5.408   4.075  11.320 -0.2313 -0.1781  0.1652
11818TIP3   OH256944   1.276   2.847  13.840  0.6156 -0.8408  0.1745
11818TIP3    H156945   1.307   2.758  13.858  1.1701 -0.7836 -0.4625
11818TIP3    H256946   1.349   2.890  13.795  0.0162 -0.3589 -0.3748
11819TIP3   OH256947   6.123   2.121   5.072  0.2733  0.1193  0.0581
11819TIP3    H156948   6.218   2.125   5.086 -0.0540 -1.6061  4.2378
11819TIP3    H256949   6.113   2.126   4.977  4.3171  2.8318 -0.4874
11820TIP3   OH256950   4.229   4.581  13.831  0.3109 -0.3630  0.0857
11820TIP3    H156951   4.248   4.673  13.849  1.3777 -0.6885  0.7932
11820TIP3    H256952   4.149   4.582  13.779 -1.2470  0.8534  2.3052
11821TIP3   OH256953   2.650   3.437  14.467 -0.0268  0.2316  0.0234
11821TIP3    H156954   2.665   3.429  14.373  0.0764 -0.9355  0.1294
11821TIP3    H256955   2.603   3.357  14.491  0.9815 -0.0483  1.1667
11822TIP3   OH256956   4.864   2.015   2.151 -0.0887 -0.2084 -0.2218
11822TIP3    H156957   4.805   1.947   2.118  0.5128 -1.2083  0.7077
11822TIP3    H256958   4.834   2.032   2.240  0.4652 -0.0729 -0.0587
11823TIP3   OH256959   1.042   4.977   1.495 -0.1953 -0.3723  0.3046
11823TIP3    H156960   1.042   5.072   1.501 -0.0500 -0.4342  1.5347
11823TIP3    H256961   0.964   4.950   1.545  0.6068 -0.9430  1.2941
11824TIP3   OH256962   2.359   2.836  13.285  0.2564  0.6605  0.1324
11824TIP3    H156963   2.292   2.904  13.287 -0.6332 -0.2017  0.1768
11824TIP3    H256964   2.369   2.810  13.377 -1.3640 -1.1211 -0.1410
11825TIP3   OH256965   1.034   5.959  15.971 -0.0495  0.0274 -0.1558
11825TIP3    H156966   1.110   5.901  15.961 -1.2583 -1.6617  0.1672
11825TIP3    H256967   1.009   5.950  16.063 -1.7109 -0.8539 -0.6567
11826TIP3   OH256968   2.045   2.652  15.477  0.1530  0.4787 -0.2741
11826TIP3    H156969   1.989   2.730  15.473  0.4514  0.6746 -0.7692
11826TIP3    H256970   2.026   2.613  15.562  0.1703  1.2229  0.0810
11827TIP3   OH256971   0.328   1.787  16.885  0.0444  0.0950  0.0274
11827TIP3    H156972   0.311   1.715  16.946 -1.5491 -0.3762 -0.9015
11827TIP3    H256973   0.308   1.866  16.935 -1.1591 -0.2802  0.1815
11828TIP3   OH256974   5.029   4.717   4.148  0.3686 -0.0952  0.5057
11828TIP3    H156975   5.007   4.738   4.057  0.2775 -0.8788  0.3427
11828TIP3    H256976   5.118   4.751   4.159 -0.1468  1.3260  0.5821
11829TIP3   OH256977   5.463   1.699   5.266 -0.5056  0.3532  0.3538
11829TIP3    H156978   5.446   1.787   5.300  0.5767  0.9786 -0.6476
11829TIP3    H256979   5.558   1.696   5.254 -0.7565 -0.0131 -2.0503
11830TIP3   OH256980   3.472   1.977   6.162  0.2568 -0.2079 -0.1055
11830TIP3    H156981   3.531   1.960   6.236  0.4540 -1.1303 -0.4662
11830TIP3    H256982   3.437   2.064   6.179  0.0193 -0.5477  1.2764
11831TIP3   OH256983   2.922   1.146  12.369 -0.6507 -0.6118  0.5681
11831TIP3    H156984   2.935   1.240  12.384 -2.0681 -0.6736  2.7061
11831TIP3    H256985   2.983   1.124  12.299 -0.7188  2.0147 -0.4326
11832TIP3   OH256986   2.998   2.542   3.144 -0.4298 -0.5283  0.1747
11832TIP3    H156987   3.019   2.630   3.177  1.2036 -0.3288 -1.2849
11832TIP3    H256988   3.076   2.490   3.163  0.0486 -0.7364 -2.1316
11833TIP3   OH256989   3.393   6.491  15.262  0.1527 -0.4312  0.2599
11833TIP3    H156990   3.337   6.415  15.246 -0.5778  0.2886 -0.7847
11833TIP3    H256991   3.336   6.553  15.307  0.8027 -0.5602  1.2917
11834TIP3   OH256992   4.438   5.880  13.464  0.2661 -0.2220 -0.2975
11834TIP3    H156993   4.431   5.803  13.408  0.4122 -1.0393  0.7551
11834TIP3    H256994   4.360   5.875  13.521 -0.6092  1.3353 -1.2892
11835TIP3   OH256995   4.947   5.195  10.975  0.5260 -0.0280  0.1096
11835TIP3    H156996   5.013   5.130  10.997  0.8271  0.5926  1.1012
11835TIP3    H256997   4.975   5.231  10.891  1.2823  0.0123  0.3749
11836TIP3   OH256998   3.368   3.394   4.076 -0.4741 -0.0784 -0.1962
11836TIP3    H156999   3.365   3.386   3.981 -1.6333 -0.4806 -0.1453
11836TIP3    H257000   3.286   3.438   4.099  0.4692  1.4303  0.5042
11837TIP3   OH257001   3.389   0.118  11.374 -0.1277 -0.3852  0.0692
11837TIP3    H157002   3.435   0.155  11.449  2.3504  1.6588 -2.2491
11837TIP3    H257003   3.323   0.184  11.351 -0.7250 -0.8958  0.2909
11838TIP3   OH257004   2.108   4.223   1.211  0.3638  0.2668  0.0216
11838TIP3    H157005   2.027   4.227   1.261  0.0209 -1.1578 -0.3721
11838TIP3    H257006   2.087   4.170   1.134  1.1355  1.6093 -1.1731
11839TIP3   OH257007   5.212   1.754  16.350 -0.2399 -0.5072 -0.1139
11839TIP3    H157008   5.127   1.766  16.393  0.1797  1.2310  0.3047
11839TIP3    H257009   5.246   1.843  16.339  1.1075 -1.1145 -1.1510
11840TIP3   OH257010   5.258   1.227   4.204 -0.2142  0.1023  0.1321
11840TIP3    H157011   5.229   1.146   4.247 -0.2370 -0.9272 -1.7164
11840TIP3    H257012   5.212   1.227   4.120  0.1036  1.8542 -0.0804
11841TIP3   OH257013   5.112   0.871  17.454 -0.3336  0.4665  0.1221
11841TIP3    H157014   5.153   0.947  17.495  0.3457  0.0272  0.2805
11841TIP3    H257015   5.177   0.840  17.391 -1.3173  1.0624 -1.2324
11842TIP3   OH257016   1.775   1.584  10.507  0.0591  0.4188 -0.2934
11842TIP3    H157017   1.718   1.617  10.438  0.8490  0.4361 -0.9538
11842TIP3    H257018   1.848   1.544  10.460 -0.2478 -1.1367  0.5021
11843TIP3   OH257019   2.998   6.119   3.388 -0.2375  0.3533  0.0771
11843TIP3    H157020   3.027   6.119   3.479 -0.5406  1.4469  0.1871
11843TIP3    H257021   2.912   6.162   3.390 -0.7185 -0.5336 -0.5882
11844TIP3   OH257022   6.329   4.733   3.944 -0.5239 -0.1490  0.0151
11844TIP3    H157023   6.329   4.691   4.029  2.3596  1.3262  0.8874
11844TIP3    H257024   6.297   4.822   3.961  0.8501  0.4172 -0.2123
11845TIP3   OH257025   4.772   4.168  15.338 -0.2298  0.0728 -0.0752
11845TIP3    H157026   4.858   4.126  15.336 -0.0345  0.4865 -1.2000
11845TIP3    H257027   4.789   4.254  15.376  0.1706  0.7417 -1.6435
11846TIP3   OH257028   2.709   0.237   1.305 -0.2320 -0.2300  0.4687
11846TIP3    H157029   2.687   0.330   1.297 -0.0444 -0.2611 -0.5214
11846TIP3    H257030   2.681   0.198   1.222 -1.4509 -1.3024  1.3345
11847TIP3   OH257031   6.386   4.075   1.349  0.4626 -0.2044 -0.5915
11847TIP3    H157032   6.398   4.160   1.390  1.7679 -0.4825 -0.3396
11847TIP3    H257033   6.342   4.022   1.415  1.7546 -0.3889  0.1496
11848TIP3   OH257034   2.585   4.945  11.843 -0.2630 -0.0053  0.3354
11848TIP3    H157035   2.606   4.852  11.854  2.0020  0.0534 -2.3678
11848TIP3    H257036   2.650   4.991  11.897 -0.4717  0.0301  0.5573
11849TIP3   OH257037   3.837   3.253   4.389  0.0155  0.0811 -0.4055
11849TIP3    H157038   3.754   3.294   4.366  0.3103  0.2460 -1.1683
11849TIP3    H257039   3.860   3.292   4.473 -1.2090 -0.7502  0.3615
11850TIP3   OH257040   5.748   1.743  15.931  0.3537 -0.8164 -0.6333
11850TIP3    H157041   5.744   1.734  15.836 -0.2308 -0.7067 -0.6212
11850TIP3    H257042   5.834   1.706  15.955  0.8551 -0.0847 -1.2795
11851TIP3   OH257043   3.975   3.472  14.807 -0.5843  1.0727 -0.6541
11851TIP3    H157044   3.918   3.440  14.877  1.5174 -2.5808 -0.3733
11851TIP3    H257045   4.035   3.533  14.850  0.7172 -1.1550  0.8653
11852TIP3   OH257046   6.663   0.910  12.330  0.1958 -0.1641  0.2072
11852TIP3    H157047   6.703   0.834  12.372  0.3714 -0.2425 -0.1006
11852TIP3    H257048   6.690   0.985  12.383  0.2639 -0.2837  0.3400
11853TIP3   OH257049   5.725   4.754   1.245 -0.1493  0.0759  0.6338
11853TIP3    H157050   5.769   4.767   1.329  0.1456  0.4950  0.4189
11853TIP3    H257051   5.746   4.833   1.194 -3.4356  1.6837  1.5046
11854TIP3   OH257052   0.443   4.477   1.958  0.6868 -0.4054  0.2376
11854TIP3    H157053   0.414   4.479   1.867  1.4927 -0.0699 -0.0245
11854TIP3    H257054   0.517   4.416   1.958  0.7962 -0.2754  0.6305
11855TIP3   OH257055   3.433   1.624   3.676  0.3071  0.1883  0.4485
11855TIP3    H157056   3.394   1.537   3.669 -0.1905  0.5250 -1.4620
11855TIP3    H257057   3.378   1.671   3.739 -1.3473  0.0843 -0.8458
11856TIP3   OH257058   2.268   3.065  12.706 -0.0856  0.2281 -0.9208
11856TIP3    H157059   2.265   2.973  12.733  3.1170  0.4006  0.4676
11856TIP3    H257060   2.220   3.112  12.775  0.9991 -0.1555  0.1398
11857TIP3   OH257061   2.563   5.182  12.105 -0.0110 -0.2754  0.3796
11857TIP3    H157062   2.502   5.117  12.070  0.3359 -1.2701  1.5467
11857TIP3    H257063   2.649   5.150  12.077  0.2015 -0.6098  1.3861
11858TIP3   OH257064   2.223   0.601  11.839  0.1655 -0.3228 -0.4965
11858TIP3    H157065   2.163   0.610  11.913  0.8656 -0.0092  0.0440
11858TIP3    H257066   2.234   0.507  11.829  0.4886 -0.3572  0.1500
11859TIP3   OH257067   6.187   4.420  15.402  0.4801 -0.6895 -0.0698
11859TIP3    H157068   6.194   4.403  15.495 -0.8542 -1.4663 -0.1032
11859TIP3    H257069   6.093   4.419  15.383  0.6390  0.8356 -1.1734
11860TIP3   OH257070   4.812   0.569  13.014 -0.9702  0.9357  0.7761
11860TIP3    H157071   4.839   0.599  12.927 -1.9584 -0.8281 -0.1956
11860TIP3    H257072   4.892   0.573  13.066 -0.0648  0.8501 -0.5472
11861TIP3   OH257073   4.957   4.365   2.334  0.8995 -0.1790  0.4241
11861TIP3    H157074   4.931   4.399   2.249 -0.4532  1.4818  1.4218
11861TIP3    H257075   5.052   4.355   2.329  0.9971  1.1039 -0.8758
11862TIP3   OH257076   3.946   0.210  16.784 -0.2094  0.1615  0.1912
11862TIP3    H157077   3.894   0.283  16.749 -1.6908 -1.4468 -1.1235
11862TIP3    H257078   3.905   0.190  16.869 -1.8900 -1.1289 -0.8566
11863TIP3   OH257079   5.945   4.676  15.316 -0.8757 -0.0705  0.5456
11863TIP3    H157080   6.035   4.704  15.333 -1.1405  0.6344  0.7869
11863TIP3    H257081   5.944   4.654  15.223 -0.8179  1.3295  0.1926
11864TIP3   OH257082   4.106   4.649  12.968  0.4820 -0.0870  0.1681
11864TIP3    H157083   4.176   4.683  13.023  0.8324  0.4716 -0.6075
11864TIP3    H257084   4.141   4.655  12.879 -0.0906 -0.9295 -0.1283
11865TIP3   OH257085   3.746   4.640   5.012 -0.3757  0.1588 -0.1821
11865TIP3    H157086   3.685   4.704   4.976 -1.7838 -0.7793  0.4427
11865TIP3    H257087   3.816   4.634   4.947  0.8668  3.6968  0.5576
11866TIP3   OH257088   4.126   5.552  16.654 -0.1780 -0.1199  0.2616
11866TIP3    H157089   4.201   5.525  16.706  0.5149  1.3763  0.1023
11866TIP3    H257090   4.053   5.499  16.686  1.0042 -1.8783  0.1597
11867TIP3   OH257091   6.146   5.067  14.419 -0.6227  0.5700  0.1396
11867TIP3    H157092   6.184   5.005  14.481  0.0690  1.9520  1.1585
11867TIP3    H257093   6.208   5.069  14.346  0.0570  1.0228  0.7100
11868TIP3   OH257094   6.248   6.284   1.865 -0.2870  0.4604 -0.2459
11868TIP3    H157095   6.255   6.190   1.845 -1.1647  0.3563 -0.0866
11868TIP3    H257096   6.168   6.312   1.821 -0.9323  0.7728  1.0944
11869TIP3   OH257097   4.604   5.299   2.149 -0.3191 -0.2620  0.1994
11869TIP3    H157098   4.530   5.354   2.123  0.0996  0.8555  1.2317
11869TIP3    H257099   4.675   5.361   2.166 -0.1859 -0.9599  2.6302
11870TIP3   OH257100   4.683   4.188   4.673  0.3651 -0.3847 -0.3351
11870TIP3    H157101   4.655   4.100   4.695 -0.9219  0.7132  3.0379
11870TIP3    H257102   4.628   4.213   4.599  0.3439 -2.1490 -0.9642
11871TIP3   OH257103   0.540   3.770   6.659  0.0793 -0.6164 -0.0839
11871TIP3    H157104   0.509   3.856   6.633 -0.2123 -0.7740 -0.2617
11871TIP3    H257105   0.593   3.786   6.737  0.4450 -0.2173 -0.4155
11872TIP3   OH257106   3.879   4.294   2.993 -0.1031 -0.0629 -0.3106
11872TIP3    H157107   3.964   4.329   3.019  0.3554 -1.9561  0.9365
11872TIP3    H257108   3.837   4.366   2.946  1.5003  1.4781  0.4936
11873TIP3   OH257109   0.789   3.148  16.185 -0.9735  0.5917 -0.2259
11873TIP3    H157110   0.881   3.166  16.207  0.4129 -2.4489 -2.7832
11873TIP3    H257111   0.766   3.073  16.239 -1.3638  0.2354 -0.8792
11874TIP3   OH257112   1.774   6.167   5.856  0.4546 -0.3433 -0.0585
11874TIP3    H157113   1.802   6.125   5.774  0.4598  2.7698 -1.8250
11874TIP3    H257114   1.855   6.187   5.902  0.4536 -2.0933  0.7756
11875TIP3   OH257115   0.840   2.547   4.373 -0.3456 -0.2695 -0.3415
11875TIP3    H157116   0.766   2.558   4.313 -1.0636  1.5920  0.8128
11875TIP3    H257117   0.887   2.630   4.369  0.1762 -0.4911  0.9098
11876TIP3   OH257118   2.830   0.156   1.559  0.0988  0.1163  1.1407
11876TIP3    H157119   2.888   0.155   1.483  0.4753 -1.5436  1.4251
11876TIP3    H257120   2.745   0.126   1.525 -0.5764  2.2154  0.7967
11877TIP3   OH257121   2.005   2.196  13.858 -0.8398 -0.4461 -0.6673
11877TIP3    H157122   1.921   2.170  13.897  0.5023 -1.3916  1.8620
11877TIP3    H257123   2.024   2.281  13.897  0.0142 -0.9093 -0.0060
11878TIP3   OH257124   6.187   5.473   6.560 -0.7299 -0.3344 -0.2403
11878TIP3    H157125   6.200   5.560   6.523  0.9964  0.3571  1.8194
11878TIP3    H257126   6.100   5.477   6.601  0.2364  1.2858  1.8437
11879TIP3   OH257127   6.074   4.745   0.845 -0.3290 -0.1256  0.1589
11879TIP3    H157128   6.008   4.728   0.777  0.1813 -1.3915 -0.0545
11879TIP3    H257129   6.035   4.711   0.925 -0.4484  0.2766  0.2704
11880TIP3   OH257130   3.470   3.619  15.350  0.2299 -0.4579  0.2120
11880TIP3    H157131   3.459   3.525  15.359  1.0681 -0.7260 -1.1769
11880TIP3    H257132   3.472   3.652  15.440 -1.1338 -1.6091  0.6956
11881TIP3   OH257133   1.643   4.399  13.473  0.1959 -0.6402  0.4358
11881TIP3    H157134   1.690   4.386  13.390  1.8177  1.0242  1.0330
11881TIP3    H257135   1.599   4.483  13.462 -0.5257 -0.9556  0.8693
11882TIP3   OH257136   6.583   4.162  16.441  0.2676  0.3390 -0.0638
11882TIP3    H157137   6.669   4.200  16.422  0.9130 -0.4831  1.0869
11882TIP3    H257138   6.579   4.084  16.386  0.9526 -0.4968  1.0324
11883TIP3   OH257139   2.741   1.445   5.950 -0.6321 -0.0824  0.1280
11883TIP3    H157140   2.749   1.443   6.046 -0.2155 -0.8918  0.0893
11883TIP3    H257141   2.647   1.443   5.933 -0.7015 -0.1907  0.5177
11884TIP3   OH257142   2.922   1.042   2.180 -0.4400  0.0217 -0.0567
11884TIP3    H157143   2.831   1.028   2.206 -0.0776 -1.0520  0.7098
11884TIP3    H257144   2.973   0.982   2.235  0.5787 -0.7127 -1.6799
11885TIP3   OH257145   6.087   4.944  13.732 -0.8067  0.6345  0.0399
11885TIP3    H157146   6.172   4.967  13.769 -0.0203 -0.9121 -0.7225
11885TIP3    H257147   6.100   4.945  13.638 -0.9410 -1.8309 -0.0872
11886TIP3   OH257148   6.747   3.878   5.581  0.0345 -0.0908 -0.7980
11886TIP3    H157149   6.831   3.893   5.537 -0.7982  2.2796 -1.7077
11886TIP3    H257150   6.683   3.872   5.510 -0.9596  1.0278 -0.0223
11887TIP3   OH257151   1.011   4.960  14.039  0.1309 -0.7767 -0.1770
11887TIP3    H157152   1.058   4.986  13.960 -1.5246 -0.2547 -1.0251
11887TIP3    H257153   1.068   4.989  14.111  1.0617 -0.0805 -1.1675
11888TIP3   OH257154   5.009   5.304  16.468 -0.7616 -0.4331  0.4602
11888TIP3    H157155   4.954   5.383  16.468 -1.5643 -0.9820  0.4904
11888TIP3    H257156   4.967   5.246  16.405  0.4870 -0.3955 -0.4500
11889TIP3   OH257157   5.202   6.505  16.105 -0.2184  0.0812 -0.2378
11889TIP3    H157158   5.256   6.455  16.044 -0.8887 -0.6198 -0.2695
11889TIP3    H257159   5.262   6.533  16.173 -0.0617 -1.9651  0.5235
11890TIP3   OH257160   5.912   2.749   3.382  0.6337  0.3988 -0.1377
11890TIP3    H157161   5.961   2.726   3.461 -1.4390  1.1842  1.4411
11890TIP3    H257162   5.934   2.679   3.320  3.1124  0.3082  0.7184
11891TIP3   OH257163   3.231   6.136  14.390  0.1929 -0.0639 -0.3725
11891TIP3    H157164   3.238   6.231  14.396  0.2023 -0.1160  0.5003
11891TIP3    H257165   3.312   6.103  14.427  0.1824 -0.4183 -0.6576
11892TIP3   OH257166   1.448   4.137  16.076  0.2174 -0.1282 -0.9648
11892TIP3    H157167   1.488   4.220  16.050  1.8744 -0.2775  0.9058
11892TIP3    H257168   1.357   4.160  16.097  0.4770  1.0831 -1.0881
11893TIP3   OH257169   3.827   0.266  12.630  0.1763  0.0726  0.0962
11893TIP3    H157170   3.892   0.323  12.588  0.0398 -0.2311 -0.5456
11893TIP3    H257171   3.782   0.225  12.557  0.3468 -0.9521  0.5542
11894TIP3   OH257172   2.948   3.455  17.405 -0.2172 -0.2207 -0.3886
11894TIP3    H157173   3.002   3.380  17.429 -0.8174 -1.0762 -1.6489
11894TIP3    H257174   3.006   3.508  17.350  0.3433  0.4903  0.8350
11895TIP3   OH257175   4.466   1.353   6.363  0.1119  0.0967  0.4709
11895TIP3    H157176   4.532   1.290   6.334 -0.8296 -0.0259 -1.5962
11895TIP3    H257177   4.409   1.364   6.287 -0.5796  2.3722  1.2515
11896TIP3   OH257178   6.389   5.846  15.505  0.0469  0.0706  0.5849
11896TIP3    H157179   6.460   5.800  15.548  0.4372 -0.1369 -0.2660
11896TIP3    H257180   6.323   5.779  15.489  0.6336 -0.2238 -0.6928
11897TIP3   OH257181   1.957   2.904  14.044  0.5344  0.1220  0.1344
11897TIP3    H157182   1.974   2.893  14.138 -1.5384 -0.4382  0.4770
11897TIP3    H257183   1.884   2.966  14.040  2.0869  1.9917 -1.2493
11898TIP3   OH257184   0.875   1.671  15.555  0.2141 -0.3572  0.3493
11898TIP3    H157185   0.844   1.602  15.497 -0.3133  0.2270 -0.0677
11898TIP3    H257186   0.899   1.743  15.497  0.7197 -0.1653  0.7867
11899TIP3   OH257187   5.394   1.163   2.062  0.1267 -0.0824  0.1370
11899TIP3    H157188   5.316   1.128   2.019  0.2823  0.0525 -0.2495
11899TIP3    H257189   5.425   1.091   2.116  0.1367 -0.3678 -0.2476
11900TIP3   OH257190   6.603   3.023   1.173 -0.1118  0.5789  0.0288
11900TIP3    H157191   6.646   2.944   1.204 -1.1319 -0.2827 -0.6834
11900TIP3    H257192   6.520   3.026   1.220 -0.5582  0.6234 -0.7386
11901TIP3   OH257193   1.595   0.430   4.910 -0.1665 -0.3593  0.2817
11901TIP3    H157194   1.512   0.401   4.947 -0.9390 -1.7679 -2.3318
11901TIP3    H257195   1.638   0.350   4.880  0.2766  0.6309 -1.9824
11902TIP3   OH257196   6.337   3.465  16.229  0.1374 -0.3487  0.3276
11902TIP3    H157197   6.365   3.445  16.318  0.1061  3.0170  1.2564
11902TIP3    H257198   6.242   3.473  16.235  0.2917  1.9318  0.5887
11903TIP3   OH257199   2.201   3.080   5.326  0.5943  0.2875  0.0088
11903TIP3    H157200   2.219   2.987   5.309  1.0052  0.3812 -0.0880
11903TIP3    H257201   2.107   3.084   5.343  0.7341 -0.2823  0.9315
11904TIP3   OH257202   3.814   0.153   6.737  0.1404  0.4620 -0.6294
11904TIP3    H157203   3.817   0.079   6.797  1.1028 -0.4903 -1.8139
11904TIP3    H257204   3.736   0.137   6.683 -0.3526  0.9778 -0.0879
11905TIP3   OH257205   4.789   4.529  16.120  0.5581 -0.1024  0.0120
11905TIP3    H157206   4.872   4.569  16.093  0.4784  0.7572  0.9665
11905TIP3    H257207   4.813   4.440  16.147  0.7538 -0.7419 -2.0440
11906TIP3   OH257208   5.130   2.195   1.194  0.4837 -0.5705 -0.3682
11906TIP3    H157209   5.185   2.262   1.235 -1.0492  1.8377 -1.9193
11906TIP3    H257210   5.060   2.179   1.257 -1.1637  2.1703 -1.2848
11907TIP3   OH257211   6.021   6.508   2.211  0.3466  0.5286 -0.1895
11907TIP3    H157212   5.932   6.540   2.227  0.4666  1.0857 -0.6086
11907TIP3    H257213   6.073   6.588   2.201  0.5931  0.2041 -1.6196
11908TIP3   OH257214   4.158   5.668  13.111  0.6033 -0.0880  0.2837
11908TIP3    H157215   4.120   5.595  13.159 -0.0397  0.4354  0.5856
11908TIP3    H257216   4.103   5.675  13.032  0.5630  0.1669  0.3347
11909TIP3   OH257217   1.700   2.578   2.669 -0.0157  0.3645  0.1208
11909TIP3    H157218   1.636   2.568   2.599  1.8164  1.1561 -1.7986
11909TIP3    H257219   1.648   2.601   2.747 -2.3401 -2.8631 -0.3010
11910TIP3   OH257220   1.534   0.977   5.609 -0.0596  0.2373 -0.4107
11910TIP3    H157221   1.555   0.885   5.592 -1.1797 -0.4824  1.6689
11910TIP3    H257222   1.619   1.020   5.612  0.7006 -1.2198  0.8411
11911TIP3   OH257223   1.353   5.585  12.660 -0.5867 -0.1326  0.1540
11911TIP3    H157224   1.301   5.510  12.632 -0.0065 -0.2133 -0.7379
11911TIP3    H257225   1.422   5.593  12.594 -0.1646  0.6946  0.6745
11912TIP3   OH257226   0.723   2.762  15.461 -0.0177 -0.1345  0.2707
11912TIP3    H157227   0.721   2.751  15.556  0.9529  0.0277  0.3199
11912TIP3    H257228   0.632   2.777  15.437 -0.5644 -2.1746  0.9199
11913TIP3   OH257229   6.232   3.645  13.728 -0.3031  0.2121 -0.2574
11913TIP3    H157230   6.302   3.709  13.744 -0.6959  0.6638 -0.3244
11913TIP3    H257231   6.184   3.680  13.653  0.7623 -1.2479 -1.6830
11914TIP3   OH257232   2.370   1.832  15.852 -0.8492 -0.4746 -0.6168
11914TIP3    H157233   2.328   1.746  15.843 -0.5446 -0.8884  1.4157
11914TIP3    H257234   2.415   1.827  15.936 -0.5581  1.5824 -0.6157
11915TIP3   OH257235   0.184   2.115   3.090  0.1393 -0.3801  0.0213
11915TIP3    H157236   0.208   2.032   3.129  1.1372  0.1199  0.4982
11915TIP3    H257237   0.088   2.113   3.086  0.0082 -0.6110  2.1622
11916TIP3   OH257238   4.019   4.531  11.271 -0.2644  0.5944 -0.1816
11916TIP3    H157239   3.965   4.553  11.347 -0.8859  1.5810 -0.8842
11916TIP3    H257240   4.084   4.470  11.305 -0.6058  0.9161  1.1159
11917TIP3   OH257241   0.320   1.369  17.451  0.3236  0.1026  0.1825
11917TIP3    H157242   0.302   1.445  17.505  1.3637  1.9640 -1.9500
11917TIP3    H257243   0.236   1.324  17.444 -1.0816  2.6862 -0.8359
11918TIP3   OH257244   2.271   5.805   3.940  0.0299 -0.0690 -0.3150
11918TIP3    H157245   2.363   5.785   3.959 -0.5924 -1.5267  1.5000
11918TIP3    H257246   2.268   5.816   3.845  1.5574 -3.2831 -0.9003
11919TIP3   OH257247   1.123   1.028   3.457 -0.2048 -0.0626  0.1588
11919TIP3    H157248   1.208   0.992   3.432 -0.1012  0.4138 -0.1688
11919TIP3    H257249   1.099   1.087   3.385 -0.2543  0.7386  0.8213
11920TIP3   OH257250   4.565   4.745  12.162 -0.3976 -0.1527 -0.2063
11920TIP3    H157251   4.635   4.741  12.228 -1.5652  0.7543  1.1585
11920TIP3    H257252   4.575   4.832  12.122 -0.0379 -0.4818 -0.8421
11921TIP3   OH257253   6.111   2.500  16.141  0.8267 -0.8221 -0.1042
11921TIP3    H157254   6.127   2.568  16.076 -2.8365 -1.1013 -1.5388
11921TIP3    H257255   6.073   2.546  16.216  1.3212 -0.9324  0.2161
11922TIP3   OH257256   5.426   2.062  14.665  0.1550 -0.3038 -0.2277
11922TIP3    H157257   5.361   1.996  14.641  0.3516 -0.2807 -0.8248
11922TIP3    H257258   5.381   2.118  14.729  0.5879 -2.1479  1.8345
11923TIP3   OH257259   2.707   2.727  13.241  0.0912 -0.4160 -0.3156
11923TIP3    H157260   2.750   2.681  13.169  0.5857 -0.8387  0.2423
11923TIP3    H257261   2.742   2.817  13.236 -0.5266 -0.2068 -1.1182
11924TIP3   OH257262   2.451   3.125  12.483  0.3889  0.3339  0.0103
11924TIP3    H157263   2.378   3.065  12.499 -2.1573  3.0894 -0.4106
11924TIP3    H257264   2.454   3.135  12.388  0.6845  0.9937  0.0824
11925TIP3   OH257265   1.963   0.051  16.431  0.1201  0.2612 -0.1353
11925TIP3    H157266   2.049   0.089  16.449  0.4250 -0.5925  0.2427
11925TIP3    H257267   1.906   0.088  16.498  0.0486  1.2734 -0.7270
11926TIP3   OH257268   1.967   5.222   2.635 -0.8108  0.1716 -0.0719
11926TIP3    H157269   1.937   5.306   2.598  0.6221  0.4314 -0.7020
11926TIP3    H257270   2.021   5.184   2.566  1.7276  0.5334  1.5954
11927TIP3   OH257271   4.433   3.808  17.158  0.2785 -0.1687  0.0736
11927TIP3    H157272   4.417   3.862  17.081 -0.0123 -1.2867 -0.6831
11927TIP3    H257273   4.368   3.738  17.152 -0.4387  0.2823  1.9111
11928TIP3   OH257274   0.045   1.799  11.703 -0.6057 -0.1537  0.3107
11928TIP3    H157275  -0.034   1.822  11.654 -0.4338  0.2206  0.2085
11928TIP3    H257276   0.093   1.881  11.712  1.0828 -0.7928 -1.8935
11929TIP3   OH257277   6.133   1.814  16.102  0.5324 -0.0784  0.5535
11929TIP3    H157278   6.167   1.879  16.040  1.4016  0.1195  1.2091
11929TIP3    H257279   6.209   1.761  16.125 -0.1295 -1.2109  0.1923
11930TIP3   OH257280   1.288   4.431  11.203  0.6356 -0.6810 -0.4629
11930TIP3    H157281   1.342   4.466  11.274  2.1678 -1.2382 -1.3098
11930TIP3    H257282   1.349   4.420  11.130 -0.8616 -0.3546 -1.7976
11931TIP3   OH257283   3.911   5.997   1.582  0.2430 -0.4279 -0.4375
11931TIP3    H157284   3.955   5.937   1.643  1.6346 -1.1843 -2.0821
11931TIP3    H257285   3.873   5.940   1.516 -1.8589  0.3404  0.0530
11932TIP3   OH257286   0.428   4.563   0.004  0.1100 -0.4508 -1.0272
11932TIP3    H157287   0.473   4.621  -0.058  0.2938  0.8310  0.2563
11932TIP3    H257288   0.346   4.541  -0.039 -0.1909  1.1849 -1.3667
11933TIP3   OH257289   1.266   4.476  11.743  0.5613 -0.4854  0.2468
11933TIP3    H157290   1.329   4.410  11.714  2.1449  1.6833 -1.7725
11933TIP3    H257291   1.211   4.491  11.666  0.5749  0.8412  0.4723
11934TIP3   OH257292   1.359   0.640   1.243 -0.3185  0.3716  1.0038
11934TIP3    H157293   1.408   0.592   1.309 -0.6193  0.5409  1.3558
11934TIP3    H257294   1.341   0.575   1.175 -1.7773 -0.3701  2.0291
11935TIP3   OH257295   3.723   3.695   3.560 -0.0499 -0.2821  0.3275
11935TIP3    H157296   3.677   3.710   3.478 -0.0529  0.2437  0.4237
11935TIP3    H257297   3.657   3.660   3.619  0.0852 -1.2463 -0.0651
11936TIP3   OH257298   2.839   1.835  16.293 -0.4628 -0.0541  0.8056
11936TIP3    H157299   2.752   1.873  16.293 -0.3503  0.2064  0.1410
11936TIP3    H257300   2.898   1.908  16.275 -0.2071 -0.4436  0.0380
11937TIP3   OH257301   4.915   0.798  11.494 -0.3920 -0.3028 -0.7229
11937TIP3    H157302   4.919   0.890  11.522 -0.4656 -0.3597 -0.5205
11937TIP3    H257303   4.844   0.761  11.546  1.4141 -1.1776  1.2865
11938TIP3   OH257304   4.850   5.669  11.592 -0.0265  0.7113 -0.0979
11938TIP3    H157305   4.823   5.577  11.589  0.3207  0.5043  1.9424
11938TIP3    H257306   4.943   5.665  11.614  0.9761  1.5049 -3.5558
11939TIP3   OH257307   1.227   2.468  11.561 -0.2577 -0.0488 -0.4976
11939TIP3    H157308   1.249   2.561  11.554 -0.1690 -0.1079 -1.0442
11939TIP3    H257309   1.275   2.439  11.639 -1.4939  0.6963  0.5823
11940TIP3   OH257310   1.757   6.047   0.539  0.3084  0.7298  0.4455
11940TIP3    H157311   1.698   6.121   0.528 -1.1088 -0.3032  0.7886
11940TIP3    H257312   1.729   5.984   0.472  1.6076  0.5506  0.0308
11941TIP3   OH257313   5.197   0.679   4.424 -0.1513 -0.3149 -0.9519
11941TIP3    H157314   5.281   0.645   4.392 -0.2885 -1.4298 -0.1941
11941TIP3    H257315   5.217   0.712   4.512  0.2024  2.6124 -2.0053
11942TIP3   OH257316   1.577   0.587  10.452  0.2270  0.0801 -0.6643
11942TIP3    H157317   1.510   0.656  10.452 -0.0236 -0.1081  0.9962
11942TIP3    H257318   1.660   0.634  10.457  0.1603  0.2926 -1.5031
11943TIP3   OH257319   2.124   6.534  16.494 -0.1454  0.1872  0.3713
11943TIP3    H157320   2.037   6.570  16.509 -0.5209  0.7624 -2.4888
11943TIP3    H257321   2.126   6.453  16.544 -2.5901 -0.1564  0.0327
11944TIP3   OH257322   0.309   4.010   2.116  0.2148 -0.4513  0.0198
11944TIP3    H157323   0.359   4.058   2.050  1.3674 -1.7359 -0.0734
11944TIP3    H257324   0.233   3.976   2.069 -0.1747  0.5446 -0.0988
11945TIP3   OH257325   5.742   5.551   4.041  0.2203 -0.2494  0.3224
11945TIP3    H157326   5.765   5.531   4.132 -2.1277  1.6359  1.4377
11945TIP3    H257327   5.685   5.480   4.014  0.7125 -0.6759  0.3784
11946TIP3   OH257328   2.914   5.284   3.893 -0.4374 -0.1815 -0.3690
11946TIP3    H157329   2.931   5.328   3.810 -0.8745  0.4678 -0.1283
11946TIP3    H257330   2.865   5.348   3.944 -1.6224 -1.1595 -0.2272
11947TIP3   OH257331   1.946   5.426  15.023  0.4926  0.2690  0.0403
11947TIP3    H157332   2.019   5.367  15.041 -0.6100 -0.8258  1.1268
11947TIP3    H257333   1.961   5.501  15.080  1.2217  0.4709 -0.4008
11948TIP3   OH257334   6.532   6.286   5.332 -0.1890 -0.1152 -0.4653
11948TIP3    H157335   6.554   6.307   5.241  1.2437  0.8945  0.0657
11948TIP3    H257336   6.460   6.223   5.326  0.1310 -0.3636 -2.2955
11949TIP3   OH257337   1.542   0.668   0.303  0.3256  0.5153 -0.2184
11949TIP3    H157338   1.626   0.624   0.291 -0.3313 -0.6606 -0.6431
11949TIP3    H257339   1.565   0.759   0.319  1.6880  0.1834 -0.1634
11950TIP3   OH257340   4.697   6.503  14.257  0.7977 -0.1643 -0.2517
11950TIP3    H157341   4.652   6.445  14.195 -0.6640  0.2375  0.3704
11950TIP3    H257342   4.723   6.445  14.328  0.7101 -0.3098 -0.3366
11951TIP3   OH257343   5.832   5.259  12.879 -0.2600 -0.3213 -0.7221
11951TIP3    H157344   5.785   5.198  12.821  0.9644 -1.0228 -1.0099
11951TIP3    H257345   5.780   5.261  12.959 -0.8253 -1.0170 -1.0572
11952TIP3   OH257346   1.417   4.085  13.741 -0.2926  0.0127  0.7102
11952TIP3    H157347   1.346   4.129  13.788  0.4482 -1.0874  3.0042
11952TIP3    H257348   1.400   3.992  13.754  0.2252 -0.3273 -0.8576
11953TIP3   OH257349   3.812   5.940  13.020 -0.0335  0.0913  0.1137
11953TIP3    H157350   3.802   5.884  12.944 -0.9155  0.4369 -0.0346
11953TIP3    H257351   3.762   5.897  13.089  0.5228 -0.0710  0.4195
11954TIP3   OH257352   3.825   1.076  13.064  0.1247  0.5440 -0.2035
11954TIP3    H157353   3.917   1.102  13.064 -0.2714  2.0549 -0.8743
11954TIP3    H257354   3.786   1.128  12.993 -1.5871  1.2239  1.1825
11955TIP3   OH257355   4.088   5.199  13.795  0.1924  0.2841  0.7626
11955TIP3    H157356   4.126   5.221  13.881  1.1109 -2.0251  1.0113
11955TIP3    H257357   4.078   5.104  13.797 -0.2331  0.2343 -1.5366
11956TIP3   OH257358   0.546   3.706  14.582  0.1776  0.6157 -0.6094
11956TIP3    H157359   0.509   3.709  14.494 -1.6516 -0.8973  0.0605
11956TIP3    H257360   0.471   3.696  14.640  1.5105 -1.7677  0.8822
11957TIP3   OH257361   4.774   1.430  11.844 -0.2984  0.4285 -0.5860
11957TIP3    H157362   4.832   1.376  11.790 -1.0896 -1.6055  0.4782
11957TIP3    H257363   4.822   1.440  11.927 -0.4066  0.8580 -0.5750
11958TIP3   OH257364   4.425   0.419  11.010  0.2330  0.3635 -0.0404
11958TIP3    H157365   4.456   0.506  10.985  0.1480 -0.0105 -1.5555
11958TIP3    H257366   4.504   0.366  11.019  0.4866  1.0889  3.2111
11959TIP3   OH257367   3.726   6.613  11.224 -0.1669 -0.0051 -0.3711
11959TIP3    H157368   3.673   6.583  11.298 -1.2315 -1.4274 -1.6264
11959TIP3    H257369   3.728   6.538  11.165  4.2873 -0.4916  0.0543
11960TIP3   OH257370   3.511   1.176   1.396 -0.4164  0.6506 -0.1282
11960TIP3    H157371   3.499   1.190   1.302  1.2368  0.2240 -0.4390
11960TIP3    H257372   3.469   1.092   1.414  1.0388 -0.2960 -0.9405
11961TIP3   OH257373   0.340   5.757   0.498 -0.2025 -0.2095  0.0731
11961TIP3    H157374   0.409   5.777   0.435  0.1615 -1.3059  0.1030
11961TIP3    H257375   0.265   5.809   0.468  0.2431  0.0115 -0.7082
11962TIP3   OH257376   0.389   5.064   2.107  0.4412  0.5132  0.8646
11962TIP3    H157377   0.455   5.122   2.146 -0.2156  2.3521 -0.5875
11962TIP3    H257378   0.305   5.099   2.139 -0.0388  1.2946 -1.0743
11963TIP3   OH257379   1.204   3.396   4.994 -0.1150  0.1490  0.3746
11963TIP3    H157380   1.235   3.375   5.082 -0.5779 -0.4924  0.3890
11963TIP3    H257381   1.195   3.491   4.994  1.5480  0.3373  0.4621
11964TIP3   OH257382   5.028   3.121   3.181  0.6501  0.7073  0.7309
11964TIP3    H157383   5.057   3.185   3.117  2.7094 -1.8182 -1.0798
11964TIP3    H257384   4.935   3.107   3.161  0.6500  1.7562 -0.0526
11965TIP3   OH257385   3.628   2.874   1.229 -0.0941  0.2110  0.0640
11965TIP3    H157386   3.688   2.927   1.282 -1.6176  0.5634  1.5503
11965TIP3    H257387   3.669   2.788   1.226  0.0453  0.1507  1.9464
11966TIP3   OH257388   3.207   4.354  12.916  0.3575  0.4511 -0.4279
11966TIP3    H157389   3.139   4.414  12.884 -0.3885 -0.6081 -0.8948
11966TIP3    H257390   3.194   4.350  13.010 -0.9459 -0.5535 -0.6205
11967TIP3   OH257391   4.554   3.401   0.520 -0.0343  0.2713 -0.4706
11967TIP3    H157392   4.606   3.420   0.598 -0.4211  1.4366 -0.4678
11967TIP3    H257393   4.607   3.434   0.448  0.3473 -0.8520 -0.7199
11968TIP3   OH257394   2.011   1.317   0.606 -0.1661 -0.1513  0.0867
11968TIP3    H157395   1.955   1.381   0.563  1.8232  0.5409 -1.6244
11968TIP3    H257396   1.983   1.233   0.571 -3.7733 -0.5944  3.4125
11969TIP3   OH257397   0.327   5.410   1.995  0.4481  0.7419 -0.1705
11969TIP3    H157398   0.304   5.486   1.941  0.6750  1.0777  0.2012
11969TIP3    H257399   0.310   5.439   2.085 -0.6091 -0.0499 -0.0965
11970TIP3   OH257400   0.541   0.178   6.086 -0.1903  0.8852 -0.2155
11970TIP3    H157401   0.464   0.208   6.134 -0.8274  0.6149 -1.0426
11970TIP3    H257402   0.580   0.111   6.141 -1.3310  0.0523 -0.3936
11971TIP3   OH257403   2.971   6.251  13.085  0.2617 -0.0510  0.4458
11971TIP3    H157404   2.990   6.339  13.117  1.4967  0.1319 -0.7204
11971TIP3    H257405   2.901   6.263  13.021  0.1731  0.0389  0.5599
11972TIP3   OH257406   3.082   0.540  17.422 -0.1098 -0.2179  0.0980
11972TIP3    H157407   3.008   0.481  17.435 -0.9417  0.7685 -0.0067
11972TIP3    H257408   3.151   0.485  17.385  0.2682 -1.8403  2.8974
11973TIP3   OH257409   3.715   4.698   0.008 -0.2965 -0.2639 -0.5686
11973TIP3    H157410   3.767   4.664  -0.065  0.9005  0.0030  0.1267
11973TIP3    H257411   3.717   4.793  -0.004  2.1685  0.0016  1.2077
11974TIP3   OH257412   2.494   5.212  12.361  0.2707 -0.2832 -0.2241
11974TIP3    H157413   2.543   5.183  12.284  3.1148 -1.9970  2.0180
11974TIP3    H257414   2.473   5.131  12.408 -1.9137  0.6713  0.5855
11975TIP3   OH257415   3.269   5.989   2.760  0.1207 -0.1837  0.1191
11975TIP3    H157416   3.186   6.011   2.801  0.5350 -0.4331  1.1396
11975TIP3    H257417   3.290   6.065   2.706 -1.2957 -0.5798 -1.0316
11976TIP3   OH257418   5.155   5.646  10.727  0.2401  0.6691 -0.6809
11976TIP3    H157419   5.070   5.680  10.754  0.1379 -0.0798 -0.0278
11976TIP3    H257420   5.174   5.691  10.645 -1.3034  0.0338 -1.4189
11977TIP3   OH257421   5.669   6.361  15.980  0.3865  0.5658 -0.7097
11977TIP3    H157422   5.597   6.304  15.955 -0.7852  1.9654 -0.7043
11977TIP3    H257423   5.630   6.449  15.982  1.9563  1.2904 -0.1258
11978TIP3   OH257424   3.962   0.924   3.171 -0.1509  0.5140  0.1341
11978TIP3    H157425   4.041   0.917   3.225 -0.4450 -1.2394  0.4103
11978TIP3    H257426   3.894   0.953   3.232 -0.0441  0.5544  0.2345
11979TIP3   OH257427   4.834   1.874   5.255 -0.0201  0.8634  0.1418
11979TIP3    H157428   4.865   1.965   5.258 -1.0033  1.1913  0.8417
11979TIP3    H257429   4.792   1.866   5.169 -0.2566  1.1896  0.2236
11980TIP3   OH257430   1.255   1.944   0.138  0.1477  0.3910 -0.5512
11980TIP3    H157431   1.327   1.898   0.094  0.3616  0.2652 -0.0755
11980TIP3    H257432   1.243   1.897   0.220  1.1963  1.8872  0.5256
11981TIP3   OH257433   4.294   4.557   0.233  0.1763  0.0107  0.0894
11981TIP3    H157434   4.322   4.531   0.146 -0.7979 -1.1114  0.0944
11981TIP3    H257435   4.198   4.553   0.230  0.1155  0.3722  1.0869
11982TIP3   OH257436   6.602   6.655   2.513  0.2776 -0.2678 -0.1734
11982TIP3    H157437   6.638   6.736   2.479 -0.4357 -0.4821 -1.5207
11982TIP3    H257438   6.636   6.648   2.602  1.0049  1.0802 -0.3316
11983TIP3   OH257439   4.004   5.886  11.223  0.2574 -0.1777  0.8972
11983TIP3    H157440   4.007   5.867  11.129  2.8148  2.1066  0.3740
11983TIP3    H257441   3.941   5.823  11.259 -0.3361 -1.5398 -2.2188
11984TIP3   OH257442   2.633   0.550   5.716  0.0219  0.1364  0.2018
11984TIP3    H157443   2.685   0.631   5.711  1.1086 -0.5206  0.4321
11984TIP3    H257444   2.563   0.570   5.778  1.0966  0.4854  1.3496
11985TIP3   OH257445   4.953   0.494  13.815  0.4938 -0.1342  0.0302
11985TIP3    H157446   5.019   0.425  13.805  1.1892  0.4521  0.4813
11985TIP3    H257447   4.909   0.496  13.730  0.9725 -0.6231 -0.2416
11986TIP3   OH257448   3.145   0.999   1.597 -0.2625  0.8739 -0.0311
11986TIP3    H157449   3.163   1.089   1.624  1.2146  0.9393 -1.0892
11986TIP3    H257450   3.060   1.004   1.554 -0.9936  1.4170  1.4074
11987TIP3   OH257451   6.666   4.257  11.918 -0.8071 -0.0679  0.0090
11987TIP3    H157452   6.736   4.270  11.854 -1.1231 -1.4799 -0.6715
11987TIP3    H257453   6.587   4.244  11.865 -1.6688  1.7863  0.7731
11988TIP3   OH257454   5.296   1.005  11.598  0.5051  0.1505 -0.0718
11988TIP3    H157455   5.214   1.046  11.571 -0.4718 -0.1453  2.2077
11988TIP3    H257456   5.360   1.076  11.595 -0.1686  0.7565 -0.4618
11989TIP3   OH257457   2.925   4.210   5.373  0.2574  0.0189 -0.0228
11989TIP3    H157458   2.973   4.130   5.355  1.1439  0.5750 -0.2092
11989TIP3    H257459   2.980   4.258   5.435 -1.8195 -1.0079  2.8615
11990TIP3   OH257460   5.483   4.939   5.090  0.4360  0.2320  0.8740
11990TIP3    H157461   5.513   5.025   5.061  0.0096  0.4094  0.9549
11990TIP3    H257462   5.533   4.922   5.169  0.0705  0.6826  1.2050
11991TIP3   OH257463   5.396   4.016   5.431  1.0515  0.2130 -0.3572
11991TIP3    H157464   5.350   3.933   5.439  0.0650  0.5115 -2.2670
11991TIP3    H257465   5.488   3.993   5.428  0.7172 -1.1174 -3.2681
11992TIP3   OH257466   6.670   1.805  14.519 -0.7269 -0.5046 -0.0965
11992TIP3    H157467   6.649   1.802  14.426 -1.7855 -1.8407  0.1576
11992TIP3    H257468   6.704   1.893  14.534 -1.5286  0.0675 -1.5330
11993TIP3   OH257469   0.197   6.305   3.859  0.4282  0.3894  0.1517
11993TIP3    H157470   0.291   6.317   3.868  0.4666  0.2642 -0.0911
11993TIP3    H257471   0.187   6.240   3.790  0.1309  1.1409 -0.5220
11994TIP3   OH257472   0.631   5.332  15.323 -0.0928  0.0492  0.9691
11994TIP3    H157473   0.716   5.345  15.366  0.5378  1.7620 -0.6752
11994TIP3    H257474   0.583   5.275  15.384  2.6032 -2.0115  1.4197
11995TIP3   OH257475   3.676   0.660  12.459 -0.2563  0.0747  0.7530
11995TIP3    H157476   3.630   0.727  12.408  2.1461  1.0226 -0.3500
11995TIP3    H257477   3.723   0.608  12.393 -2.1507 -2.8908  1.5638
11996TIP3   OH257478   2.674   5.652   4.800  0.4498  0.1598  0.2193
11996TIP3    H157479   2.589   5.675   4.763 -0.2357 -0.7177  1.2184
11996TIP3    H257480   2.712   5.592   4.736 -0.3176 -0.5926  0.4525
11997TIP3   OH257481   5.698   6.152   1.707  0.1200 -0.0533 -0.1246
11997TIP3    H157482   5.698   6.057   1.719 -1.5684 -0.1667 -0.6441
11997TIP3    H257483   5.686   6.163   1.612 -1.4311  0.6259  0.1154
11998TIP3   OH257484   1.356   1.885   3.754  0.0004  0.8330  0.2866
11998TIP3    H157485   1.350   1.921   3.842 -1.9241 -0.1209  0.5889
11998TIP3    H257486   1.324   1.955   3.697  1.3443  1.4887  0.2966
11999TIP3   OH257487   0.137   2.904   1.120 -0.7031 -0.1817  0.0780
11999TIP3    H157488   0.219   2.872   1.157 -0.4434  2.8736  2.5744
11999TIP3    H257489   0.162   2.963   1.050 -0.7866  0.1171  0.2959
12000TIP3   OH257490   1.738   1.194  17.484 -0.3430  0.7085  0.0554
12000TIP3    H157491   1.724   1.166  17.394  0.8338 -0.4937  0.2112
12000TIP3    H257492   1.689   1.276  17.492 -1.6151  0.1191 -1.2579
12001TIP3   OH257493   1.289   3.491  15.748  0.3784  0.1544  0.5074
12001TIP3    H157494   1.245   3.573  15.768  0.1742  0.3711 -0.7572
12001TIP3    H257495   1.225   3.423  15.771  1.0912  0.2322  2.9880
12002TIP3   OH257496   1.479   6.218  12.532  0.0302 -0.0491 -0.2295
12002TIP3    H157497   1.555   6.230  12.475  0.2286  1.2393  0.2602
12002TIP3    H257498   1.504   6.149  12.593  1.4398  1.3425  0.8777
12003TIP3   OH257499   1.982   1.044  15.551 -0.0227 -0.0809  0.3493
12003TIP3    H157500   2.046   1.085  15.493  0.2796 -1.3390 -0.2548
12003TIP3    H257501   2.003   1.078  15.638 -1.0927  2.5873 -0.3378
12004TIP3   OH257502   4.773   1.920   3.036 -0.6420  0.6085  0.0828
12004TIP3    H157503   4.815   1.869   2.966 -0.9639 -0.2006  0.4688
12004TIP3    H257504   4.785   2.011   3.009  0.4898  0.3664 -0.3183
12005TIP3   OH257505   5.526   1.413  16.164  0.1074  0.9516  0.4088
12005TIP3    H157506   5.564   1.387  16.080  0.3800  1.7716  0.2786
12005TIP3    H257507   5.531   1.508  16.165  0.4368  0.9363  1.5182
12006TIP3   OH257508   1.261   0.905   1.212 -0.3261  0.2594  0.8207
12006TIP3    H157509   1.295   0.828   1.167 -3.0195  0.2637 -1.5772
12006TIP3    H257510   1.202   0.869   1.279  0.9517  0.2843  2.0010
12007TIP3   OH257511   4.285   0.907  14.966 -0.3772 -0.9039  0.3063
12007TIP3    H157512   4.233   0.889  15.045  0.5746 -2.4033  0.6456
12007TIP3    H257513   4.244   0.852  14.899 -1.8045  1.1135 -0.5691
12008TIP3   OH257514   3.941   5.572   0.595  0.7107  0.0314  0.0339
12008TIP3    H157515   3.981   5.498   0.548  0.3242 -0.1791  0.0396
12008TIP3    H257516   3.848   5.565   0.576  0.6989  0.6500 -0.1459
12009TIP3   OH257517   1.438   3.599  11.224 -0.8484 -0.0930  0.4959
12009TIP3    H157518   1.363   3.578  11.169  0.5373 -1.8418 -0.8501
12009TIP3    H257519   1.498   3.646  11.167  0.4825 -1.6678  0.5327
12010TIP3   OH257520   4.477   0.845   2.847 -0.7841  0.0113 -0.2108
12010TIP3    H157521   4.572   0.849   2.847 -0.8247  1.4575 -0.3966
12010TIP3    H257522   4.452   0.855   2.939 -0.7625 -0.8167 -0.1038
12011TIP3   OH257523   5.126   1.234   2.509  0.7876 -0.1616 -0.0989
12011TIP3    H157524   5.170   1.150   2.495  1.7907  0.4306 -0.6883
12011TIP3    H257525   5.187   1.299   2.473  0.0373  0.8211  0.3455
12012TIP3   OH257526   4.035   2.148  12.360  0.8834  0.3060  0.5478
12012TIP3    H157527   4.030   2.054  12.376  2.2940 -0.1866 -1.4340
12012TIP3    H257528   3.982   2.161  12.281  0.0715  1.3230  1.2405
12013TIP3   OH257529   4.608   3.565   2.183 -0.7999  0.0062 -0.2995
12013TIP3    H157530   4.656   3.487   2.155  0.3290  0.1594  1.1208
12013TIP3    H257531   4.583   3.547   2.273  3.0557  2.7945  1.6087
12014TIP3   OH257532   0.306   1.840  16.038  0.1205 -0.2760 -0.3953
12014TIP3    H157533   0.329   1.933  16.035  0.1841 -0.2857 -0.2021
12014TIP3    H257534   0.235   1.834  16.102  1.6387 -0.6696  1.3593
12015TIP3   OH257535   4.230   0.190   5.750  0.0111 -0.1650  0.0339
12015TIP3    H157536   4.267   0.168   5.665  0.8329 -0.2872  0.4177
12015TIP3    H257537   4.261   0.279   5.767 -0.0163 -0.2029  0.2805
12016TIP3   OH257538   5.731   3.663   0.601 -0.2020 -0.3220 -0.6868
12016TIP3    H157539   5.707   3.601   0.531 -0.3309  0.1304 -1.0439
12016TIP3    H257540   5.700   3.748   0.570  0.1208 -0.0473 -0.2686
12017TIP3   OH257541   0.518   4.369   0.576  0.4600 -0.2802  0.2576
12017TIP3    H157542   0.491   4.427   0.647 -1.2712  1.5559 -1.7354
12017TIP3    H257543   0.452   4.300   0.574  1.1804 -1.0118  1.1382
12018TIP3   OH257544   5.675   0.113  11.363 -0.2545  0.8724 -0.2773
12018TIP3    H157545   5.608   0.124  11.296 -1.2486 -1.4984  0.2428
12018TIP3    H257546   5.698   0.020  11.360  0.3418  0.8829  2.0104
12019TIP3   OH257547   4.253   1.778   0.018  0.1053 -0.4197  0.1581
12019TIP3    H157548   4.262   1.813   0.106 -2.0026 -0.2793  0.3471
12019TIP3    H257549   4.186   1.832  -0.023  2.2478  0.6663 -2.1821
12020TIP3   OH257550   1.989   0.178  12.493 -0.0555 -0.1021  0.2918
12020TIP3    H157551   2.035   0.231  12.427  2.1797 -2.5750 -0.3367
12020TIP3    H257552   2.020   0.211  12.577  0.2208  0.4729 -0.0330
12021TIP3   OH257553   5.454   5.696  16.190  0.7009  0.1455 -0.3331
12021TIP3    H157554   5.458   5.753  16.267  0.5115  0.7887 -0.7888
12021TIP3    H257555   5.545   5.689  16.161  0.8750 -0.7173  0.3835
12022TIP3   OH257556   2.818   1.558  11.265 -0.7795 -0.1054  0.0041
12022TIP3    H157557   2.816   1.616  11.341  1.1203 -0.5166  0.4190
12022TIP3    H257558   2.766   1.482  11.291 -0.1807 -0.2272  0.8847
12023TIP3   OH257559   1.195   6.523  16.866  0.0279 -0.4897 -0.9617
12023TIP3    H157560   1.282   6.561  16.851  0.4858 -0.0372  2.1441
12023TIP3    H257561   1.134   6.589  16.832  0.8945  0.6833 -0.3448
12024TIP3   OH257562   0.715   0.474  15.746 -0.0070  0.3243 -0.1599
12024TIP3    H157563   0.635   0.492  15.698  0.2001  0.0623 -0.6070
12024TIP3    H257564   0.770   0.550  15.730 -0.4683  0.8739  0.8046
12025TIP3   OH257565   0.307   4.199   3.418  0.0601 -0.2302 -0.1072
12025TIP3    H157566   0.231   4.240   3.377 -0.2830 -0.5606  0.1983
12025TIP3    H257567   0.352   4.154   3.347  0.1399  0.2136 -0.3446
12026TIP3   OH257568   4.515   5.574   4.876  0.2703  0.0785  0.3951
12026TIP3    H157569   4.545   5.531   4.956 -0.4698  0.5645  0.9455
12026TIP3    H257570   4.541   5.666   4.887 -1.4049  0.5231  0.9081
12027TIP3   OH257571   1.939   4.062  13.049 -0.1418  0.1703  0.1388
12027TIP3    H157572   1.994   4.033  12.977 -1.4666 -0.5225 -0.6238
12027TIP3    H257573   1.988   4.037  13.128  0.4735 -0.7216 -0.5107
12028TIP3   OH257574   0.095   3.256   0.271  0.7441 -0.3548 -0.6023
12028TIP3    H157575   0.041   3.249   0.192  1.4312  0.7824 -1.2095
12028TIP3    H257576   0.179   3.290   0.240  0.6061  1.4039  0.7578
12029TIP3   OH257577   3.824   3.888  17.404 -0.1116 -0.6568  0.1102
12029TIP3    H157578   3.740   3.928  17.382  0.4236  0.3672 -0.1334
12029TIP3    H257579   3.856   3.938  17.479  0.9676 -0.0388 -0.7257
12030TIP3   OH257580   5.912   1.302   0.112  0.0358 -0.1747 -0.2404
12030TIP3    H157581   5.899   1.384   0.064  1.7780  0.1387 -0.2324
12030TIP3    H257582   5.983   1.257   0.065 -0.7020 -1.5753 -0.0878
12031TIP3   OH257583   6.579   1.601  13.709  0.7289  0.1267  0.0636
12031TIP3    H157584   6.570   1.669  13.776  0.0905  0.3289 -0.2219
12031TIP3    H257585   6.585   1.649  13.626  2.1608 -0.0948  0.0167
12032TIP3   OH257586   0.374   5.451   3.589  0.2694 -1.4510  0.1314
12032TIP3    H157587   0.281   5.433   3.602  0.1743 -2.5785 -1.6673
12032TIP3    H257588   0.418   5.394   3.652 -0.2324 -0.7443  1.1548
12033TIP3   OH257589   4.898   4.612   1.750 -0.5437  0.1966 -0.9878
12033TIP3    H157590   4.808   4.618   1.781  0.5280  2.0423  2.2852
12033TIP3    H257591   4.947   4.581   1.826  1.9621  2.0849 -1.6909
12034TIP3   OH257592   3.588   4.876   1.177  0.4027 -0.6575  0.2633
12034TIP3    H157593   3.636   4.814   1.231  3.1795  0.9475 -0.1833
12034TIP3    H257594   3.575   4.830   1.094  3.2001 -0.4659 -0.3771
12035TIP3   OH257595   3.306   5.764   4.637 -0.0795 -0.1983 -0.1537
12035TIP3    H157596   3.302   5.718   4.721 -1.0745 -0.4476 -0.3166
12035TIP3    H257597   3.320   5.695   4.572 -0.5447 -0.1582 -0.3011
12036TIP3   OH257598   0.485   3.478  12.953  0.4751  0.6172 -0.1125
12036TIP3    H157599   0.524   3.413  12.894 -0.0698 -0.5066  0.7363
12036TIP3    H257600   0.392   3.479  12.929  0.2932  0.3161  0.5773
12037TIP3   OH257601   0.434   2.502  14.150  0.3917  0.1402 -0.2092
12037TIP3    H157602   0.474   2.472  14.068  2.9111  1.6829  0.3426
12037TIP3    H257603   0.506   2.502  14.213 -1.3424 -0.4467  1.9190
12038TIP3   OH257604   0.163   2.797  14.970  0.1553 -0.3148 -0.7327
12038TIP3    H157605   0.235   2.737  14.953  0.3023 -1.1632  2.3016
12038TIP3    H257606   0.092   2.766  14.915  0.7781 -2.2272 -0.5296
12039TIP3   OH257607   1.321   3.453  11.900  0.0230  0.1312 -0.0417
12039TIP3    H157608   1.376   3.517  11.946  0.7708  0.9136 -1.9546
12039TIP3    H257609   1.382   3.393  11.859 -0.6536 -0.8064  0.2954
12040TIP3   OH257610   5.567   5.084  14.900  0.3018  0.0942 -0.5262
12040TIP3    H157611   5.481   5.126  14.911 -0.4746 -1.2785 -1.0088
12040TIP3    H257612   5.586   5.045  14.985  1.0772  1.4487 -0.0441
12041TIP3   OH257613   1.055   1.416   0.451  0.1750  0.8111 -0.6406
12041TIP3    H157614   0.971   1.418   0.496  0.2159 -1.6841 -0.2687
12041TIP3    H257615   1.036   1.442   0.361 -0.5089  2.5898 -0.0271
12042TIP3   OH257616   1.513   5.513  14.118  0.1714 -0.0256  0.1302
12042TIP3    H157617   1.490   5.475  14.202 -0.1481 -0.3644 -0.1095
12042TIP3    H257618   1.429   5.539  14.079  0.4551  2.5588  1.0329
12043TIP3   OH257619   2.709   2.127   2.209  0.5711  0.1885  0.0447
12043TIP3    H157620   2.627   2.078   2.213  0.1020  1.0276  1.6405
12043TIP3    H257621   2.749   2.100   2.127 -1.5724  0.1898 -1.0629
12044TIP3   OH257622   0.293   0.836   5.594 -0.1455 -0.2249 -0.2268
12044TIP3    H157623   0.315   0.927   5.612  2.9326 -0.5522 -1.6568
12044TIP3    H257624   0.332   0.819   5.508 -1.6524 -2.5895 -0.5182
12045TIP3   OH257625   0.058   0.536   0.497 -0.8497  0.1703  0.3434
12045TIP3    H157626   0.108   0.462   0.529  0.5918  0.9477 -0.0205
12045TIP3    H257627   0.005   0.501   0.425 -0.9617 -0.6928  0.8348
12046TIP3   OH257628   2.649   3.006   4.856  0.2370  0.0677 -0.6174
12046TIP3    H157629   2.696   2.960   4.786 -0.1366 -0.8665 -0.2777
12046TIP3    H257630   2.702   2.989   4.934  0.1947  0.3728 -0.5241
12047TIP3   OH257631   0.457   0.345   1.568  0.0978  0.1961  0.2715
12047TIP3    H157632   0.403   0.356   1.490  0.0617  1.3537  0.4406
12047TIP3    H257633   0.404   0.290   1.626 -1.2007  1.7575  0.6572
12048TIP3   OH257634   5.753   6.205   4.840  0.4668  0.7461  0.3896
12048TIP3    H157635   5.665   6.187   4.807  1.0674  1.2139 -1.5759
12048TIP3    H257636   5.749   6.178   4.932 -1.1185 -1.2154 -0.1616
12049TIP3   OH257637   6.165   4.953   4.964  0.3430 -0.1758 -0.3461
12049TIP3    H157638   6.079   4.986   4.991  0.9573  0.4474  0.9324
12049TIP3    H257639   6.207   5.029   4.922  1.4867  0.5768  1.9639
12050TIP3   OH257640   0.185   3.343   1.131 -0.6548 -0.1129  0.2777
12050TIP3    H157641   0.152   3.273   1.075 -0.0991  0.2007 -0.4490
12050TIP3    H257642   0.159   3.316   1.220 -3.3185  0.3643 -0.2708
12051TIP3   OH257643   5.548   5.250   5.960  0.2649  0.0822 -0.2180
12051TIP3    H157644   5.551   5.158   5.986  0.4201  0.1675  0.0695
12051TIP3    H257645   5.640   5.276   5.954  0.2271  0.1254 -0.6380
12052TIP3   OH257646   6.299   5.469  14.084  0.8831  0.3102  0.0219
12052TIP3    H157647   6.276   5.560  14.103  3.5078  0.9336  0.6159
12052TIP3    H257648   6.264   5.420  14.158  3.4555  1.5520  2.2294
12053TIP3   OH257649   4.739   6.087  13.785 -0.0094  0.3021 -0.0367
12053TIP3    H157650   4.700   6.068  13.870 -1.5754  0.4287 -0.7064
12053TIP3    H257651   4.758   6.181  13.787  2.1156 -0.0783  0.9943
12054TIP3   OH257652   5.622   0.230  16.079 -0.2405  0.4042  0.3129
12054TIP3    H157653   5.699   0.173  16.083 -0.4777  0.0995  0.6147
12054TIP3    H257654   5.638   0.287  16.004  0.3447  0.4359  0.4539
12055TIP3   OH257655   3.675   1.205   6.415  0.1913 -0.8006 -0.8377
12055TIP3    H157656   3.721   1.281   6.379  0.5040 -1.1002 -1.0832
12055TIP3    H257657   3.582   1.226   6.407  0.2749  0.0264  0.1074
12056TIP3   OH257658   0.680   6.130   1.255 -0.4916 -0.0838  0.1147
12056TIP3    H157659   0.623   6.115   1.180 -2.2451  0.8015  1.1932
12056TIP3    H257660   0.654   6.063   1.318 -1.5098  1.2611  1.2067
12057TIP3   OH257661   3.969   1.640  13.389  0.0027 -0.3562 -0.1080
12057TIP3    H157662   3.947   1.550  13.415  0.0392  0.1995  2.0041
12057TIP3    H257663   3.888   1.675  13.352  0.0627 -1.3074 -1.2120
12058TIP3   OH257664   4.998   0.989   4.634 -0.5891  0.1173 -0.5629
12058TIP3    H157665   5.046   1.069   4.655  2.4536 -1.3573 -1.3568
12058TIP3    H257666   4.944   0.973   4.711 -0.8232  2.5800 -0.1395
12059TIP3   OH257667   6.072   1.459   6.021 -0.7216 -0.8363  0.2791
12059TIP3    H157668   6.081   1.537   6.074  0.3912  0.0888 -1.2093
12059TIP3    H257669   6.114   1.390   6.072 -1.6062 -0.4854  1.5471
12060TIP3   OH257670   3.570   3.855   6.394  0.2274  0.1936 -0.6711
12060TIP3    H157671   3.646   3.836   6.450  0.9706 -0.4776 -1.8538
12060TIP3    H257672   3.515   3.777   6.401 -0.6542  0.8855  0.5892
12061TIP3   OH257673   5.787   0.033  14.942  0.1936 -0.3434  0.0454
12061TIP3    H157674   5.729  -0.017  15.000 -1.7072  1.8897  0.2082
12061TIP3    H257675   5.850   0.074  15.001  0.8066 -1.2775  0.0623
12062TIP3   OH257676   3.004   4.772  13.386  0.6971  0.7261 -0.2329
12062TIP3    H157677   3.014   4.845  13.326  2.5467  0.7024  0.0063
12062TIP3    H257678   3.028   4.695  13.334  0.3627  0.4748 -0.0209
12063TIP3   OH257679   4.019   0.577   1.269 -0.1328 -0.3045 -0.0330
12063TIP3    H157680   4.015   0.482   1.268 -1.0368 -0.2804  0.3204
12063TIP3    H257681   4.065   0.598   1.351 -0.7491 -0.4198  0.3466
12064TIP3   OH257682   1.098   4.835   1.876 -0.6528  0.8500  0.0202
12064TIP3    H157683   1.136   4.768   1.933 -0.3738  1.2589  0.3215
12064TIP3    H257684   1.024   4.870   1.926 -1.7494 -0.2747 -0.7608
12065TIP3   OH257685   5.783   5.011   0.044  0.0971 -0.2316  0.2563
12065TIP3    H157686   5.818   4.922   0.047 -1.0590 -0.6973  0.5414
12065TIP3    H257687   5.825   5.051  -0.032  0.8681 -0.9075  0.3087
12066TIP3   OH257688   2.550   1.123  14.764  0.6537 -0.3404  0.6141
12066TIP3    H157689   2.497   1.191  14.806  1.2497 -0.0861  0.9763
12066TIP3    H257690   2.506   1.041  14.786  1.8993 -0.4022  3.3249
12067TIP3   OH257691   6.201   1.894   0.770  0.3639 -0.4523  0.1469
12067TIP3    H157692   6.227   1.956   0.702 -0.1003  1.8897  1.9561
12067TIP3    H257693   6.113   1.866   0.746  0.7985 -0.8986 -0.9884
12068TIP3   OH257694   3.697   0.346   5.764  0.2718  0.4195 -0.0015
12068TIP3    H157695   3.778   0.300   5.744 -0.3710 -0.7381 -0.0539
12068TIP3    H257696   3.724   0.435   5.788  1.5901 -0.1399  0.6510
12069TIP3   OH257697   2.833   3.442   3.814 -0.2985  0.2046  0.2056
12069TIP3    H157698   2.800   3.433   3.724 -1.0616  2.8066  0.1666
12069TIP3    H257699   2.809   3.359   3.856 -1.4480 -0.3985 -1.5140
12070TIP3   OH257700   6.425   4.359  17.052  0.5814 -0.0524 -0.3166
12070TIP3    H157701   6.397   4.363  17.144  0.8643  0.8768 -0.2592
12070TIP3    H257702   6.439   4.450  17.028 -0.4034 -0.2075 -1.5811
12071TIP3   OH257703   5.806   4.286   2.976 -0.2930 -0.2846  0.0250
12071TIP3    H157704   5.835   4.251   3.061  1.1227  2.3853  0.7897
12071TIP3    H257705   5.857   4.239   2.911  0.2239 -0.8731  0.8459
12072TIP3   OH257706   0.422   2.843   5.829 -0.0615  0.4349  0.0310
12072TIP3    H157707   0.490   2.910   5.831 -0.4263  0.8035  0.2041
12072TIP3    H257708   0.422   2.806   5.918 -0.0944  0.4414  0.0337
12073TIP3   OH257709   2.223   2.292  13.127  0.1867 -0.4249  0.4436
12073TIP3    H157710   2.220   2.372  13.075  2.0675 -0.6119 -0.0220
12073TIP3    H257711   2.281   2.314  13.200  1.5259 -1.6118 -0.2108
12074TIP3   OH257712   6.634   2.704  15.153  0.0016 -0.0735 -0.0859
12074TIP3    H157713   6.642   2.794  15.185  0.5518 -0.6898  1.6801
12074TIP3    H257714   6.569   2.708  15.084  0.3135  1.7443 -0.3188
12075TIP3   OH257715   1.184   6.547   4.787 -0.3048 -0.1914  0.1329
12075TIP3    H157716   1.161   6.591   4.870  1.5092  0.0152  0.5584
12075TIP3    H257717   1.243   6.477   4.813  2.8723  1.7799 -1.1653
12076TIP3   OH257718   1.284   5.755   5.017  0.0440 -0.3102  0.3381
12076TIP3    H157719   1.216   5.785   4.956  1.5366  0.8948 -0.8042
12076TIP3    H257720   1.248   5.774   5.104 -0.7601  1.0853 -0.2583
12077TIP3   OH257721   5.919   5.023  11.991  0.0100  0.2796  0.2646
12077TIP3    H157722   5.980   5.093  11.967  0.2699 -0.3237 -0.8951
12077TIP3    H257723   5.839   5.042  11.941  0.2625 -0.5218 -0.4728
12078TIP3   OH257724   6.465   3.062   2.743 -0.3336 -0.8934  0.4313
12078TIP3    H157725   6.492   3.145   2.783 -1.1039 -0.7893  0.7394
12078TIP3    H257726   6.403   3.087   2.675  0.3976 -1.1298 -0.3485
12079TIP3   OH257727   4.522   3.480  15.884  0.0978  0.0005  0.7288
12079TIP3    H157728   4.502   3.466  15.977 -0.3876 -1.7066  0.3970
12079TIP3    H257729   4.569   3.401  15.857 -1.8014 -0.6219 -1.0236
12080TIP3   OH257730   3.581   3.900  15.003  0.3085  0.5009 -0.1906
12080TIP3    H157731   3.660   3.865  14.961  1.4723  1.3057  1.2413
12080TIP3    H257732   3.527   3.822  15.020  0.7445 -0.0537 -1.2378
12081TIP3   OH257733   2.271   4.110   0.994  0.1103 -0.2201  0.1541
12081TIP3    H157734   2.211   4.036   0.990  0.8260 -0.8393  0.6603
12081TIP3    H257735   2.280   4.129   1.088 -0.3878  0.7872  0.0217
12082TIP3   OH257736   3.216   4.592  16.527 -0.4590 -0.3847  0.7237
12082TIP3    H157737   3.220   4.537  16.605 -1.4189 -0.5808  0.6540
12082TIP3    H257738   3.259   4.541  16.459 -0.6727 -0.7253  0.8444
12083TIP3   OH257739   3.512   4.641   1.897 -0.1825 -0.0601 -0.7528
12083TIP3    H157740   3.490   4.679   1.811 -0.0262  0.0018 -0.7663
12083TIP3    H257741   3.572   4.705   1.936 -0.1041 -0.1809 -0.6768
12084TIP3   OH257742   2.212   2.240   1.725  0.1098  0.1248  0.6483
12084TIP3    H157743   2.128   2.194   1.735 -0.6027  1.5119  1.3974
12084TIP3    H257744   2.277   2.170   1.717 -1.2058 -1.0134 -1.0332
12085TIP3   OH257745   5.118   1.624   4.339 -0.0819  1.2473  0.2946
12085TIP3    H157746   5.161   1.705   4.366  1.6722  0.7516 -0.8222
12085TIP3    H257747   5.025   1.644   4.341  0.3037  3.2827  0.0950
12086TIP3   OH257748   5.634   1.181  14.910 -0.4189  0.1082  0.5944
12086TIP3    H157749   5.721   1.145  14.927  0.2813  0.1583 -2.2781
12086TIP3    H257750   5.595   1.121  14.846 -2.0135  0.7512  0.9092
12087TIP3   OH257751   4.004   2.833   3.696  0.5710  0.6759  0.0294
12087TIP3    H157752   4.089   2.846   3.738  1.1540  2.1578 -1.5061
12087TIP3    H257753   3.995   2.906   3.636 -2.4566  1.3523  1.1272
12088TIP3   OH257754   0.721   6.047  13.492 -0.1731  0.4514  0.7559
12088TIP3    H157755   0.634   6.063  13.529  0.5916 -0.6550  3.2167
12088TIP3    H257756   0.780   6.097  13.547  0.7828  1.4611 -1.1042
12089TIP3   OH257757   0.968   2.009  15.118  0.0020  0.7961  0.3570
12089TIP3    H157758   0.980   2.070  15.045  1.9482 -1.7523 -1.6307
12089TIP3    H257759   0.877   1.981  15.111  0.2163  0.4140 -1.3131
12090TIP3   OH257760   4.134   5.113   3.354  0.3415  0.3290  0.0982
12090TIP3    H157761   4.169   5.186   3.303 -1.2566  0.0821 -1.4340
12090TIP3    H257762   4.070   5.071   3.296  1.0964 -2.2223  0.9790
12091TIP3   OH257763   2.212   4.144   3.793  0.8147 -0.1490  0.0131
12091TIP3    H157764   2.287   4.203   3.784  1.8253 -1.4462 -0.3872
12091TIP3    H257765   2.223   4.080   3.723 -1.2916  0.2505 -0.7546
12092TIP3   OH257766   0.373   5.458  13.698 -0.1904 -0.0510  0.6112
12092TIP3    H157767   0.340   5.370  13.678  1.2440 -0.6001  0.5590
12092TIP3    H257768   0.442   5.473  13.633 -1.4668  1.7957 -0.4358
12093TIP3   OH257769   2.647   0.531   1.332 -0.3001  1.0291 -0.2117
12093TIP3    H157770   2.663   0.626   1.329 -0.7829  1.1216  0.0124
12093TIP3    H257771   2.555   0.522   1.308 -0.1673  0.5833 -0.5676
12094TIP3   OH257772   3.015   6.407   2.328 -0.4119  0.3568  0.2324
12094TIP3    H157773   3.079   6.449   2.385 -0.6927  0.1925  0.6745
12094TIP3    H257774   3.018   6.458   2.247 -0.0278  0.6079  0.3990
12095TIP3   OH257775   3.044   1.332   2.637  0.2245 -0.3557 -0.0635
12095TIP3    H157776   3.091   1.356   2.557  0.8540  2.6603  1.0608
12095TIP3    H257777   3.098   1.365   2.708 -0.2211 -3.1090  1.7107
12096TIP3   OH257778   2.562   0.551  14.946 -0.2259 -0.4636  0.1353
12096TIP3    H157779   2.505   0.627  14.937  2.1866  1.2863 -1.7248
12096TIP3    H257780   2.611   0.568  15.026  1.4664  0.9039 -1.1100
12097TIP3   OH257781   5.863   2.717   3.884  0.4467  0.3540  0.9436
12097TIP3    H157782   5.944   2.768   3.875 -0.5302  2.0452  1.2292
12097TIP3    H257783   5.820   2.754   3.961 -1.4956  0.8292 -0.2947
12098TIP3   OH257784   2.169   0.106  11.732 -0.1970  0.0076  0.0733
12098TIP3    H157785   2.130   0.163  11.666  0.6320  0.8340  0.2847
12098TIP3    H257786   2.195   0.166  11.803  0.4649 -0.6601  0.4069
12099TIP3   OH257787   3.152   4.834   0.323 -0.4589  0.5032  0.3888
12099TIP3    H157788   3.240   4.808   0.351 -0.0442  0.9762 -0.4342
12099TIP3    H257789   3.123   4.896   0.389 -0.9237 -0.9697  1.6483
12100TIP3   OH257790   6.470   1.702   5.272  0.1064  1.0201 -0.2032
12100TIP3    H157791   6.551   1.659   5.300 -0.1541  0.8059  0.2488
12100TIP3    H257792   6.493   1.794   5.263  0.3938  0.9674 -0.0267
12101TIP3   OH257793   4.774   2.150   4.103  0.0663 -0.1608 -0.0121
12101TIP3    H157794   4.769   2.138   4.198  1.9468 -0.0361  0.1510
12101TIP3    H257795   4.739   2.238   4.089 -1.1421 -0.5482  0.4189
12102TIP3   OH257796   4.660   5.957   1.241 -0.1122  0.2646  0.0073
12102TIP3    H157797   4.682   5.885   1.182  1.0613  0.1881  0.5009
12102TIP3    H257798   4.606   6.016   1.189  0.9251  0.2236 -1.1660
12103TIP3   OH257799   1.426   5.323  13.024  0.0096 -0.7894 -0.1370
12103TIP3    H157800   1.475   5.406  13.017 -0.6728 -0.3698 -0.0424
12103TIP3    H257801   1.411   5.296  12.934  2.6758 -2.3115 -0.2196
12104TIP3   OH257802   4.797   0.276  16.151  0.3676 -0.0879 -0.2398
12104TIP3    H157803   4.753   0.255  16.233 -2.3519 -0.4837 -1.6777
12104TIP3    H257804   4.885   0.300  16.177 -0.5829  0.5335  2.8774
12105TIP3   OH257805   3.801   2.706  15.775 -0.0513  0.0717  0.5605
12105TIP3    H157806   3.788   2.624  15.823 -0.3901 -0.7474 -0.8535
12105TIP3    H257807   3.762   2.773  15.831 -1.7781 -1.0489  0.7983
12106TIP3   OH257808   2.672   2.189   6.014  0.0270  0.3425 -0.9636
12106TIP3    H157809   2.755   2.152   5.983  0.9675  1.0368  0.6221
12106TIP3    H257810   2.673   2.176   6.108 -2.1171 -0.4425 -1.0000
12107TIP3   OH257811   4.253   5.434  15.344  0.2244  0.4585 -0.2930
12107TIP3    H157812   4.216   5.358  15.388 -0.8665  0.3907 -1.2568
12107TIP3    H257813   4.211   5.510  15.385 -0.0272  0.4423 -0.5132
12108TIP3   OH257814   4.737   0.355  15.899  0.0118  0.3034  0.1658
12108TIP3    H157815   4.773   0.322  15.981 -1.6365 -0.3588  0.6658
12108TIP3    H257816   4.686   0.432  15.924  0.5779  0.9023 -0.4493
12109TIP3   OH257817   2.492   0.255   5.063  0.4373 -0.1401  0.0643
12109TIP3    H157818   2.575   0.248   5.111  0.4357  1.4605  0.3514
12109TIP3    H257819   2.518   0.259   4.971  0.5692 -1.0980  0.0480
12110TIP3   OH257820   5.585   4.430  11.043 -0.0986 -0.2750  0.3342
12110TIP3    H157821   5.549   4.370  10.977 -2.8845  2.0437 -0.5035
12110TIP3    H257822   5.672   4.452  11.010 -1.0683  0.1499 -2.2066
12111TIP3   OH257823   4.141   6.234  17.327  0.2190 -0.2024  0.2099
12111TIP3    H157824   4.231   6.218  17.299  0.6118  2.4914 -0.3298
12111TIP3    H257825   4.091   6.165  17.284  1.9137 -1.2935 -0.1335
12112TIP3   OH257826   1.524   4.319   0.955  0.3592  0.6715  0.0374
12112TIP3    H157827   1.559   4.392   1.007 -0.2497  0.2499  1.0843
12112TIP3    H257828   1.450   4.356   0.908 -1.8686  0.1565  2.8493
12113TIP3   OH257829   5.255   3.579  17.206 -0.2443 -0.0921 -0.2868
12113TIP3    H157830   5.336   3.531  17.226 -0.2375 -0.1458 -0.4449
12113TIP3    H257831   5.237   3.629  17.285 -0.0791 -0.1128 -0.2362
12114TIP3   OH257832   3.530   4.173  15.120  0.1995  0.0089 -0.6799
12114TIP3    H157833   3.568   4.102  15.069  0.0215 -1.0879  0.6696
12114TIP3    H257834   3.591   4.185  15.194 -0.5211  0.2779 -0.1205
12115TIP3   OH257835   3.928   3.455   6.461  0.1732  0.5218 -0.0086
12115TIP3    H157836   4.001   3.406   6.499 -0.3943  0.3252  0.8452
12115TIP3    H257837   3.931   3.432   6.368  1.1171  0.4146  0.0386
12116TIP3   OH257838   3.178   1.164   4.072 -0.9922 -0.6071  0.1480
12116TIP3    H157839   3.230   1.218   4.131 -0.5825 -0.1319 -0.6359
12116TIP3    H257840   3.236   1.144   4.000 -1.1851 -2.0041  0.3550
12117TIP3   OH257841   3.635   1.074   0.992  0.4940 -0.4132 -0.2865
12117TIP3    H157842   3.682   1.112   1.066 -1.1970  0.0142  0.6289
12117TIP3    H257843   3.606   0.988   1.024 -1.3909  0.3096  0.0970
12118TIP3   OH257844   5.956   3.514  13.638 -0.5573 -0.5640 -0.1754
12118TIP3    H157845   5.916   3.532  13.723 -0.9828 -0.0218 -0.4902
12118TIP3    H257846   6.002   3.595  13.616 -0.0308 -0.8728 -0.2378
12119TIP3   OH257847   0.285   6.056  17.192  0.2591 -0.1285 -0.0085
12119TIP3    H157848   0.259   5.964  17.182 -1.8238  0.5272 -1.3615
12119TIP3    H257849   0.251   6.081  17.278  0.0735 -0.4023  0.0014
12120TIP3   OH257850   4.934   0.531   1.334 -0.2060 -0.3661  0.3613
12120TIP3    H157851   4.883   0.452   1.320 -2.0889  0.8994 -0.2535
12120TIP3    H257852   4.959   0.560   1.246 -2.1607  1.3243  0.2907
12121TIP3   OH257853   5.979   2.629  11.094  0.2551 -0.0347 -0.4058
12121TIP3    H157854   5.973   2.553  11.036  0.0312  0.6718 -1.3374
12121TIP3    H257855   5.989   2.704  11.035  3.2642  0.4381  0.5642
12122TIP3   OH257856   6.465   4.920   0.791  0.5901  0.2473 -0.2752
12122TIP3    H157857   6.527   4.869   0.842 -0.1984  1.0289  1.5661
12122TIP3    H257858   6.412   4.855   0.744  1.4967 -0.4847 -0.3030
12123TIP3   OH257859   1.608   4.507  17.496  0.2583  0.3378  0.5639
12123TIP3    H157860   1.625   4.457  17.416  0.3907  3.7790 -1.7523
12123TIP3    H257861   1.682   4.486  17.553  0.4790 -1.7407 -0.3668
12124TIP3   OH257862   4.317   2.774  13.306 -0.6894  0.8281  0.1917
12124TIP3    H157863   4.237   2.738  13.345 -0.3921 -0.9081 -0.7009
12124TIP3    H257864   4.387   2.743  13.363 -0.4258 -0.1087 -0.6104
12125TIP3   OH257865   5.025   3.515   0.260  0.1924 -0.1740  0.0379
12125TIP3    H157866   5.029   3.592   0.317  0.3176 -0.3526  0.2679
12125TIP3    H257867   5.100   3.525   0.201  1.4470 -1.1636  1.3848
12126TIP3   OH257868   2.498   1.674   5.600  0.7123  0.2811 -0.2890
12126TIP3    H157869   2.584   1.673   5.642  0.8998 -1.1945 -0.6524
12126TIP3    H257870   2.458   1.590   5.623 -0.6746  0.9620 -0.0664
12127TIP3   OH257871   0.580   3.219   1.370  0.7186  0.0886  0.3936
12127TIP3    H157872   0.517   3.243   1.303 -1.6299 -0.2241  2.3639
12127TIP3    H257873   0.581   3.294   1.430  1.2556 -0.4275  1.0517
12128TIP3   OH257874   4.094   3.194   3.209  0.0729 -0.2612 -0.3289
12128TIP3    H157875   4.163   3.146   3.163 -0.0933  0.0750 -0.9354
12128TIP3    H257876   4.132   3.280   3.225  0.2450 -0.4712  0.4591
12129TIP3   OH257877   1.524   2.687   2.181  0.3767  0.2145 -0.0674
12129TIP3    H157878   1.511   2.730   2.265  0.8376  0.4822 -0.1267
12129TIP3    H257879   1.595   2.624   2.198  1.7502  1.5280 -0.6682
12130TIP3   OH257880   3.308   3.448   4.356 -0.4687  0.0210 -0.0988
12130TIP3    H157881   3.285   3.539   4.337 -1.1260 -0.0692  0.2497
12130TIP3    H257882   3.390   3.454   4.406  0.0802  0.3596 -1.0173
12131TIP3   OH257883   3.231   4.116   3.643  0.2829  0.6001  0.1147
12131TIP3    H157884   3.180   4.036   3.651  0.8301  0.3216  0.8768
12131TIP3    H257885   3.236   4.132   3.549 -0.9821  0.4952  0.0140
12132TIP3   OH257886   3.510   3.992   6.878  0.1839 -0.1139  0.0568
12132TIP3    H157887   3.593   4.038   6.863 -0.3650  0.4263 -1.5600
12132TIP3    H257888   3.528   3.902   6.853 -0.2159  0.4125 -2.3926
12133TIP3   OH257889   2.113   4.245   5.237 -0.4247 -0.0965 -0.5234
12133TIP3    H157890   2.120   4.157   5.275  0.8149  0.6778  1.2096
12133TIP3    H257891   2.122   4.232   5.143  1.2295 -1.7047 -0.1924
12134TIP3   OH257892   3.058   5.840   2.508 -0.3218  0.0595  0.1098
12134TIP3    H157893   3.071   5.845   2.603  1.7855 -0.5006 -0.1020
12134TIP3    H257894   3.108   5.914   2.473 -0.9593  0.1753 -0.5824
12135TIP3   OH257895   6.024   2.169  15.462 -0.0271 -0.0270 -0.2009
12135TIP3    H157896   5.933   2.145  15.482 -0.0050 -0.3664 -0.5003
12135TIP3    H257897   6.017   2.235  15.394 -0.0747  0.5550  0.3561
12136TIP3   OH257898   3.536   3.326   3.192 -0.3000 -0.2505 -0.4250
12136TIP3    H157899   3.495   3.380   3.125  0.6696 -0.9207 -1.6045
12136TIP3    H257900   3.538   3.238   3.155 -0.6414 -0.8535  0.9131
12137TIP3   OH257901   1.573   1.746  14.546  0.6274  0.6512 -0.4933
12137TIP3    H157902   1.547   1.836  14.568  0.1727  0.4094 -0.0023
12137TIP3    H257903   1.509   1.719  14.480  0.1923  0.3787  0.0302
12138TIP3   OH257904   0.769   4.905  16.183 -0.3341 -0.5370 -0.1085
12138TIP3    H157905   0.718   4.828  16.207 -1.4142 -0.1413 -1.0180
12138TIP3    H257906   0.858   4.873  16.173 -0.5683 -1.4427  0.6007
12139TIP3   OH257907   3.953   1.714  12.915  0.4168 -0.0643  0.0129
12139TIP3    H157908   3.968   1.778  12.984 -1.1244  0.2001  0.1539
12139TIP3    H257909   4.015   1.736  12.846  0.4282  1.0917  0.3791
12140TIP3   OH257910   3.886   0.923  16.927 -0.2125 -0.1309  0.1990
12140TIP3    H157911   3.798   0.920  16.889 -0.2938  2.6317 -0.0537
12140TIP3    H257912   3.933   0.987  16.872  1.0983  0.4487  1.9275
12141TIP3   OH257913   5.738   6.389  12.537 -0.5013  0.3668 -0.3300
12141TIP3    H157914   5.684   6.391  12.616 -1.3669  0.3912 -0.9085
12141TIP3    H257915   5.827   6.400  12.569 -0.9381  1.7104  0.5478
12142TIP3   OH257916   1.620   6.153  13.625  0.0080  0.2916 -0.2566
12142TIP3    H157917   1.693   6.141  13.564  0.3344 -0.7069  0.3127
12142TIP3    H257918   1.606   6.247  13.626  1.6092  0.5618 -0.0172
12143TIP3   OH257919   5.407   5.787  16.937  0.1549  0.4536 -0.4324
12143TIP3    H157920   5.345   5.806  16.867 -0.9047  0.2413  0.4167
12143TIP3    H257921   5.423   5.872  16.979 -2.5799  0.0223  1.7410
12144TIP3   OH257922   0.222   3.841  14.394 -0.1427 -0.3039  0.2276
12144TIP3    H157923   0.187   3.826  14.482  0.2977 -1.3333  0.2390
12144TIP3    H257924   0.266   3.925  14.400 -1.4197  0.3700  0.5800
12145TIP3   OH257925   6.647   2.248   0.196 -0.1340 -0.4925 -0.6170
12145TIP3    H157926   6.653   2.328   0.248 -1.2125 -0.8197  0.0331
12145TIP3    H257927   6.734   2.208   0.203  0.7074  1.0442 -1.6887
12146TIP3   OH257928   2.140   1.976   4.826  0.1768  0.4912  0.5204
12146TIP3    H157929   2.128   2.047   4.889 -1.6023  0.2379  0.5287
12146TIP3    H257930   2.181   1.905   4.876  3.3369  1.8977  0.1833
12147TIP3   OH257931   0.161   3.843   0.258  0.0906  0.1226 -0.3091
12147TIP3    H157932   0.129   3.768   0.209 -1.3435 -0.3165  1.2163
12147TIP3    H257933   0.101   3.914   0.237  0.5107  0.4210 -0.5244
12148TIP3   OH257934   1.821   2.280   4.631 -0.4265  0.4670 -0.0645
12148TIP3    H157935   1.738   2.232   4.621 -0.7845  1.2043 -0.8018
12148TIP3    H257936   1.888   2.216   4.607 -0.7452 -0.2630  0.9322
12149TIP3   OH257937   1.455   5.387  11.238  0.0713 -0.6441  0.5387
12149TIP3    H157938   1.477   5.479  11.223 -0.1395 -0.8519 -1.1921
12149TIP3    H257939   1.523   5.356  11.298  1.4509  0.0781 -0.5953
12150TIP3   OH257940   0.650   2.259   5.031  0.3250 -0.4409  0.4269
12150TIP3    H157941   0.629   2.209   5.109  0.4395  0.8184  1.2860
12150TIP3    H257942   0.691   2.196   4.972 -2.3269 -2.0938  0.2032
12151TIP3   OH257943   2.457   5.174   3.049  0.2103 -1.0135  0.1288
12151TIP3    H157944   2.453   5.096   2.992 -2.2427  0.0067 -1.2760
12151TIP3    H257945   2.365   5.190   3.073 -0.0042  3.3179 -2.4593
12152TIP3   OH257946   0.014   2.379  16.750  0.0275  0.6927  0.1770
12152TIP3    H157947   0.035   2.304  16.694 -2.0593  0.3354 -0.1998
12152TIP3    H257948   0.051   2.454  16.704 -3.0078  0.6616 -2.7451
12153TIP3   OH257949   6.278   1.637   4.243 -0.5826  0.2860 -0.1721
12153TIP3    H157950   6.211   1.616   4.308 -2.2050 -0.0233 -1.8622
12153TIP3    H257951   6.344   1.568   4.254 -1.1376 -0.1199  0.7166
12154TIP3   OH257952   1.303   3.558   3.156 -0.6223 -0.3535  0.0625
12154TIP3    H157953   1.247   3.594   3.086 -1.3665 -2.1576 -0.3259
12154TIP3    H257954   1.292   3.463   3.149  0.6321 -0.6456  1.5570
12155TIP3   OH257955   0.910   0.031   4.101  0.2174  0.0987  0.3612
12155TIP3    H157956   1.004   0.048   4.095  0.3668 -0.6711  0.4174
12155TIP3    H257957   0.870   0.118   4.100  0.9988  0.4961  1.7339
12156TIP3   OH257958   6.339   0.631  17.418 -0.2650  0.2884 -0.0851
12156TIP3    H157959   6.360   0.643  17.511  0.2229  0.0969 -0.1682
12156TIP3    H257960   6.399   0.691  17.373  0.3712 -0.5399 -0.3498
12157TIP3   OH257961   3.168   6.295   5.703 -0.9714  0.1284 -0.6469
12157TIP3    H157962   3.117   6.270   5.626  1.2033 -1.8091 -1.5614
12157TIP3    H257963   3.166   6.217   5.759 -1.0083  0.8867  0.4385
12158TIP3   OH257964   5.244   4.214  11.660  0.0914 -0.1661 -0.6555
12158TIP3    H157965   5.274   4.260  11.582 -0.7781 -1.1866 -1.6231
12158TIP3    H257966   5.210   4.131  11.627 -2.3848  0.2929  0.5119
12159TIP3   OH257967   0.230   6.711   0.779 -0.4245 -0.4879  0.3358
12159TIP3    H157968   0.317   6.675   0.761 -0.3207 -0.9313  1.6501
12159TIP3    H257969   0.171   6.635   0.771 -0.4625 -0.5477  1.1328
12160TIP3   OH257970   2.263   2.802  16.540  0.0099  0.0307  0.4529
12160TIP3    H157971   2.256   2.804  16.445  1.5180 -1.4153  0.2685
12160TIP3    H257972   2.323   2.730  16.558  0.6356  0.9858  2.4442
12161TIP3   OH257973   4.257   2.381  12.850 -0.1194  0.1881  0.2146
12161TIP3    H157974   4.195   2.349  12.915  0.3658 -0.1566  0.5117
12161TIP3    H257975   4.235   2.332  12.770 -2.3730  2.3673 -0.6514
12162TIP3   OH257976   4.018   1.593  15.307  0.0421  0.3357 -0.8554
12162TIP3    H157977   3.963   1.572  15.383 -0.4709 -0.2466 -1.3760
12162TIP3    H257978   3.976   1.547  15.234 -0.1017  1.7535 -1.7051
12163TIP3   OH257979   0.943   2.723   0.742 -0.3333  0.2405 -0.0516
12163TIP3    H157980   0.913   2.787   0.677 -1.3598 -0.7726 -0.6207
12163TIP3    H257981   0.948   2.772   0.824 -0.1543  1.2699 -0.6583
12164TIP3   OH257982   0.754   4.606   4.469 -0.4268  0.3862  0.0216
12164TIP3    H157983   0.750   4.512   4.448 -1.8226  0.1460  1.1873
12164TIP3    H257984   0.789   4.609   4.558  2.2856  1.1890 -0.9778
12165TIP3   OH257985   0.618   6.630  15.631 -0.3918  0.2887  0.3361
12165TIP3    H157986   0.693   6.574  15.612 -1.0052 -0.3110 -0.4245
12165TIP3    H257987   0.648   6.688  15.701  1.1708  0.8843 -0.7699
12166TIP3   OH257988   3.763   1.248  12.869  0.1752 -0.1194  0.2915
12166TIP3    H157989   3.823   1.303  12.818 -0.7918 -0.2194 -1.0012
12166TIP3    H257990   3.681   1.297  12.870 -0.3071 -0.9166  0.3003
12167TIP3   OH257991   5.101   0.256  14.402 -0.0413 -0.1478 -0.1252
12167TIP3    H157992   5.102   0.216  14.490 -1.7280 -0.6414 -0.2928
12167TIP3    H257993   5.052   0.194  14.349 -0.1758  0.7902 -1.1104
12168TIP3   OH257994   1.317   3.878   3.706  0.2546  0.4251  0.0250
12168TIP3    H157995   1.243   3.880   3.766  1.0344 -1.4333  1.1309
12168TIP3    H257996   1.323   3.967   3.672 -2.2092  0.7194  0.2183
12169TIP3   OH257997   5.381   5.187  13.119 -0.1841  0.3606 -0.4185
12169TIP3    H157998   5.319   5.254  13.146 -2.4921 -2.3478  1.4805
12169TIP3    H257999   5.416   5.219  13.036 -3.1296  2.6729 -0.9200
12170TIP3   OH258000   0.787   3.052   1.447 -0.2430  0.0892  0.4010
12170TIP3    H158001   0.706   3.067   1.399  1.1256 -0.9507 -2.4401
12170TIP3    H258002   0.823   3.140   1.461  0.0549  0.4020 -1.9635
12171TIP3   OH258003   6.026   5.562  16.088 -0.3498 -0.2617  0.4416
12171TIP3    H158004   6.069   5.560  16.173  1.6731 -0.3774 -0.5245
12171TIP3    H258005   6.062   5.488  16.040 -0.6297  0.4099 -0.8869
12172TIP3   OH258006   0.025   1.457   3.133 -0.2136 -0.0740  0.3360
12172TIP3    H158007   0.071   1.472   3.051  0.1306  0.1385  0.5633
12172TIP3    H258008   0.036   1.539   3.182 -0.4169 -0.1959  0.5901
12173TIP3   OH258009   3.026   1.070   0.718  0.0972 -0.3209  0.1774
12173TIP3    H158010   3.107   1.049   0.764  0.0433  0.9016  0.8581
12173TIP3    H258011   3.029   1.165   0.707 -1.1045 -0.3020 -0.0593
12174TIP3   OH258012   4.267   3.566  17.151 -0.5493  0.1200  0.0396
12174TIP3    H158013   4.200   3.571  17.220 -0.7641  0.9111 -0.2132
12174TIP3    H258014   4.313   3.484  17.168  1.1025  1.4936  2.6908
12175TIP3   OH258015   4.665   6.395  17.076  0.7443  0.0413  0.3114
12175TIP3    H158016   4.654   6.349  17.159  0.3521 -1.2379 -0.4143
12175TIP3    H258017   4.758   6.384  17.055  1.3034  2.0176  1.4669
12176TIP3   OH258018   3.084   0.891   6.369 -0.0315  0.5415  0.3015
12176TIP3    H158019   3.009   0.908   6.314 -0.0958 -0.0916  0.1839
12176TIP3    H258020   3.160   0.909   6.314 -0.0909 -0.5608 -0.1670
12177TIP3   OH258021   4.488   2.439  11.554 -0.1808  0.2178 -0.3247
12177TIP3    H158022   4.551   2.378  11.516 -0.2191  0.3301 -0.5635
12177TIP3    H258023   4.540   2.516  11.577 -0.1943  0.2277 -0.3281
12178TIP3   OH258024   4.471   6.688  11.093  0.0253 -0.7828  0.0059
12178TIP3    H158025   4.558   6.668  11.128 -0.2192 -2.1245 -0.1271
12178TIP3    H258026   4.448   6.612  11.040 -0.8821 -0.0699 -0.6442
12179TIP3   OH258027   5.005   2.312  17.226 -0.4299  1.0311 -0.2986
12179TIP3    H158028   5.055   2.245  17.179  0.7681  1.1456  0.7409
12179TIP3    H258029   4.926   2.325  17.174  1.5787  2.4486 -3.2900
12180TIP3   OH258030   6.722   0.758  10.465  1.2853 -0.1621 -0.2142
12180TIP3    H158031   6.740   0.826  10.399 -2.2621  0.0777 -1.1620
12180TIP3    H258032   6.678   0.689  10.416  1.3145 -1.3984  1.4296
12181TIP3   OH258033   5.828   0.395  14.407  0.1608 -0.3768 -0.0356
12181TIP3    H158034   5.916   0.372  14.377 -0.0668 -1.2392 -0.0755
12181TIP3    H258035   5.808   0.477  14.362 -0.6168 -2.1434 -3.2584
12182TIP3   OH258036   3.899   1.341   2.228  0.4151 -0.4341  0.3293
12182TIP3    H158037   3.803   1.340   2.223  0.4058 -2.6591 -0.0200
12182TIP3    H258038   3.923   1.251   2.246  2.6022 -0.7501 -3.1934
12183TIP3   OH258039   6.509   2.385   4.867 -0.5774 -0.0375  0.5241
12183TIP3    H158040   6.425   2.430   4.857  0.0667  1.1258  0.0854
12183TIP3    H258041   6.525   2.344   4.783 -1.0444 -0.9127  0.8451
12184TIP3   OH258042   0.126   0.619  12.308  0.3821  0.3622 -0.2998
12184TIP3    H158043   0.164   0.637  12.394 -1.1096  1.0008  0.2685
12184TIP3    H258044   0.173   0.543  12.276  0.1200 -0.6831  1.6436
12185TIP3   OH258045   5.318   2.558  11.972 -0.3421 -0.1208  0.1161
12185TIP3    H158046   5.388   2.621  11.952  0.0306 -0.5163  0.1448
12185TIP3    H258047   5.336   2.531  12.062 -0.9800  0.3399  0.3823
12186TIP3   OH258048   4.411   4.385   4.599 -0.1064  0.8224 -0.0846
12186TIP3    H158049   4.505   4.393   4.583 -0.0195 -0.2484 -0.1492
12186TIP3    H258050   4.376   4.472   4.577  0.6359  0.7545 -1.7026
12187TIP3   OH258051   5.655   1.715   1.090  0.2968 -0.6252  0.1826
12187TIP3    H158052   5.598   1.643   1.063 -0.4550 -0.1941  0.6076
12187TIP3    H258053   5.722   1.674   1.144  0.1341 -1.0711  0.0480
12188TIP3   OH258054   6.614   5.156  16.356  0.3036  0.3984 -0.1516
12188TIP3    H158055   6.665   5.103  16.294  0.6182  0.1369  0.3271
12188TIP3    H258056   6.668   5.232  16.373 -0.1911  0.9331 -0.9155
12189TIP3   OH258057   3.670   1.587  16.235 -0.1036 -0.0495  0.3818
12189TIP3    H158058   3.675   1.583  16.140 -2.5803  1.7765  0.0791
12189TIP3    H258059   3.702   1.674  16.257  1.5400 -0.8684  1.3681
12190TIP3   OH258060   1.678   4.714  15.300  0.3946  0.2383  0.2013
12190TIP3    H158061   1.705   4.646  15.239  0.7515 -0.0265  0.6543
12190TIP3    H258062   1.628   4.668  15.367  1.3698  0.2779  0.9780
12191TIP3   OH258063   1.500   3.654   0.145  0.2289  0.2580 -0.1581
12191TIP3    H158064   1.531   3.709   0.217 -0.9076  1.0265 -0.2293
12191TIP3    H258065   1.411   3.686   0.127  0.0700 -0.6833 -1.1378
12192TIP3   OH258066   6.382   5.288  12.973  0.5778  0.1742  0.6751
12192TIP3    H158067   6.317   5.234  12.929  0.9580  1.3604 -1.4835
12192TIP3    H258068   6.442   5.315  12.903  3.0211 -0.2892  2.4381
12193TIP3   OH258069   4.482   1.282  11.998 -0.3657 -0.4451 -0.8337
12193TIP3    H158070   4.416   1.213  11.999 -0.2447 -0.5558 -0.0615
12193TIP3    H258071   4.432   1.363  11.989 -0.7458 -0.4109  1.0929
12194TIP3   OH258072   2.810   3.841  13.777 -0.2502 -0.7915  0.3752
12194TIP3    H158073   2.746   3.897  13.733  1.1182  0.6816  0.2023
12194TIP3    H258074   2.785   3.752  13.752 -2.5573 -0.3200  0.7653
12195TIP3   OH258075   5.926   1.032   1.200 -0.2968 -0.0545 -0.0036
12195TIP3    H158076   5.917   1.046   1.105 -0.4168  2.7192  0.3207
12195TIP3    H258077   6.016   1.058   1.219 -0.7300  0.9367  0.8077
12196TIP3   OH258078   1.524   4.597  16.659 -0.6273  0.1531  0.7116
12196TIP3    H158079   1.496   4.521  16.607 -0.6354 -0.5765  1.7543
12196TIP3    H258080   1.471   4.592  16.738 -0.1442  0.8725  1.0805
12197TIP3   OH258081   5.180   2.941   4.062  0.3360 -0.6692 -0.5364
12197TIP3    H158082   5.152   2.850   4.052  1.3779 -1.0643  0.0127
12197TIP3    H258083   5.263   2.936   4.110  0.0196  0.6195  0.1944
12198TIP3   OH258084   6.635   3.949  15.345  0.2614 -0.2638  0.5179
12198TIP3    H158085   6.544   3.978  15.348  0.4447  0.8023 -1.8188
12198TIP3    H258086   6.630   3.855  15.330 -0.3910 -0.5810  2.4684
12199TIP3   OH258087   3.836   3.986   5.401  0.4168 -0.5678  0.2522
12199TIP3    H158088   3.745   3.991   5.372  0.5785 -1.5274 -0.4812
12199TIP3    H258089   3.886   4.018   5.326  0.7507 -1.3987  0.1113
12200TIP3   OH258090   1.416   3.879   3.141 -0.0942 -0.4257 -0.0163
12200TIP3    H158091   1.434   3.815   3.210  1.7871  0.1290  0.0538
12200TIP3    H258092   1.417   3.827   3.060 -1.2806 -0.9006  0.2451
12201TIP3   OH258093   4.494   0.843   5.427  0.1419  0.3667 -0.0303
12201TIP3    H158094   4.499   0.929   5.387 -1.1200  0.4625 -0.0003
12201TIP3    H258095   4.562   0.792   5.382  2.3774  1.9027  1.3892
12202TIP3   OH258096   5.445   0.138   4.217  0.2116 -0.1399  0.4419
12202TIP3    H158097   5.496   0.057   4.219  0.4811 -0.0030 -0.4090
12202TIP3    H258098   5.363   0.116   4.261  0.8796 -0.4397  1.5738
12203TIP3   OH258099   2.377   0.338   4.131 -0.3269 -0.1929 -0.1930
12203TIP3    H158100   2.353   0.285   4.054 -1.6677  0.6534 -0.3881
12203TIP3    H258101   2.296   0.345   4.181  0.0665  0.8463  0.3267
12204TIP3   OH258102   6.434   2.566   0.957  0.2907  0.6663  0.4054
12204TIP3    H158103   6.389   2.497   1.005 -0.4248  1.4111  0.8284
12204TIP3    H258104   6.526   2.539   0.958 -0.2349 -1.4095 -1.3929
12205TIP3   OH258105   1.514   3.585  17.135  0.3840  0.3615 -0.0952
12205TIP3    H158106   1.419   3.598  17.145  0.5819  1.5808  0.4304
12205TIP3    H258107   1.525   3.491  17.132 -0.5765  0.0477  2.8679
12206TIP3   OH258108   0.751   5.509  17.365 -0.3336  0.4558  0.2282
12206TIP3    H158109   0.690   5.466  17.305 -0.1662  0.7795 -0.1796
12206TIP3    H258110   0.830   5.456  17.361 -0.9485 -0.6444  1.6436
12207TIP3   OH258111   3.197   6.444  10.620 -0.1928 -0.2783  0.7603
12207TIP3    H158112   3.245   6.397  10.552 -0.3223  0.5296  0.0979
12207TIP3    H258113   3.108   6.407  10.616 -0.6834  0.9970 -0.7425
12208TIP3   OH258114   6.740   0.549   2.514 -0.7322 -0.0049 -0.0416
12208TIP3    H158115   6.710   0.623   2.462 -0.7132 -1.4745 -2.2742
12208TIP3    H258116   6.723   0.473   2.459  0.1661 -1.5819  1.7603
12209TIP3   OH258117   3.591   0.750  14.613  0.0264 -0.2842 -0.0439
12209TIP3    H158118   3.613   0.830  14.565  0.4921 -0.4669 -0.1338
12209TIP3    H258119   3.621   0.679  14.557  1.5127 -0.4816  0.9597
12210TIP3   OH258120   2.302   4.424   4.021  0.1121  0.3506 -0.7441
12210TIP3    H158121   2.375   4.450   3.965  0.1502 -2.2550 -2.0983
12210TIP3    H258122   2.342   4.407   4.107  1.5298 -2.4534 -1.8248
12211TIP3   OH258123   5.864   0.491   4.214 -0.4821  0.7913 -0.1060
12211TIP3    H158124   5.786   0.439   4.233 -0.5555  0.5756 -0.9778
12211TIP3    H258125   5.935   0.426   4.208 -0.5163  0.8149 -0.8654
12212TIP3   OH258126   6.177   3.340  11.517  0.1304  0.7342 -0.7494
12212TIP3    H158127   6.172   3.421  11.567 -1.0594  0.3819 -0.2711
12212TIP3    H258128   6.254   3.295  11.550 -0.8651  0.3075  1.1030
12213TIP3   OH258129   3.407   3.423  12.210 -0.1488 -0.2582  0.3347
12213TIP3    H158130   3.345   3.368  12.259 -0.7850  0.0928 -0.0581
12213TIP3    H258131   3.426   3.495  12.270 -1.7391  0.7254 -0.2846
12214TIP3   OH258132   1.436   4.110   5.627  0.0544  0.8082 -0.2475
12214TIP3    H158133   1.438   4.024   5.585  2.0352  0.2662  0.8193
12214TIP3    H258134   1.345   4.123   5.651 -0.0676 -1.7581  1.0098
12215TIP3   OH258135   1.758   2.299  17.188 -0.7264 -0.1490  0.2331
12215TIP3    H158136   1.764   2.330  17.098 -0.1644 -0.0200  0.3063
12215TIP3    H258137   1.779   2.376  17.241  0.1049 -0.5031  0.4341
12216TIP3   OH258138   4.974   4.245  13.471 -0.5359  0.1214  0.6406
12216TIP3    H158139   4.920   4.309  13.425  0.0801  0.5968  0.5647
12216TIP3    H258140   5.007   4.187  13.402  0.6899  1.0563  0.4044
12217TIP3   OH258141   2.890   3.289  13.063  0.7379 -0.2495 -0.2937
12217TIP3    H158142   2.843   3.347  13.004  0.5929 -1.9577 -1.9596
12217TIP3    H258143   2.858   3.312  13.151  0.0975  1.5675 -0.9564
12218TIP3   OH258144   4.382   3.069  16.260 -0.0290 -0.3919 -0.2877
12218TIP3    H158145   4.360   3.147  16.208  0.1311  0.0425  0.2874
12218TIP3    H258146   4.434   3.015  16.201  0.1310  0.0851 -0.5955
12219TIP3   OH258147   5.596   6.333   6.095 -0.7718 -0.0663  0.1382
12219TIP3    H158148   5.520   6.350   6.150 -1.6129 -0.5207 -0.8626
12219TIP3    H258149   5.560   6.317   6.007  0.3458 -1.6145 -0.0917
12220TIP3   OH258150   6.142   5.099   6.098 -0.5596  0.4335 -0.1324
12220TIP3    H158151   6.083   5.092   6.174 -1.6480 -0.0655 -0.9997
12220TIP3    H258152   6.161   5.008   6.075  0.4794  0.5883  0.0596
12221TIP3   OH258153   1.893   3.426   4.554  1.2500  0.1300  0.0574
12221TIP3    H158154   1.817   3.440   4.498  2.0713  2.5785 -0.5811
12221TIP3    H258155   1.857   3.404   4.640 -0.1973  0.9208 -0.3203
12222TIP3   OH258156   6.559   6.205  17.212  0.3929  0.4801 -0.6654
12222TIP3    H158157   6.504   6.200  17.290  2.8178  0.4639  1.1684
12222TIP3    H258158   6.500   6.185  17.139 -2.0411  0.8011  1.1086
12223TIP3   OH258159   3.022   6.694  16.500 -0.0461 -0.5041 -0.3468
12223TIP3    H158160   3.098   6.743  16.532  0.4858 -0.6504 -1.3390
12223TIP3    H258161   2.954   6.710  16.565 -0.1259  2.1077 -0.9851
12224TIP3   OH258162   2.076   4.308  17.375  0.0859 -0.3963  0.1133
12224TIP3    H158163   2.011   4.268  17.432  1.9367  0.2563  2.9011
12224TIP3    H258164   2.159   4.267  17.400  1.1971  1.0035 -1.0709
12225TIP3   OH258165   2.897   3.041   1.644  0.6009  0.2733  0.7429
12225TIP3    H158166   2.863   3.087   1.721  1.6757  1.7576  0.3629
12225TIP3    H258167   2.876   3.098   1.571 -0.6088 -1.2237 -0.1497
12226TIP3   OH258168   0.910   1.435  11.748  0.1172  0.4625  0.5800
12226TIP3    H158169   0.838   1.482  11.708  1.1654  1.3331 -0.3570
12226TIP3    H258170   0.977   1.501  11.764  1.1683 -0.5035  0.3494
12227TIP3   OH258171   3.060   5.260  12.592 -0.1599  0.0093 -0.2782
12227TIP3    H158172   2.999   5.236  12.523 -0.7675 -2.5101  1.0319
12227TIP3    H258173   3.006   5.301  12.659  0.1387  0.7408 -0.4727
12228TIP3   OH258174   4.459   5.046   2.130 -0.2715  0.1815  0.2159
12228TIP3    H158175   4.504   5.131   2.125 -0.5881  0.5253  2.4047
12228TIP3    H258176   4.385   5.055   2.069  2.1532 -0.2296 -3.0991
12229TIP3   OH258177   4.101   2.274   3.588  0.3149 -0.3333 -0.0772
12229TIP3    H158178   4.163   2.245   3.655  1.4345  0.3800 -0.7773
12229TIP3    H258179   4.050   2.196   3.567 -0.9672 -0.2958  2.5062
12230TIP3   OH258180   4.498   3.810   2.518  0.4056 -0.1075 -0.5001
12230TIP3    H158181   4.462   3.821   2.430  1.9280 -0.6085 -1.2115
12230TIP3    H258182   4.592   3.823   2.507  0.8910 -2.2593  0.6598
12231TIP3   OH258183   3.527   5.322  13.410  0.3508 -0.0920  0.3736
12231TIP3    H158184   3.437   5.300  13.384  0.2267  0.2473  0.4999
12231TIP3    H258185   3.566   5.239  13.437  0.8883 -0.7107 -2.0669
12232TIP3   OH258186   0.332   0.048  13.761  0.1738  0.2780 -0.5497
12232TIP3    H158187   0.317   0.108  13.834  1.3005  0.2273 -0.2671
12232TIP3    H258188   0.288  -0.032  13.787  0.8345  0.1567  0.2286
12233TIP3   OH258189   3.350   3.766   6.071 -0.2319  0.6381 -0.6908
12233TIP3    H158190   3.306   3.712   6.006 -1.4188 -0.7929  1.2138
12233TIP3    H258191   3.281   3.792   6.132  0.8053  2.0890 -0.0706
12234TIP3   OH258192   6.513   1.478  14.782 -0.9476  0.1857  0.0020
12234TIP3    H158193   6.593   1.448  14.737 -1.9801 -0.8047 -1.2503
12234TIP3    H258194   6.501   1.568  14.750  0.2274  0.7310  1.0293
12235TIP3   OH258195   1.341   0.551   1.842 -0.0948 -0.1377  0.2647
12235TIP3    H158196   1.387   0.628   1.875 -0.2037 -0.1390  0.4202
12235TIP3    H258197   1.278   0.530   1.911  0.4085 -0.7865  0.5335
12236TIP3   OH258198   2.557   4.863  15.736 -0.0149 -0.3894 -0.0077
12236TIP3    H158199   2.511   4.903  15.663  1.3000  0.0273 -0.6448
12236TIP3    H258200   2.497   4.870  15.810 -0.6213  0.9223 -0.5950
12237TIP3   OH258201   5.771   1.319  12.474 -0.0612 -0.5092 -0.5048
12237TIP3    H158202   5.713   1.243  12.480  0.8901 -1.1796  0.8116
12237TIP3    H258203   5.780   1.349  12.565  1.9406 -0.6660 -0.6129
12238TIP3   OH258204   2.873   5.485  16.458  0.2021 -0.3095 -0.6266
12238TIP3    H158205   2.819   5.547  16.409 -0.2236  0.8491  1.2214
12238TIP3    H258206   2.960   5.524  16.459 -0.4592  1.4124  2.1849
12239TIP3   OH258207   4.655   5.571  17.071 -0.3230  0.4892 -0.0149
12239TIP3    H158208   4.732   5.553  17.124  1.1778  0.4019 -2.1073
12239TIP3    H258209   4.597   5.497  17.088  0.2616  0.2761  1.1899
12240TIP3   OH258210   6.727   0.801  15.805 -0.4595 -0.0384 -0.4531
12240TIP3    H158211   6.760   0.712  15.816  0.2178  0.2989  0.3063
12240TIP3    H258212   6.650   0.806  15.861 -0.4064 -0.1002 -0.3753
12241TIP3   OH258213   4.397   3.749  13.383  0.0543 -0.1844  0.0120
12241TIP3    H158214   4.336   3.692  13.431 -2.7646  1.6748 -1.0876
12241TIP3    H258215   4.480   3.702  13.385 -0.4223 -1.3512  4.5728
12242TIP3   OH258216   1.652   4.141  11.723 -0.7878  0.0849  0.6079
12242TIP3    H158217   1.590   4.081  11.764 -0.7131  0.1716  0.8462
12242TIP3    H258218   1.642   4.223  11.771 -0.5844  0.1383  0.5597
12243TIP3   OH258219   2.968   2.596   3.886  0.1810  0.3994  0.1558
12243TIP3    H158220   3.027   2.529   3.920 -0.3585 -0.4251 -0.4679
12243TIP3    H258221   2.923   2.552   3.813 -0.5115  1.3039  0.0282
12244TIP3   OH258222   4.685   6.264   2.437  0.7736 -0.1041  0.0823
12244TIP3    H158223   4.702   6.212   2.515 -2.0459  0.0944  0.9555
12244TIP3    H258224   4.723   6.350   2.457  0.2129 -0.0937  1.2222
12245TIP3   OH258225   3.537   5.704  16.507  0.3363 -0.1929  0.1684
12245TIP3    H158226   3.509   5.745  16.590 -1.6543  1.9309 -1.3945
12245TIP3    H258227   3.476   5.739  16.442  1.5837 -2.0742 -2.1698
12246TIP3   OH258228   1.887   4.515   0.404 -0.2460  0.2747 -0.5614
12246TIP3    H158229   1.918   4.484   0.490  1.0703 -1.4329 -1.5804
12246TIP3    H258230   1.814   4.457   0.384 -0.8422  0.9649 -0.4254
12247TIP3   OH258231   3.602   1.921   1.647 -0.5115 -0.2450 -0.3447
12247TIP3    H158232   3.519   1.939   1.603 -0.7114 -0.5877 -0.1145
12247TIP3    H258233   3.619   2.000   1.698  0.8842  1.1134 -2.7736
12248TIP3   OH258234   0.639   0.582   3.887  0.0425  0.2572  0.8550
12248TIP3    H158235   0.632   0.492   3.856  0.3933  1.6135 -3.8820
12248TIP3    H258236   0.553   0.602   3.924 -0.0789 -1.8641  1.8860
12249TIP3   OH258237   5.390   6.678  12.069 -1.0685  0.4717  0.0527
12249TIP3    H158238   5.397   6.747  12.004 -0.4627 -0.4086 -0.8387
12249TIP3    H258239   5.476   6.637  12.071 -0.8673  0.8810  1.8941
12250TIP3   OH258240   0.910   6.727   6.009  0.2805  0.6597  0.4608
12250TIP3    H158241   0.834   6.759   6.059  0.0780  3.0230 -1.1848
12250TIP3    H258242   0.986   6.762   6.057  0.1455  1.6714 -0.0409
12251TIP3   OH258243   2.101   5.539   2.030  0.1284 -0.4638  0.1241
12251TIP3    H158244   2.034   5.532   1.962  0.3363  0.3008 -0.1642
12251TIP3    H258245   2.052   5.550   2.112 -0.1030  0.9813 -0.1855
12252TIP3   OH258246   4.309   6.150  16.995  0.3834 -0.8925  0.1974
12252TIP3    H158247   4.294   6.056  16.985  1.7867 -1.2112  0.8472
12252TIP3    H258248   4.351   6.159  17.081 -0.8935  0.4841  0.7258
12253TIP3   OH258249   3.900   6.318   2.360 -0.2051 -0.2212  0.4086
12253TIP3    H158250   3.829   6.258   2.382 -1.4769  0.9296 -0.3973
12253TIP3    H258251   3.972   6.292   2.418 -0.7773 -2.3324  0.2468
12254TIP3   OH258252   4.057   5.108  14.314  0.0808  0.8464  0.6695
12254TIP3    H158253   4.070   5.046  14.386  1.7107 -0.5398 -0.7151
12254TIP3    H258254   4.123   5.177  14.330  1.1764 -0.0077 -0.0016
12255TIP3   OH258255   1.279   5.693  14.972 -0.2916 -0.3760  0.2490
12255TIP3    H158256   1.372   5.700  14.950 -0.1391  0.6730  1.1345
12255TIP3    H258257   1.241   5.641  14.901  1.1384 -1.6910  0.3831
12256TIP3   OH258258   1.005   6.083  13.340 -0.1028  0.4270 -0.3243
12256TIP3    H158259   0.918   6.043  13.342  0.4121 -0.7316 -0.4088
12256TIP3    H258260   1.036   6.078  13.430  0.4531 -0.4959 -0.5557
12257TIP3   OH258261   0.345   0.220  14.438 -0.2939 -0.3706 -0.2689
12257TIP3    H158262   0.439   0.200  14.433 -0.2705 -0.6036  0.8038
12257TIP3    H258263   0.312   0.199  14.351  0.4909 -1.1429 -0.3997
12258TIP3   OH258264   3.100   3.405  14.779  0.4788 -0.0641  0.8043
12258TIP3    H158265   3.182   3.360  14.801 -0.0285 -0.3963  2.1709
12258TIP3    H258266   3.043   3.387  14.854 -0.8294  0.2062 -0.0942
12259TIP3   OH258267   6.426   0.489   0.990  0.2836  0.0707 -0.0571
12259TIP3    H158268   6.391   0.533   1.067  1.5057 -1.1437  1.2469
12259TIP3    H258269   6.359   0.502   0.922 -1.4198  0.0922  1.5606
12260TIP3   OH258270   0.595   4.763  14.957 -0.3776  0.3163  0.0408
12260TIP3    H158271   0.579   4.774  14.864 -0.8474 -0.0453  0.0749
12260TIP3    H258272   0.566   4.674  14.976 -0.1891  0.3517  0.5127
12261TIP3   OH258273   0.980   5.929  12.725 -0.0236 -0.2051 -0.1511
12261TIP3    H158274   0.941   5.974  12.650  0.7045  0.0564 -0.3788
12261TIP3    H258275   1.065   5.898  12.693 -0.5732 -1.9246 -0.0766
12262TIP3   OH258276   3.589   6.377  15.485  0.2132  0.3544  0.4184
12262TIP3    H158277   3.638   6.456  15.507 -1.8662  1.2306  2.1503
12262TIP3    H258278   3.522   6.407  15.424  1.4796 -0.7768 -1.6586
12263TIP3   OH258279   3.602   2.954  13.403  0.5349  0.2938 -0.0491
12263TIP3    H158280   3.645   2.984  13.483  0.0405  0.4624  0.1540
12263TIP3    H258281   3.517   2.922  13.432  0.2841  0.5241 -0.5310
12264TIP3   OH258282   0.721   4.043  17.278 -0.3485 -0.3983  0.1029
12264TIP3    H158283   0.649   4.058  17.218 -0.2861 -2.7104 -0.6763
12264TIP3    H258284   0.772   3.972  17.238  2.0643  0.7543  0.8933
12265TIP3   OH258285   4.751   2.139  14.622 -0.0630 -0.4158  0.3104
12265TIP3    H158286   4.812   2.158  14.551  0.1277  1.6497  0.9675
12265TIP3    H258287   4.723   2.049  14.606 -0.0188 -0.0399 -2.3782
12266TIP3   OH258288   5.690   4.320  17.443 -0.3291 -0.7524 -0.2982
12266TIP3    H158289   5.655   4.389  17.385 -0.2708  0.3888  0.9644
12266TIP3    H258290   5.684   4.240  17.391 -2.4742 -0.1827 -1.0456
12267TIP3   OH258291   2.603   4.996  13.854 -0.1326 -0.6957 -0.0619
12267TIP3    H158292   2.528   4.950  13.893 -0.7146 -0.2717 -0.6431
12267TIP3    H258293   2.588   4.989  13.760 -0.6978  1.3503 -0.1797
12268TIP3   OH258294   6.553   6.110   3.474  0.0564 -0.4944 -0.0884
12268TIP3    H158295   6.520   6.139   3.560  1.1343 -0.4843  0.3403
12268TIP3    H258296   6.592   6.189   3.436  1.3497 -0.9253  0.2867
12269TIP3   OH258297   0.605   2.813  14.204 -0.3696  0.0367 -0.0508
12269TIP3    H158298   0.592   2.769  14.120 -0.4772  0.6290 -0.3506
12269TIP3    H258299   0.593   2.744  14.269  3.8027 -1.4518 -0.5798
12270TIP3   OH258300   6.259   4.136  14.072 -0.2567  0.0208 -0.5957
12270TIP3    H158301   6.322   4.116  14.141  0.3435 -1.5731 -1.5734
12270TIP3    H258302   6.285   4.223  14.041  1.5651 -0.6375 -1.0419
12271TIP3   OH258303   0.909   6.168  16.701 -0.1293 -0.4246  0.5348
12271TIP3    H158304   0.941   6.236  16.760 -0.9631  1.0856 -0.6537
12271TIP3    H258305   0.836   6.128  16.748  0.4311 -0.5809  1.2920
12272TIP3   OH258306   0.477   2.265  15.408 -0.3841  0.0820  0.0877
12272TIP3    H158307   0.492   2.357  15.385  0.4842 -0.0791 -0.0302
12272TIP3    H258308   0.436   2.227  15.330 -1.4712  0.5386  0.4190
12273TIP3   OH258309   1.102   0.623  10.325 -0.7118 -0.1052  0.7336
12273TIP3    H158310   1.055   0.658  10.401  1.1186 -1.5963  2.6448
12273TIP3    H258311   1.034   0.581  10.272 -1.8508 -0.1623  2.1970
12274TIP3   OH258312   3.842   5.106   3.112  0.3999  0.5311  0.5916
12274TIP3    H158313   3.849   5.023   3.159 -1.0730  0.2345  0.3256
12274TIP3    H258314   3.749   5.129   3.118  0.1404  0.4692 -2.1871
12275TIP3   OH258315   1.172   4.010  14.289  0.4541 -0.9581 -0.1491
12275TIP3    H158316   1.112   4.031  14.361 -1.4389 -1.9214 -1.3819
12275TIP3    H258317   1.239   3.954  14.330  0.2279 -0.3227  1.1409
12276TIP3   OH258318   3.516   6.071   3.300 -0.6951  0.0769 -0.5806
12276TIP3    H158319   3.516   5.988   3.348  1.0573  0.9889  1.1658
12276TIP3    H258320   3.444   6.063   3.238 -1.2726 -2.3108  0.2760
12277TIP3   OH258321   5.231   1.119   1.221 -0.0234 -0.0880 -0.0260
12277TIP3    H158322   5.150   1.158   1.254  0.5755  0.7034  0.5541
12277TIP3    H258323   5.299   1.152   1.279  1.1667  1.8036 -2.3380
12278TIP3   OH258324   1.444   0.683  16.778  0.1818  0.0523 -0.0344
12278TIP3    H158325   1.480   0.631  16.706  0.0979  0.1476 -0.1459
12278TIP3    H258326   1.349   0.676  16.768  0.1435  1.4114 -0.9241
12279TIP3   OH258327   5.105   3.509   2.800 -0.2075 -0.0057  0.3725
12279TIP3    H158328   5.055   3.460   2.735 -0.0148  0.6937 -0.3162
12279TIP3    H258329   5.120   3.595   2.760  3.2979 -0.7830 -0.3499
12280TIP3   OH258330   0.376   0.556  16.747 -0.2559 -0.1658  0.3272
12280TIP3    H158331   0.411   0.619  16.684  0.8297 -0.3378  0.7496
12280TIP3    H258332   0.284   0.581  16.757  0.0872  1.1672  0.2701
12281TIP3   OH258333   5.254   6.381  16.402 -1.3645  0.1131 -0.1891
12281TIP3    H158334   5.306   6.390  16.481 -1.8234  2.0659 -0.0585
12281TIP3    H258335   5.319   6.371  16.332 -0.9351 -0.6479  0.3004
12282TIP3   OH258336   4.013   6.647   0.011  0.0128 -0.0007 -0.0673
12282TIP3    H158337   4.023   6.553   0.026  2.3982  0.2438  0.2524
12282TIP3    H258338   4.051   6.687   0.089  1.6643  1.2228 -1.4270
12283TIP3   OH258339   2.943   0.515  14.373 -0.2064 -0.1871  0.4678
12283TIP3    H158340   2.856   0.530  14.336 -1.1811  0.4455  2.8669
12283TIP3    H258341   2.993   0.593  14.348 -0.8166  0.1975  0.4149
12284TIP3   OH258342   2.434   1.976  16.622  0.2711 -0.6724 -0.1472
12284TIP3    H158343   2.414   2.028  16.545  2.3032 -0.7106 -0.7689
12284TIP3    H258344   2.361   1.992  16.682 -1.0526 -0.1647 -1.8167
12285TIP3   OH258345   1.538   0.150   2.880  0.0915  0.5931  0.9544
12285TIP3    H158346   1.611   0.163   2.819 -0.7308  0.7574 -0.0208
12285TIP3    H258347   1.578   0.154   2.967  1.2812  0.4199  0.4329
12286TIP3   OH258348   3.904   5.456   6.083 -0.1896  0.4711  0.6147
12286TIP3    H158349   3.836   5.516   6.114 -1.6970 -0.8247  0.0062
12286TIP3    H258350   3.953   5.433   6.162 -2.2654 -0.7114  1.6753
12287TIP3   OH258351   3.323   6.548   4.476 -0.0935 -0.3102  0.1045
12287TIP3    H158352   3.366   6.624   4.437 -1.0332  0.5512  0.6869
12287TIP3    H258353   3.385   6.515   4.540  0.1803  0.2009  0.1057
12288TIP3   OH258354   6.407   5.815  17.221 -0.0382 -0.5113 -0.2988
12288TIP3    H158355   6.494   5.845  17.249 -0.6200  0.5234  0.4819
12288TIP3    H258356   6.407   5.721  17.238  1.2421 -0.7018 -1.1791
12289TIP3   OH258357   3.488   3.291   1.575 -0.2827 -1.1350  0.4226
12289TIP3    H158358   3.527   3.290   1.663 -0.3220  1.7725  0.5386
12289TIP3    H258359   3.409   3.343   1.583 -0.6653 -1.3880 -1.2286
12290TIP3   OH258360   6.057   3.032  12.006 -0.3157  0.3677 -0.1862
12290TIP3    H158361   6.078   3.018  12.098 -0.4653 -1.2843 -0.3693
12290TIP3    H258362   6.119   2.976  11.958  0.0498  1.5266 -1.1271
12291TIP3   OH258363   5.009   0.943   3.847  0.1383  0.4537  0.8739
12291TIP3    H158364   4.979   0.947   3.756 -0.6811 -0.0359  1.1189
12291TIP3    H258365   5.105   0.942   3.840  0.0802 -0.0880 -0.0056
12292TIP3   OH258366   5.311   5.841  15.685  0.0260  0.3721 -0.0724
12292TIP3    H158367   5.261   5.812  15.761  1.2860 -2.7515 -0.2894
12292TIP3    H258368   5.402   5.838  15.714  0.3708  2.4174 -0.7763
12293TIP3   OH258369   0.876   1.815  16.610 -0.0286  0.4073  0.4031
12293TIP3    H158370   0.855   1.829  16.702 -1.4028  0.7839  0.0590
12293TIP3    H258371   0.898   1.902  16.577 -3.4174  1.0532 -0.5036
12294TIP3   OH258372   4.986   4.237  15.027  0.3548  0.2304 -0.2937
12294TIP3    H158373   5.064   4.281  14.992  0.9627 -0.4896  0.1247
12294TIP3    H258374   4.915   4.300  15.013  1.0321  0.9619 -0.5505
12295TIP3   OH258375   4.982   5.593   2.974 -0.5231 -0.4898 -0.7501
12295TIP3    H158376   4.989   5.498   2.985 -2.3401 -0.3612  3.1935
12295TIP3    H258377   5.056   5.628   3.024 -0.3860  0.1840 -1.4219
12296TIP3   OH258378   5.874   2.325   6.428 -0.0637  0.1073  0.5948
12296TIP3    H158379   5.900   2.235   6.449  0.8226 -0.0263 -0.9208
12296TIP3    H258380   5.912   2.378   6.499  2.1542 -0.3920 -0.1522
12297TIP3   OH258381   5.120   5.673   2.668 -0.8489 -0.4743  0.7208
12297TIP3    H158382   5.055   5.723   2.719 -1.2623 -2.0008  1.7689
12297TIP3    H258383   5.199   5.727   2.670 -1.7272  0.8517  0.4681
12298TIP3   OH258384   2.087   6.240  16.718 -0.6725 -0.4398 -0.1633
12298TIP3    H158385   2.070   6.146  16.712 -0.9681 -0.5682  1.8894
12298TIP3    H258386   2.039   6.268  16.797 -0.0414  1.3023 -0.3483
12299TIP3   OH258387   4.033   1.553  11.292  0.0408  0.0082 -0.8615
12299TIP3    H158388   3.964   1.541  11.358  0.0947 -1.8893 -1.1151
12299TIP3    H258389   4.057   1.646  11.301 -1.9317  0.5126 -0.1929
12300TIP3   OH258390   6.647   1.164   0.032 -0.7308 -0.2151  0.0551
12300TIP3    H158391   6.612   1.085  -0.009 -0.5369 -0.7751  0.9418
12300TIP3    H258392   6.735   1.172  -0.003 -0.7832 -0.3381 -0.1080
12301TIP3   OH258393   1.142   3.401  11.706  0.1151  0.0565  0.4248
12301TIP3    H158394   1.207   3.413  11.775  0.6380 -0.6673  0.0743
12301TIP3    H258395   1.058   3.398  11.751  0.3581  0.6244  0.9244
12302TIP3   OH258396   2.108   2.718   2.440 -0.0055 -0.5205 -0.5745
12302TIP3    H158397   2.121   2.664   2.517  1.5880 -0.4361 -0.7448
12302TIP3    H258398   2.014   2.730   2.434 -0.1805 -0.9137  1.0811
12303TIP3   OH258399   2.748   1.164   4.699  0.3251  0.2676  0.1464
12303TIP3    H158400   2.763   1.076   4.732  2.1228  0.0629 -1.0473
12303TIP3    H258401   2.802   1.220   4.754 -0.0049  0.4889  0.2461
12304TIP3   OH258402   1.767   2.262  12.270  0.1765 -0.4649 -0.8577
12304TIP3    H158403   1.859   2.288  12.275  0.3331 -1.1164  3.7200
12304TIP3    H258404   1.718   2.342  12.289 -0.0075 -0.7880  0.0598
12305TIP3   OH258405   3.805   2.413   1.383  0.1526 -0.2117  0.1389
12305TIP3    H158406   3.794   2.496   1.337  1.3203 -0.5419 -0.7980
12305TIP3    H258407   3.852   2.437   1.464 -1.3199  0.2827  0.8748
12306TIP3   OH258408   4.832   6.435  13.365 -0.4385 -0.0140 -0.3685
12306TIP3    H158409   4.823   6.352  13.320  0.5082 -0.7205  0.6886
12306TIP3    H258410   4.914   6.472  13.331 -0.7123  0.3529 -0.6318
12307TIP3   OH258411   2.532   4.808   6.309 -0.3362  0.1989  0.6418
12307TIP3    H158412   2.532   4.882   6.249  1.8561 -0.5016 -0.3093
12307TIP3    H258413   2.594   4.746   6.271 -2.5043 -2.4314  1.0658
12308TIP3   OH258414   6.688   2.669  13.467  0.2845  0.3927  0.5135
12308TIP3    H158415   6.717   2.698  13.381 -0.3327  1.1184  0.5376
12308TIP3    H258416   6.594   2.687  13.468 -0.3388 -2.3383  0.2440
12309TIP3   OH258417   5.512   1.456   1.433 -1.0451 -0.2776  0.4030
12309TIP3    H158418   5.486   1.512   1.506  0.0004 -0.1923  0.7288
12309TIP3    H258419   5.448   1.475   1.365  2.0371  5.5118 -1.6096
12310TIP3   OH258420   3.704   3.306  13.657 -0.0117 -0.1880  0.4518
12310TIP3    H158421   3.704   3.210  13.647 -0.0444 -0.0968 -0.5449
12310TIP3    H258422   3.685   3.339  13.569 -0.6243  0.7269  0.9133
12311TIP3   OH258423   1.714   2.031   5.786 -0.4263 -0.0552  0.0467
12311TIP3    H158424   1.807   2.053   5.792 -1.2084  3.5593  1.2463
12311TIP3    H258425   1.686   2.017   5.876 -1.2855  0.0336 -0.1978
12312TIP3   OH258426   3.186   2.620   2.465 -0.5429 -0.0256 -0.3653
12312TIP3    H158427   3.125   2.663   2.405 -1.2187  0.0447  0.3553
12312TIP3    H258428   3.200   2.685   2.534  1.0369  0.2926 -0.9560
12313TIP3   OH258429   6.222   5.517  15.035 -0.5155  0.1885  0.3573
12313TIP3    H158430   6.127   5.512  15.041 -0.4294 -0.7005  1.3534
12313TIP3    H258431   6.249   5.562  15.115 -0.0894  0.1890  0.2166
12314TIP3   OH258432   2.415   6.008  12.323  0.3058 -0.3087 -0.3742
12314TIP3    H158433   2.322   5.989  12.311  0.1388  0.2108  0.0791
12314TIP3    H258434   2.425   6.099  12.297  0.7644 -0.4699 -0.7839
12315TIP3   OH258435   0.288   3.382   4.640  0.1550  0.4643  0.1828
12315TIP3    H158436   0.350   3.333   4.586  0.7643 -1.9731  2.9165
12315TIP3    H258437   0.339   3.455   4.675  0.6278  0.2160  0.0158
12316TIP3   OH258438   2.397   6.643  14.843 -0.1068 -0.2885 -0.4945
12316TIP3    H158439   2.314   6.690  14.855  0.4230  0.4805  0.3592
12316TIP3    H258440   2.386   6.594  14.762 -0.3754  2.0399 -1.9523
12317TIP3   OH258441   1.185   5.306   1.169 -0.5874 -0.5538  0.3358
12317TIP3    H158442   1.150   5.237   1.112 -0.3370  0.1944 -0.7541
12317TIP3    H258443   1.107   5.353   1.199 -0.8121 -1.6394  1.5807
12318TIP3   OH258444   5.253   3.446  16.564  0.3704  0.4101  0.2380
12318TIP3    H158445   5.178   3.408  16.610 -1.1013 -0.9062 -2.9399
12318TIP3    H258446   5.329   3.403  16.602 -0.7513 -0.6934  1.3278
12319TIP3   OH258447   3.498   3.360   2.873  0.8361  0.2642  0.0396
12319TIP3    H158448   3.497   3.264   2.872  1.6144  0.2134  1.1940
12319TIP3    H258449   3.591   3.382   2.871  0.6426  1.0639 -1.9357
12320TIP3   OH258450   3.307   5.502   2.453  0.6129 -0.4440  0.1897
12320TIP3    H158451   3.346   5.438   2.512  0.1375  0.7772  1.8965
12320TIP3    H258452   3.375   5.568   2.440  0.4551 -0.3248 -0.0356
12321TIP3   OH258453   6.013   1.301   1.450  0.1040 -0.2415 -0.0368
12321TIP3    H158454   5.925   1.309   1.412  0.6148 -1.6213 -1.6382
12321TIP3    H258455   6.063   1.372   1.411 -0.1575  0.2335  0.4822
12322TIP3   OH258456   6.335   5.653   2.395  0.2416 -0.3474  0.1287
12322TIP3    H158457   6.313   5.580   2.454  2.7374 -0.1627  1.4225
12322TIP3    H258458   6.399   5.616   2.335 -1.3092 -0.1643 -1.7263
12323TIP3   OH258459   4.378   2.368  15.722  0.1852  0.0725 -0.1303
12323TIP3    H158460   4.465   2.338  15.747 -0.5350 -1.0672  1.1484
12323TIP3    H258461   4.351   2.310  15.651  1.2991  1.8313 -2.0959
12324TIP3   OH258462   6.455   6.456   2.395  0.5594  0.0695  0.2937
12324TIP3    H158463   6.464   6.542   2.436  2.7040  0.0667 -0.0709
12324TIP3    H258464   6.443   6.396   2.468  0.0939  0.5406  0.6138
12325TIP3   OH258465   3.477   1.771   3.290  0.6709  0.4268 -0.4228
12325TIP3    H158466   3.550   1.711   3.310 -0.0130  0.0071  0.9508
12325TIP3    H258467   3.405   1.714   3.265  0.1465  0.6729  0.4658
12326TIP3   OH258468   1.133   5.749  10.643  0.0461  0.5963  0.0220
12326TIP3    H158469   1.103   5.706  10.723 -0.5731  0.5682 -0.2200
12326TIP3    H258470   1.218   5.708  10.625  0.5738  1.1628  1.0876
12327TIP3   OH258471   0.895   3.560  13.107  0.5077  0.2131 -0.4070
12327TIP3    H158472   0.859   3.475  13.132  0.4030  0.4083  0.1065
12327TIP3    H258473   0.822   3.620  13.113  0.8428  0.5571  0.3669
12328TIP3   OH258474   3.145   6.521   1.745  0.1265  1.2980  0.4693
12328TIP3    H158475   3.105   6.507   1.659 -0.5681 -0.0323  0.9780
12328TIP3    H258476   3.154   6.433   1.782  1.4866  1.7527  1.3014
12329TIP3   OH258477   5.239   3.808  11.224  0.7431  0.2872 -0.0758
12329TIP3    H158478   5.205   3.726  11.261 -0.9035  1.6402  1.6105
12329TIP3    H258479   5.190   3.819  11.142 -2.8338  1.8896  2.0124
12330TIP3   OH258480   2.543   3.353   3.161 -0.3457 -0.4691  0.1889
12330TIP3    H158481   2.504   3.304   3.089 -0.6886 -0.9294  0.6881
12330TIP3    H258482   2.473   3.409   3.193  0.4096  1.5148 -1.3349
12331TIP3   OH258483   6.036   0.775   1.726  0.5925 -0.3012  0.6060
12331TIP3    H158484   6.077   0.815   1.649 -0.8992  0.6222  0.2510
12331TIP3    H258485   6.071   0.686   1.728 -0.4169 -0.8601 -2.0360
12332TIP3   OH258486   0.894   6.169  11.636  0.0358 -0.1089  0.5509
12332TIP3    H158487   0.858   6.242  11.687  0.9884  1.3140 -0.7375
12332TIP3    H258488   0.817   6.124  11.601 -0.6242  2.2223 -1.2491
12333TIP3   OH258489   4.331   2.303  13.894  0.1370  0.5514 -0.0826
12333TIP3    H158490   4.337   2.227  13.836 -0.9732  0.0851  0.3909
12333TIP3    H258491   4.315   2.266  13.981 -1.4416  1.3321 -0.0029
12334TIP3   OH258492   0.546   5.005   3.294  0.0424 -0.4988 -0.7088
12334TIP3    H158493   0.609   5.026   3.224  0.0881 -0.4597 -0.6555
12334TIP3    H258494   0.503   5.088   3.313  0.7618 -0.2851  0.0384
12335TIP3   OH258495   1.160   4.816  12.221 -0.1884  0.4443 -0.1291
12335TIP3    H158496   1.142   4.806  12.315 -1.6504 -1.5644 -0.5513
12335TIP3    H258497   1.082   4.860  12.187  0.4700  1.4459 -0.4014
12336TIP3   OH258498   0.161   3.220   2.817  0.0549  0.4226 -0.0119
12336TIP3    H158499   0.145   3.148   2.757 -0.4840  0.8145 -0.3515
12336TIP3    H258500   0.175   3.296   2.760  0.6761  0.5805  0.3346
12337TIP3   OH258501   1.520   3.693  11.727  0.5223 -0.0761  0.3080
12337TIP3    H158502   1.526   3.653  11.640  1.0004  0.0411  0.2806
12337TIP3    H258503   1.603   3.670  11.769  0.1803 -0.3519  0.8323
12338TIP3   OH258504   2.676   4.456   1.378  0.6270  0.5105 -0.2263
12338TIP3    H158505   2.736   4.461   1.453 -0.3819 -0.4296  0.6907
12338TIP3    H258506   2.693   4.536   1.328  2.6433  0.2448 -0.0300
12339TIP3   OH258507   0.494   5.663   4.522  0.0279  0.3322 -0.0789
12339TIP3    H158508   0.415   5.623   4.486 -0.2671 -0.1110  1.0239
12339TIP3    H258509   0.566   5.614   4.481 -0.3251 -1.6983  1.5626
12340TIP3   OH258510   2.191   1.658   3.029 -0.2789  0.2186  0.3565
12340TIP3    H158511   2.103   1.670   3.065 -0.8625  1.2840 -1.2837
12340TIP3    H258512   2.199   1.563   3.018 -1.1384  0.0890  0.7391
12341TIP3   OH258513   5.152   6.164  15.409 -0.8127  0.4008  0.2548
12341TIP3    H158514   5.218   6.129  15.468 -1.6017 -0.8131  0.4509
12341TIP3    H258515   5.176   6.131  15.323 -1.3705 -0.3798  0.3885
12342TIP3   OH258516   2.366   3.492  14.990 -0.3127  0.5710  0.3171
12342TIP3    H158517   2.431   3.462  14.928 -2.3666  2.1695 -2.8724
12342TIP3    H258518   2.417   3.533  15.060  2.1199 -0.8303 -0.5136
12343TIP3   OH258519   0.125   1.972  16.649  0.1235 -0.1546 -0.1707
12343TIP3    H158520   0.040   1.981  16.606 -0.5662 -2.2890  0.6360
12343TIP3    H258521   0.127   2.042  16.714 -0.8423  0.1642 -0.4738
12344TIP3   OH258522   6.228   1.562  11.163 -0.4201  0.2939  0.2524
12344TIP3    H158523   6.254   1.642  11.118 -0.6743  0.9702  1.2802
12344TIP3    H258524   6.299   1.545  11.225  0.6502 -1.4466 -1.3324
12345TIP3   OH258525   1.055   0.487  14.917  0.4072 -0.2972  0.5435
12345TIP3    H158526   1.125   0.428  14.889 -0.9299 -1.4463 -0.4813
12345TIP3    H258527   0.975   0.448  14.882 -0.8825  0.4570  2.5244
12346TIP3   OH258528   0.951   2.543  16.010 -0.6324 -0.2680  0.1586
12346TIP3    H158529   0.950   2.450  16.033  3.4296 -0.3878  0.4482
12346TIP3    H258530   0.932   2.544  15.916 -1.7326 -1.2328  0.3425
12347TIP3   OH258531   0.360   1.133   1.907  0.7004  0.1295  0.6767
12347TIP3    H158532   0.400   1.078   1.840  1.0819  0.3756  0.6975
12347TIP3    H258533   0.433   1.183   1.944  0.7051 -0.9078  2.1448
12348TIP3   OH258534   1.315   2.306  12.482  0.1663  0.2075  0.0477
12348TIP3    H158535   1.357   2.328  12.565  2.0810  0.7932 -1.0331
12348TIP3    H258536   1.315   2.210  12.479 -1.5385  0.1176  1.4746
12349TIP3   OH258537   3.676   5.669   1.232  0.2477 -0.5513  0.0660
12349TIP3    H158538   3.581   5.657   1.228  0.2314 -0.3323 -0.2216
12349TIP3    H258539   3.711   5.580   1.230  0.0383 -0.6443  0.4910
12350TIP3   OH258540   1.422   4.524  15.070 -0.2793  0.0214 -0.4899
12350TIP3    H158541   1.404   4.462  15.141 -0.5793  0.9992  0.2997
12350TIP3    H258542   1.394   4.609  15.104  1.8957  0.9402 -0.7994
12351TIP3   OH258543   4.651   3.293  17.374 -0.7003 -0.4976 -0.3922
12351TIP3    H158544   4.572   3.344  17.358 -0.6582 -0.7089 -1.2901
12351TIP3    H258545   4.722   3.357  17.380 -0.4929 -0.4763 -2.4602
12352TIP3   OH258546   0.778   1.492   1.454  0.3568 -0.1460  0.2786
12352TIP3    H158547   0.824   1.532   1.380  1.1431  0.4533  1.0692
12352TIP3    H258548   0.846   1.484   1.522  0.2288 -2.7101  0.2082
12353TIP3   OH258549   6.137   2.757  13.577 -0.0944 -0.1021  0.6058
12353TIP3    H158550   6.136   2.803  13.660  2.1877 -1.7240  1.6521
12353TIP3    H258551   6.092   2.816  13.516 -0.3850  1.8617  2.5892
12354TIP3   OH258552   5.495   1.837   3.204  0.0452 -0.4615  0.3703
12354TIP3    H158553   5.587   1.813   3.214  0.2271 -0.1156 -0.3950
12354TIP3    H258554   5.492   1.931   3.226 -0.4406 -0.8543  2.1154
12355TIP3   OH258555   4.156   0.647   3.701 -0.0701 -0.1383 -0.1842
12355TIP3    H158556   4.155   0.737   3.670  0.5984  0.2565  0.8777
12355TIP3    H258557   4.248   0.631   3.724 -0.6887  0.0671  2.7962
12356TIP3   OH258558   2.710   4.685  11.296  0.2139 -0.0639  0.1103
12356TIP3    H158559   2.777   4.708  11.360 -1.0403  1.5548  0.9260
12356TIP3    H258560   2.698   4.765  11.244  0.4899 -1.0355 -1.4954
12357TIP3   OH258561   4.147   2.035  13.522  0.0350  0.5708 -0.2187
12357TIP3    H158562   4.192   2.104  13.473  0.7232  2.0358  2.2480
12357TIP3    H258563   4.059   2.069  13.537 -0.3141 -0.0605 -0.7960
12358TIP3   OH258564   2.447   2.665   1.196 -0.5940 -0.6402 -0.0591
12358TIP3    H158565   2.479   2.709   1.117 -0.0735  1.0436  1.0273
12358TIP3    H258566   2.397   2.732   1.241 -2.8802 -2.2598 -0.0463
12359TIP3   OH258567   3.437   2.552  16.259 -0.0531 -0.3253 -0.2136
12359TIP3    H158568   3.487   2.592  16.330 -2.1580  1.4670  0.3958
12359TIP3    H258569   3.353   2.530  16.300 -0.7240 -0.7568 -1.7748
12360TIP3   OH258570   0.945   2.073   1.495  0.0305  0.0178  0.3349
12360TIP3    H158571   0.883   2.000   1.486  0.4929 -0.5659  1.5955
12360TIP3    H258572   0.928   2.128   1.418 -2.2707  0.0584  0.7820
12361TIP3   OH258573   3.525   5.168  12.096 -0.2832  0.9614  0.1097
12361TIP3    H158574   3.606   5.179  12.146  0.1890 -0.8656 -0.2116
12361TIP3    H258575   3.461   5.138  12.161 -0.4961  1.5709  0.1926
12362TIP3   OH258576   4.945   5.089  17.106 -0.5736 -0.4150  0.0113
12362TIP3    H158577   5.029   5.094  17.060 -0.6330  1.1981  0.0202
12362TIP3    H258578   4.898   5.016  17.063  0.9133 -1.5338  0.2080
12363TIP3   OH258579   3.606   2.775  12.446  0.8266  0.5815  0.1467
12363TIP3    H158580   3.666   2.836  12.404  1.8953 -0.3746  0.2015
12363TIP3    H258581   3.563   2.826  12.515  1.2891  1.3946 -0.1562
12364TIP3   OH258582   4.517   3.508   3.796 -0.2888 -0.5009 -0.2949
12364TIP3    H158583   4.541   3.483   3.885 -0.4525 -2.2311 -0.6964
12364TIP3    H258584   4.432   3.551   3.805 -0.8303 -1.6300  0.3075
12365TIP3   OH258585   0.261   1.199  11.354  0.2453  0.3758  0.9670
12365TIP3    H158586   0.312   1.120  11.337  0.1757  0.6485 -0.7544
12365TIP3    H258587   0.218   1.217  11.270  0.2761  2.2568  1.3273
12366TIP3   OH258588   5.428   1.272  15.263 -0.1920  0.1436 -0.1794
12366TIP3    H158589   5.392   1.353  15.299  2.0893  2.0441 -1.8465
12366TIP3    H258590   5.377   1.203  15.305 -3.4207  2.4337  0.0740
12367TIP3   OH258591   2.367   2.113   1.946  0.1265 -0.9865 -0.6231
12367TIP3    H158592   2.367   2.026   1.907  1.2898 -1.6621  0.7810
12367TIP3    H258593   2.459   2.140   1.944  0.1841 -0.9035  1.2371
12368TIP3   OH258594   1.790   3.289  13.970  0.0906  0.6531  0.1397
12368TIP3    H158595   1.878   3.323  13.953  0.1594  0.2530 -0.3373
12368TIP3    H258596   1.789   3.271  14.064  1.4543 -1.8685 -0.2353
12369TIP3   OH258597   4.064   1.064   4.381  0.1891 -0.3358  0.8346
12369TIP3    H158598   4.129   1.006   4.342  0.9144  1.6408 -1.1792
12369TIP3    H258599   4.113   1.116   4.445  0.1773 -0.1366  0.6850
12370TIP3   OH258600   5.685   3.171   3.411  0.3231 -0.5270  0.4303
12370TIP3    H158601   5.746   3.177   3.484 -0.8759  1.7933  1.3495
12370TIP3    H258602   5.668   3.077   3.401  2.4850 -1.0775  1.4022
12371TIP3   OH258603   5.432   3.197  13.125 -0.1738  0.0327  0.0308
12371TIP3    H158604   5.437   3.151  13.042  0.0092  0.5072 -0.2251
12371TIP3    H258605   5.381   3.276  13.106 -1.6111 -0.6856  0.7565
12372TIP3   OH258606   5.340   0.321  14.252 -0.0140 -0.2629  0.1950
12372TIP3    H158607   5.418   0.278  14.288 -1.2010 -2.3182  0.4737
12372TIP3    H258608   5.268   0.292  14.309 -1.4363 -0.9339 -1.8196
12373TIP3   OH258609   5.581   4.163  13.018  0.2081  0.2438  0.1303
12373TIP3    H158610   5.631   4.119  12.949 -0.0243 -0.4173  0.3800
12373TIP3    H258611   5.589   4.256  12.997  0.1625  0.0550 -0.7788
12374TIP3   OH258612   2.281   0.243  17.227 -0.2762  0.6254  0.0328
12374TIP3    H158613   2.230   0.162  17.234 -0.8776  1.1146  2.1740
12374TIP3    H258614   2.369   0.215  17.204 -0.2825 -0.7594  1.5317
12375TIP3   OH258615   2.879   0.268  16.350 -0.3521  0.5496  0.4443
12375TIP3    H158616   2.802   0.249  16.296 -0.9489  0.7160  1.2071
12375TIP3    H258617   2.844   0.320  16.423 -0.0620 -1.7645  2.3731
12376TIP3   OH258618   2.873   4.233   6.227 -0.3155 -0.4193 -0.0920
12376TIP3    H158619   2.936   4.212   6.159  0.8283 -1.0841  1.1278
12376TIP3    H258620   2.879   4.327   6.239  1.1314 -0.5838  0.6304
12377TIP3   OH258621   6.246   0.740  10.374  0.1553  0.1613  0.7768
12377TIP3    H158622   6.323   0.703  10.332  0.3094 -0.5533  1.6539
12377TIP3    H258623   6.280   0.816  10.422  0.1833  0.2867  0.5579
12378TIP3   OH258624   6.352   1.058   0.041 -0.3627  0.3734  0.2474
12378TIP3    H158625   6.418   1.031   0.105 -0.2381 -0.2085 -0.1206
12378TIP3    H258626   6.393   1.043  -0.044 -0.4051  1.4568  0.0198
12379TIP3   OH258627   4.228   2.526  11.362 -0.0759 -0.4461  0.2201
12379TIP3    H158628   4.298   2.461  11.369 -1.0998 -1.5305  0.8961
12379TIP3    H258629   4.266   2.597  11.311  0.6900 -2.1820 -1.8072
12380TIP3   OH258630   2.658   2.295  15.981 -0.2157 -0.2013  0.2681
12380TIP3    H158631   2.679   2.240  15.905 -0.6301  0.5930 -0.4359
12380TIP3    H258632   2.634   2.380  15.943 -1.4757 -0.1106  1.2217
12381TIP3   OH258633   5.134   6.112   2.605 -0.1091 -0.7991  0.1879
12381TIP3    H158634   5.118   6.108   2.699 -0.9489  1.2602  0.1872
12381TIP3    H258635   5.229   6.124   2.597  0.0054 -1.3069  0.7536
12382TIP3   OH258636   3.739   1.352  16.352  0.1192 -0.1946  0.0012
12382TIP3    H158637   3.711   1.442  16.335 -0.3381 -0.1537  0.9027
12382TIP3    H258638   3.669   1.316  16.406  1.3207 -0.4027  1.4920
12383TIP3   OH258639   0.975   5.103   6.022 -0.3100  0.5236 -0.1494
12383TIP3    H158640   1.026   5.044   6.077 -0.1804 -0.1516 -0.9676
12383TIP3    H258641   1.025   5.185   6.022 -0.5064  0.6541  1.0187
12384TIP3   OH258642   0.782   2.021  14.047  0.1163 -0.0935 -0.7508
12384TIP3    H158643   0.721   1.948  14.041 -0.3745  0.0951  1.1523
12384TIP3    H258644   0.867   1.981  14.061 -0.1512 -0.3302  0.2762
12385TIP3   OH258645   2.252   2.410  11.811  0.3474  0.1147 -0.0525
12385TIP3    H158646   2.238   2.436  11.902  1.9203 -0.5196  0.4119
12385TIP3    H258647   2.167   2.422  11.769 -0.3395  0.6912  1.4240
12386TIP3   OH258648   5.850   1.984  15.125  0.6200  0.0524  0.5661
12386TIP3    H158649   5.849   1.903  15.074  0.8980  0.8050 -0.6984
12386TIP3    H258650   5.783   2.039  15.084  0.6298  0.5705  1.2216
12387TIP3   OH258651   2.989   1.215   4.498  0.3113 -0.3280  0.6639
12387TIP3    H158652   2.934   1.191   4.572  1.3297 -1.3133  1.1212
12387TIP3    H258653   3.001   1.134   4.450 -0.5272  0.3380 -0.7500
12388TIP3   OH258654   1.274   0.371  15.962 -0.5712  0.6217  0.3749
12388TIP3    H158655   1.211   0.406  15.898 -0.9498  1.7569  1.3409
12388TIP3    H258656   1.229   0.295  16.000 -0.0783 -0.4793 -1.1348
12389TIP3   OH258657   4.611   2.288  16.143  0.1728  0.1885  0.2485
12389TIP3    H158658   4.648   2.308  16.229  0.2399 -0.1438  0.3024
12389TIP3    H258659   4.576   2.199  16.152  1.4740 -0.4326 -0.4680
12390TIP3   OH258660   2.451   1.205  15.108 -0.2259 -0.1942 -0.4978
12390TIP3    H158661   2.474   1.263  15.036 -1.3226 -1.2058 -1.7125
12390TIP3    H258662   2.363   1.173  15.087 -0.5572 -0.5878  1.2524
12391TIP3   OH258663   5.630   5.523  13.020 -0.0711 -0.0731  0.2931
12391TIP3    H158664   5.599   5.557  13.104 -0.1071  1.7571 -0.4172
12391TIP3    H258665   5.725   5.540  13.021  0.7758 -3.8879  1.6513
12392TIP3   OH258666   1.297   0.097   5.077  0.1885  0.8085  0.1382
12392TIP3    H158667   1.345   0.130   5.153 -1.0692  2.4550  0.2552
12392TIP3    H258668   1.276   0.174   5.025  0.7745 -0.2582 -1.7851
12393TIP3   OH258669   3.750   4.995   4.050 -0.5607  0.0885 -0.6852
12393TIP3    H158670   3.812   4.924   4.037 -0.9038 -0.3340 -0.0608
12393TIP3    H258671   3.669   4.964   4.010 -1.1243 -0.4918  0.8424
12394TIP3   OH258672   1.009   1.332  13.690  0.7836  0.2402 -0.1533
12394TIP3    H158673   0.965   1.407  13.730  0.6577 -0.2990  0.7577
12394TIP3    H258674   1.058   1.292  13.762  0.6752 -0.6788 -0.5755
12395TIP3   OH258675   3.754   1.501  15.168  0.2942 -0.0076  0.6751
12395TIP3    H158676   3.665   1.495  15.134 -0.0411  3.1346  0.7318
12395TIP3    H258677   3.753   1.446  15.247 -1.3445 -0.6075  0.2683
12396TIP3   OH258678   2.286   5.069   1.983 -0.1352 -0.0110  0.3915
12396TIP3    H158679   2.274   5.063   1.888 -0.1783 -0.2874  0.4141
12396TIP3    H258680   2.275   5.162   2.002 -0.8576 -0.0515  0.2224
12397TIP3   OH258681   3.116   4.258   1.226  0.1803 -0.3133 -0.5459
12397TIP3    H158682   3.034   4.208   1.238 -0.9765  1.7609  0.7513
12397TIP3    H258683   3.120   4.315   1.303  1.1838  1.9284 -2.1789
12398TIP3   OH258684   6.493   5.532   2.211  0.2274  0.0906  0.8733
12398TIP3    H158685   6.553   5.459   2.226  0.7790 -0.4071 -2.7304
12398TIP3    H258686   6.451   5.510   2.128 -1.0793  2.9448  0.6919
12399TIP3   OH258687   5.284   5.331  14.119  0.2045  0.5865 -0.5880
12399TIP3    H158688   5.376   5.330  14.146 -0.1834  1.2493  0.8687
12399TIP3    H258689   5.237   5.297  14.196 -0.7546 -0.0083 -1.4148
12400TIP3   OH258690   4.949   1.314   4.353  0.3081  0.0509 -0.2591
12400TIP3    H158691   4.952   1.372   4.277  1.0279  0.0457 -0.2471
12400TIP3    H258692   4.950   1.373   4.428 -2.2919  0.1386 -0.2109
12401TIP3   OH258693   6.662   2.475  14.713  0.0743  0.2613 -0.1349
12401TIP3    H158694   6.739   2.439  14.669 -0.2876  0.5011 -0.9666
12401TIP3    H258695   6.622   2.399  14.756 -0.0372 -0.1229 -0.9074
12402TIP3   OH258696   3.555   5.249   5.025 -0.1345  0.0969 -0.7119
12402TIP3    H158697   3.595   5.319   5.075  0.5328 -0.2204 -0.7951
12402TIP3    H258698   3.522   5.187   5.091  0.2292 -0.0372 -0.6561
12403TIP3   OH258699   4.053   0.076  16.289  0.1375 -0.0227  0.2591
12403TIP3    H158700   4.104   0.103  16.366 -1.4910  0.7188  1.1180
12403TIP3    H258701   4.106   0.104  16.214  0.4153  1.8680  1.1233
12404TIP3   OH258702   1.613   5.663  15.872  0.3985 -0.3531  0.2036
12404TIP3    H158703   1.601   5.568  15.882  0.4836 -0.4076 -0.1876
12404TIP3    H258704   1.599   5.679  15.778 -0.2443  0.1157  0.3711
12405TIP3   OH258705   6.036   3.902   5.179  0.1548 -0.0006 -0.4322
12405TIP3    H158706   5.966   3.837   5.172 -1.0181  1.2727 -0.8344
12405TIP3    H258707   6.054   3.907   5.273  0.4813 -1.1247 -0.4228
12406TIP3   OH258708   5.017   3.463   5.274 -0.0936 -0.5042 -0.2192
12406TIP3    H158709   4.964   3.417   5.208  1.4338  0.9646 -2.6537
12406TIP3    H258710   4.994   3.556   5.262 -0.8857 -0.2909  2.4592
12407TIP3   OH258711   3.509   4.837  12.296 -0.7444 -0.7405 -0.2935
12407TIP3    H158712   3.537   4.829  12.204 -2.1579 -0.4468 -0.7754
12407TIP3    H258713   3.476   4.751  12.319  0.1921 -0.9849  0.1511
12408TIP3   OH258714   4.629   6.178   1.636  0.9927 -0.3130 -0.0450
12408TIP3    H158715   4.568   6.251   1.638 -0.1386 -1.2477  1.6455
12408TIP3    H258716   4.696   6.201   1.700  1.0027 -0.4438 -0.0084
12409TIP3   OH258717   3.496   4.993   2.037  0.1447  0.1701  0.1884
12409TIP3    H158718   3.481   4.978   2.130 -1.4262 -0.3347 -0.1118
12409TIP3    H258719   3.559   4.926   2.011  2.1506  1.5565  1.2651
12410TIP3   OH258720   1.192   2.682   2.154  0.7668 -0.5076  0.3649
12410TIP3    H158721   1.273   2.649   2.115  0.0663 -1.1218 -0.6221
12410TIP3    H258722   1.208   2.775   2.168  2.0563 -0.8404  1.2923
12411TIP3   OH258723   5.289   2.202  16.714  0.0704 -0.0426  0.2134
12411TIP3    H158724   5.254   2.276  16.665  1.2965  0.0763 -0.5171
12411TIP3    H258725   5.241   2.126  16.681 -1.4836  0.4475  1.2599
12412TIP3   OH258726   6.069   4.720   4.676  0.0776  0.5353 -0.1642
12412TIP3    H158727   6.049   4.638   4.632 -2.4389  0.4614  0.9024
12412TIP3    H258728   6.137   4.761   4.622  0.1267 -1.4220 -1.6962
12413TIP3   OH258729   5.187   1.413   4.500  0.0296  0.4135 -0.4696
12413TIP3    H158730   5.255   1.451   4.555  0.7451  0.4370 -1.3465
12413TIP3    H258731   5.160   1.484   4.442 -1.4350  0.6845  0.4641
12414TIP3   OH258732   3.576   5.725   4.780 -0.0099  0.4802  0.0187
12414TIP3    H158733   3.562   5.802   4.726  0.3367  0.3364 -0.2849
12414TIP3    H258734   3.494   5.713   4.827 -0.3594  0.5469 -0.5591
12415TIP3   OH258735   1.812   2.607   3.539 -0.1101  0.2770  0.2640
12415TIP3    H158736   1.725   2.571   3.522  0.9041 -1.7085 -1.2201
12415TIP3    H258737   1.809   2.695   3.503 -2.2298  1.2664  2.5800
12416TIP3   OH258738   0.300   3.415   4.045 -0.1428 -0.3850  0.7029
12416TIP3    H158739   0.358   3.487   4.071  0.4878 -0.5012 -0.3030
12416TIP3    H258740   0.319   3.403   3.952 -3.0653  0.7433 -0.1454
12417TIP3   OH258741   3.374   4.967   2.605 -0.7306 -0.3165 -0.5374
12417TIP3    H158742   3.344   4.881   2.635  0.1641 -0.5620 -0.3211
12417TIP3    H258743   3.313   5.029   2.645 -1.0836 -0.8198 -0.2856
12418TIP3   OH258744   0.841   6.405  16.844 -0.0825 -0.3755 -0.3489
12418TIP3    H158745   0.822   6.347  16.918 -0.8763 -1.6280 -1.4832
12418TIP3    H258746   0.762   6.456  16.832 -0.4532 -1.1037 -1.1220
12419TIP3   OH258747   0.878   3.979  16.055  0.5050  0.0707  0.1452
12419TIP3    H158748   0.934   3.903  16.071  0.2430 -0.3375 -0.8135
12419TIP3    H258749   0.936   4.045  16.019  0.5941  0.0549  0.2611
12420TIP3   OH258750   6.291   2.335   1.103 -0.1547 -0.3135 -0.4694
12420TIP3    H158751   6.207   2.290   1.109 -0.3267  0.1523  2.1391
12420TIP3    H258752   6.356   2.266   1.113 -0.2495 -0.5681 -1.5880
12421TIP3   OH258753   4.517   4.684   2.451 -0.6611  0.2657  0.3010
12421TIP3    H158754   4.528   4.633   2.532 -2.1371 -0.7643 -0.0971
12421TIP3    H258755   4.509   4.617   2.383 -0.3795  1.1096 -0.5681
12422TIP3   OH258756   2.974   6.555   6.272 -0.4208 -0.0413  0.2973
12422TIP3    H158757   2.950   6.595   6.356  0.9739  4.2264 -1.0912
12422TIP3    H258758   3.069   6.549   6.275 -0.1087  2.3926 -1.7116
12423TIP3   OH258759   0.161   5.013   1.147  0.1874 -0.5008  0.0771
12423TIP3    H158760   0.171   5.103   1.180 -2.3376 -0.5447  1.2024
12423TIP3    H258761   0.173   5.020   1.053  3.0727  0.4392  0.4104
12424TIP3   OH258762   0.952   3.757   1.890  0.2542 -0.8761  0.2075
12424TIP3    H158763   1.001   3.820   1.942  1.4583 -2.4859  1.0997
12424TIP3    H258764   0.873   3.738   1.942 -0.7164  0.7175 -0.6126
12425TIP3   OH258765   1.318   4.190  13.977  0.3382 -0.0910  0.1738
12425TIP3    H158766   1.374   4.265  13.998 -1.9214  2.3931 -1.8159
12425TIP3    H258767   1.244   4.199  14.037 -0.0194 -0.6602 -0.1792
12426TIP3   OH258768   1.771   2.072  16.302  0.0676 -0.6274 -0.1092
12426TIP3    H158769   1.719   2.020  16.241 -1.1533 -0.9548  1.1598
12426TIP3    H258770   1.727   2.156  16.305  0.1254 -0.6126  0.3250
12427TIP3   OH258771   6.137   4.370   1.617  0.3063  0.8712 -0.2791
12427TIP3    H158772   6.162   4.456   1.648 -0.3925  0.9487  0.0912
12427TIP3    H258773   6.043   4.377   1.600  0.4181  0.4424 -1.1149
12428TIP3   OH258774   5.817   1.221   3.019 -0.3555 -0.3898  0.3492
12428TIP3    H158775   5.731   1.227   2.978  0.0615 -1.3325 -0.7055
12428TIP3    H258776   5.877   1.259   2.955  0.0864 -0.1929  0.8686
12429TIP3   OH258777   1.221   5.900   2.616  0.3689 -0.3485 -0.0279
12429TIP3    H158778   1.204   5.818   2.570 -0.1819 -0.7875  0.9209
12429TIP3    H258779   1.308   5.889   2.654  0.1102 -0.6871  0.4789
12430TIP3   OH258780   6.530   0.038  12.359 -0.1437 -0.0833  0.6672
12430TIP3    H158781   6.613  -0.006  12.338 -0.5954 -0.4770 -0.4042
12430TIP3    H258782   6.489   0.052  12.273 -0.3809  1.7214  1.0531
12431TIP3   OH258783   2.003   4.395   4.046 -0.4468  0.5352  0.5472
12431TIP3    H158784   1.979   4.302   4.051  0.1215  0.3877  0.7061
12431TIP3    H258785   2.095   4.393   4.018 -1.5039  1.1299 -3.6869
12432TIP3   OH258786   6.194   5.188   3.975 -0.0419  0.5354 -0.4924
12432TIP3    H158787   6.275   5.231   4.003 -0.4159  0.6678  0.4184
12432TIP3    H258788   6.138   5.259   3.944 -1.4265  1.0842  2.8390
12433TIP3   OH258789   4.132   4.630  12.409  0.0178  0.4352 -0.1641
12433TIP3    H158790   4.186   4.686  12.352  0.7698  1.4591  1.4668
12433TIP3    H258791   4.182   4.549  12.418 -0.6673 -0.2131 -1.8572
12434TIP3   OH258792   5.203   2.412  13.511  0.9673  0.2148  0.5765
12434TIP3    H158793   5.177   2.446  13.426  0.9540  0.0956  0.5328
12434TIP3    H258794   5.132   2.352  13.536  2.2588 -1.9560 -0.6092
12435TIP3   OH258795   2.241   0.741  16.129 -0.2554  0.1138 -0.3468
12435TIP3    H158796   2.305   0.671  16.140  0.0627  0.6176  1.3152
12435TIP3    H258797   2.293   0.817  16.103 -0.0880  0.5977  1.2874
12436TIP3   OH258798   5.144   0.266  13.270 -0.3342 -1.1383 -0.7303
12436TIP3    H158799   5.207   0.243  13.337 -0.2296 -1.4509 -0.9319
12436TIP3    H258800   5.062   0.226  13.299 -0.3447 -1.0771 -0.6743
12437TIP3   OH258801   5.984   1.168   0.814 -0.0959 -0.0764 -0.1890
12437TIP3    H158802   6.049   1.209   0.871 -0.6470  0.0985  0.3164
12437TIP3    H258803   6.035   1.138   0.738  0.7557 -0.9513  0.7075
12438TIP3   OH258804   0.689   2.145   0.431  0.0476  0.4983 -0.0323
12438TIP3    H158805   0.664   2.102   0.349  0.5419  1.6844 -0.8305
12438TIP3    H258806   0.623   2.117   0.494  0.6518 -1.8540 -0.3599
12439TIP3   OH258807   0.942   1.980  10.921 -0.3360 -0.0117  0.1582
12439TIP3    H158808   1.031   2.011  10.937 -0.7932  0.4515  2.0748
12439TIP3    H258809   0.896   2.055  10.883 -0.1919  0.0925  0.1891
12440TIP3   OH258810   4.831   0.957   4.854 -0.1688  0.2205 -0.1423
12440TIP3    H158811   4.893   0.966   4.927 -0.7777 -0.3801  0.4600
12440TIP3    H258812   4.803   1.046   4.836  1.0000  0.5318 -0.5536
12441TIP3   OH258813   6.523   2.750  16.446  0.0813  0.1686 -0.1509
12441TIP3    H158814   6.466   2.679  16.416 -2.3829  1.3220  1.4389
12441TIP3    H258815   6.487   2.829  16.405  0.8819  0.8675  0.4573
12442TIP3   OH258816   4.409   1.447  13.328 -0.5835 -0.2337  0.4561
12442TIP3    H158817   4.463   1.525  13.337  0.7666 -1.2147  1.3002
12442TIP3    H258818   4.351   1.465  13.254 -0.3267  1.5559  0.6652
12443TIP3   OH258819   3.410   4.575   2.462 -0.1472  0.1282  0.3011
12443TIP3    H158820   3.426   4.483   2.486 -1.9598 -0.2687  0.1218
12443TIP3    H258821   3.374   4.615   2.541 -2.9313 -0.3285 -0.6103
12444TIP3   OH258822   2.026   2.409   6.049  0.0474 -0.7451  0.1893
12444TIP3    H158823   2.038   2.343   6.117 -3.4468 -1.8565 -0.0439
12444TIP3    H258824   2.080   2.379   5.976 -1.0493 -3.1692  0.2741
12445TIP3   OH258825   3.200   6.667  13.044 -0.7944  0.0406 -0.0917
12445TIP3    H158826   3.242   6.627  12.968  1.5130 -0.6837  1.4555
12445TIP3    H258827   3.146   6.597  13.081 -1.2080  0.1216 -0.5294
12446TIP3   OH258828   3.477   2.987  12.617 -0.3217  0.2809  0.0800
12446TIP3    H158829   3.571   3.004  12.609 -0.0480 -1.4082 -0.7708
12446TIP3    H258830   3.435   3.066  12.583  0.7874  0.9193  0.1485
12447TIP3   OH258831   2.319   1.006  16.122  0.5596  0.3757  0.4201
12447TIP3    H158832   2.340   1.069  16.192 -1.9877  0.8261  0.8952
12447TIP3    H258833   2.280   1.060  16.053  0.9315 -0.3512 -0.3614
12448TIP3   OH258834   5.112   5.474  14.442 -0.0297  0.0869  0.1673
12448TIP3    H158835   5.077   5.400  14.393 -0.6519 -0.2785  1.1211
12448TIP3    H258836   5.205   5.456  14.450 -0.1074 -0.3969  0.0391
12449TIP3   OH258837   2.534   0.093  11.770 -0.0829  0.1572  0.0216
12449TIP3    H158838   2.499   0.095  11.681 -1.8463  0.1162  0.6849
12449TIP3    H258839   2.556   0.001  11.785  3.2000  0.5521 -1.4017
12450TIP3   OH258840   2.806   6.107   6.721 -0.1545 -0.0620  0.2288
12450TIP3    H158841   2.794   6.200   6.701  1.3202  0.3296  1.0240
12450TIP3    H258842   2.845   6.107   6.808  0.9897 -1.3780 -0.2611
12451TIP3   OH258843   2.752   4.908   4.237  0.0835  0.5419  0.3788
12451TIP3    H158844   2.775   4.822   4.201  0.3894  0.7536  0.0698
12451TIP3    H258845   2.789   4.971   4.176  0.2469  0.9025  0.8461
12452TIP3   OH258846   6.773   0.852   5.045  0.0829  0.1427  0.5405
12452TIP3    H158847   6.756   0.757   5.039 -3.1333  0.6745 -0.8895
12452TIP3    H258848   6.759   0.884   4.956 -0.6641  2.1775  1.3448
12453TIP3   OH258849   6.389   5.557   4.367  0.1438 -0.0468  0.3448
12453TIP3    H158850   6.440   5.583   4.444  0.3478 -1.0595  0.5719
12453TIP3    H258851   6.333   5.486   4.399  1.3116 -1.5324 -0.7678
12454TIP3   OH258852   5.394   0.855  11.300  0.0981  0.0308  0.1776
12454TIP3    H158853   5.349   0.939  11.312  0.0232  0.2797 -1.6472
12454TIP3    H258854   5.331   0.790  11.332 -1.2329  0.4397 -1.4896
12455TIP3   OH258855   0.292   1.840  13.468 -0.8068 -0.4072 -0.1706
12455TIP3    H158856   0.283   1.868  13.559  0.0758 -0.0565 -0.1799
12455TIP3    H258857   0.289   1.922  13.417  2.9479 -0.0431 -0.1166
12456TIP3   OH258858   6.237   5.631  15.433 -0.0053 -0.1674  0.2413
12456TIP3    H158859   6.296   5.562  15.462 -0.2204 -0.5287 -0.1828
12456TIP3    H258860   6.253   5.639  15.339 -0.1792  0.1707  0.2390
12457TIP3   OH258861   5.391   4.825  13.837  0.0453  0.6066  0.0470
12457TIP3    H158862   5.375   4.779  13.919  1.8089 -0.1415  0.0153
12457TIP3    H258863   5.313   4.808  13.783 -1.1003  1.0456  1.4982
12458TIP3   OH258864   0.255   4.041  16.883 -0.1538 -0.3040  0.4776
12458TIP3    H158865   0.207   4.121  16.862 -0.2594 -0.7064 -0.8877
12458TIP3    H258866   0.190   3.983  16.922 -0.3407 -0.1579  0.3827
12459TIP3   OH258867   3.782   2.311  16.564  0.1621 -0.5573  0.0025
12459TIP3    H158868   3.721   2.371  16.606 -0.3997 -0.5197 -0.8529
12459TIP3    H258869   3.739   2.226  16.569 -0.5061 -0.3473 -1.6053
12460TIP3   OH258870   4.205   4.988  15.803 -0.5386  0.5465  0.5452
12460TIP3    H158871   4.231   5.055  15.739 -0.9050 -0.9164 -1.2212
12460TIP3    H258872   4.288   4.949  15.831 -0.4689 -0.8817 -1.4526
12461TIP3   OH258873   2.418   6.600   0.122  0.0960 -0.5201  0.2606
12461TIP3    H158874   2.439   6.570   0.033 -1.6231 -0.2241 -0.2881
12461TIP3    H258875   2.394   6.692   0.111  0.0974 -0.4196  1.0729
12462TIP3   OH258876   3.122   0.718  13.465  0.0358  0.1845  0.1003
12462TIP3    H158877   3.192   0.728  13.400  0.8853  1.5785  1.1607
12462TIP3    H258878   3.062   0.791  13.447  0.0073  0.2751  0.5481
12463TIP3   OH258879   5.772   0.387   3.782 -0.1588  0.1047 -0.5646
12463TIP3    H158880   5.825   0.446   3.729  0.5456  1.9220  2.0181
12463TIP3    H258881   5.827   0.309   3.793  0.5445  0.5699 -0.7275
12464TIP3   OH258882   4.330   2.145  13.336  0.1883 -0.3469  0.1221
12464TIP3    H158883   4.257   2.179  13.285  0.9102 -2.1459 -2.3128
12464TIP3    H258884   4.403   2.142  13.274  0.7612 -3.9433  0.7294
12465TIP3   OH258885   5.543   2.395   1.563  0.0072  0.4015 -0.3102
12465TIP3    H158886   5.605   2.327   1.539 -2.7783 -2.0646 -1.0598
12465TIP3    H258887   5.501   2.420   1.481 -1.7042  0.1505  0.4349
12466TIP3   OH258888   3.184   0.941  14.791 -0.3565 -0.3857 -0.2444
12466TIP3    H158889   3.222   0.964  14.877 -0.2540 -1.0842 -0.1014
12466TIP3    H258890   3.188   0.846  14.788 -1.0787 -0.4010 -0.7059
12467TIP3   OH258891   3.818   0.868   4.708 -0.3622 -0.4122  0.2708
12467TIP3    H158892   3.832   0.787   4.660  1.8317 -0.4178  0.8069
12467TIP3    H258893   3.770   0.925   4.648 -0.2910 -1.4617 -0.7980
12468TIP3   OH258894   2.569   2.972  11.634 -0.4181 -0.0996  0.2359
12468TIP3    H158895   2.481   2.985  11.601 -0.0803 -1.4110 -1.2725
12468TIP3    H258896   2.558   2.920  11.713 -0.9301 -1.6981 -0.8502
12469TIP3   OH258897   1.604   3.054   5.446  0.1798 -0.7094  0.5092
12469TIP3    H158898   1.594   3.090   5.357 -0.5658  0.0179  0.8754
12469TIP3    H258899   1.522   3.078   5.490  1.5520  1.2303  2.1807
12470TIP3   OH258900   0.398   3.163  15.126 -0.0919 -0.3915  0.4042
12470TIP3    H158901   0.451   3.146  15.203  2.5706  1.3861 -0.8714
12470TIP3    H258902   0.404   3.258  15.113 -2.2489 -0.3512 -0.8028
12471TIP3   OH258903   3.133   3.447  12.598 -0.2637  0.5652  0.5982
12471TIP3    H158904   3.169   3.380  12.657  0.3097  1.5435  1.3799
12471TIP3    H258905   3.039   3.442  12.611 -0.5597 -2.1648 -1.6163
12472TIP3   OH258906   0.345   6.174  16.949  0.4733  0.1035 -0.2003
12472TIP3    H158907   0.344   6.143  17.040  0.2238  1.9004  0.4495
12472TIP3    H258908   0.253   6.192  16.929  0.3279 -1.6882 -1.3605
12473TIP3   OH258909   6.455   3.639   3.470  0.5164  0.1704  0.0163
12473TIP3    H158910   6.401   3.648   3.549  0.9859  1.2142  0.2335
12473TIP3    H258911   6.459   3.544   3.455  2.7126 -0.3333  2.8511
12474TIP3   OH258912   6.323   5.071  16.494  0.2017  0.0170  0.0204
12474TIP3    H158913   6.233   5.103  16.495 -0.7306 -2.3933  1.4232
12474TIP3    H258914   6.376   5.150  16.484 -2.0015  1.6156  0.1427
12475TIP3   OH258915   1.949   5.602  16.786 -0.4232  0.3879 -0.5935
12475TIP3    H158916   2.007   5.576  16.858  0.0661 -2.3707 -1.8555
12475TIP3    H258917   2.008   5.618  16.712 -1.0160  1.9042 -0.7850
12476TIP3   OH258918   2.944   1.151  14.374  0.1530 -0.1319  0.0861
12476TIP3    H158919   2.863   1.138  14.422  0.2078 -0.0026  0.2129
12476TIP3    H258920   3.014   1.132  14.437  0.2177 -0.6979 -0.1548
12477TIP3   OH258921   1.858   2.330  11.671 -0.0172  0.2386  0.5658
12477TIP3    H158922   1.891   2.252  11.716 -0.2391 -0.7032 -0.8679
12477TIP3    H258923   1.936   2.384  11.657 -0.0055  0.7752  2.4467
12478TIP3   OH258924   1.103   2.513   3.750  0.2745 -0.2487 -0.7832
12478TIP3    H158925   1.182   2.463   3.730  0.6515 -0.9758  2.1050
12478TIP3    H258926   1.110   2.591   3.694  2.1374 -1.1075 -1.8597
12479TIP3   OH258927   0.733   2.976  16.404 -0.4355 -0.0217  0.4527
12479TIP3    H158928   0.811   2.988  16.459  0.4904 -1.8359 -0.3821
12479TIP3    H258929   0.661   3.008  16.458  0.6183 -0.4061  2.1674
12480TIP3   OH258930   2.826   5.834  15.385 -0.3067  0.4399 -0.3144
12480TIP3    H158931   2.893   5.784  15.339  1.6742  2.5775  0.0852
12480TIP3    H258932   2.807   5.783  15.464  1.1665 -0.0075 -0.2356
12481TIP3   OH258933   5.532   0.321   2.527  0.2429 -0.0609 -0.2333
12481TIP3    H158934   5.593   0.359   2.590 -0.4849 -0.1857  0.5765
12481TIP3    H258935   5.525   0.229   2.553 -1.7052  0.3412  0.9184
12482TIP3   OH258936   6.362   6.191   1.078  0.5525  0.1608 -0.2193
12482TIP3    H158937   6.274   6.207   1.115  0.6802  1.4595 -0.4006
12482TIP3    H258938   6.418   6.178   1.155  0.3991  0.4853 -0.0470
12483TIP3   OH258939   2.494   3.955   6.253 -0.6745  0.0546  0.0888
12483TIP3    H158940   2.581   3.916   6.240 -0.4842  0.9854 -1.7624
12483TIP3    H258941   2.460   3.911   6.331  0.2395 -2.5184 -0.8480
12484TIP3   OH258942   3.410   5.879   1.236 -0.9615 -0.1928  0.9017
12484TIP3    H158943   3.447   5.928   1.163  2.2641  1.7519  3.5701
12484TIP3    H258944   3.453   5.794   1.233  0.2058  0.3704  1.2766
12485TIP3   OH258945   5.752   0.809  16.242  0.2312 -0.3549  0.5367
12485TIP3    H158946   5.710   0.729  16.209 -2.5439  2.3431 -3.3138
12485TIP3    H258947   5.684   0.852  16.292  1.1994  0.3379  1.2793
12486TIP3   OH258948   3.058   3.018   2.162 -0.0000  0.0194 -0.3443
12486TIP3    H158949   3.002   3.094   2.146  0.0756  0.6368  1.9490
12486TIP3    H258950   3.110   3.043   2.239  1.6852 -1.4847 -0.9348
12487TIP3   OH258951   6.072   2.481  10.519  0.7223 -0.1898 -0.5300
12487TIP3    H158952   6.147   2.448  10.567  0.9947 -0.3043 -1.0272
12487TIP3    H258953   6.024   2.402  10.492  1.8025 -0.2689 -2.4103
12488TIP3   OH258954   1.596   4.985  11.951  0.1598 -0.4487 -0.0564
12488TIP3    H158955   1.547   4.960  12.029 -0.7806  1.1618 -0.0936
12488TIP3    H258956   1.536   4.969  11.878 -0.0750  0.8452 -0.1653
12489TIP3   OH258957   3.080   0.304  14.307  0.0955  0.6055  0.3955
12489TIP3    H158958   3.140   0.326  14.235 -1.6701 -0.0036 -1.3581
12489TIP3    H258959   3.016   0.375  14.308 -0.4408  0.1306  0.7249
12490TIP3   OH258960   3.842   5.155  12.161 -0.3805  0.0269  0.1885
12490TIP3    H158961   3.926   5.110  12.151  0.0132  0.3362  1.7783
12490TIP3    H258962   3.817   5.180  12.072  1.5652  0.5560 -0.2522
12491TIP3   OH258963   4.425   5.316   5.199 -0.1314 -0.3634  0.7856
12491TIP3    H158964   4.520   5.312   5.185  0.2276  0.3397  2.7063
12491TIP3    H258965   4.404   5.409   5.195 -0.6093 -0.4543  1.1653
12492TIP3   OH258966   2.929   4.431   1.091 -0.1219  0.3591 -0.5514
12492TIP3    H158967   2.866   4.369   1.056 -0.2252  0.5852 -0.7706
12492TIP3    H258968   2.997   4.377   1.131 -0.4119  0.1135 -0.3877
12493TIP3   OH258969   4.059   2.756   6.369 -0.4324 -0.3019 -0.1903
12493TIP3    H158970   4.098   2.740   6.454 -1.2098 -1.0765  0.0404
12493TIP3    H258971   4.019   2.842   6.376  0.4001  0.0883 -0.1241
12494TIP3   OH258972   5.271   6.725  11.273 -0.4903  0.6054 -0.2056
12494TIP3    H158973   5.246   6.776  11.350 -0.8427  0.3343 -0.1359
12494TIP3    H258974   5.208   6.751  11.206 -0.7827  0.1450 -0.1184
12495TIP3   OH258975   0.345   1.728  12.512 -0.4801  0.4277 -0.2242
12495TIP3    H158976   0.408   1.795  12.537 -0.9527  0.2828  1.4751
12495TIP3    H258977   0.393   1.645  12.517  0.1656  0.5886 -2.5370
12496TIP3   OH258978   0.237   5.490   0.851 -0.4669  0.1276  0.3188
12496TIP3    H158979   0.177   5.426   0.812 -0.6768  1.9468 -2.6424
12496TIP3    H258980   0.183   5.566   0.870  0.2780  0.4808  1.1187
12497TIP3   OH258981   4.437   0.983   3.520  0.1844 -0.1708  0.5142
12497TIP3    H158982   4.442   0.958   3.428 -0.7737 -1.4872  0.7779
12497TIP3    H258983   4.528   0.990   3.549  0.5511  1.9435 -0.9181
12498TIP3   OH258984   6.682   3.964   2.186  0.0110  0.3046  0.1108
12498TIP3    H158985   6.651   3.884   2.228 -0.1450 -0.3141 -1.1351
12498TIP3    H258986   6.612   3.989   2.127  0.5333  0.7247 -0.3468
12499TIP3   OH258987   0.392   5.107  11.716  0.1573  0.8473  0.0038
12499TIP3    H158988   0.362   5.124  11.805 -0.2484  1.3967 -0.2332
12499TIP3    H258989   0.451   5.180  11.696 -0.0073  0.9013 -0.2932
12500TIP3   OH258990   5.603   1.704  16.191 -0.1047 -0.4397 -0.2386
12500TIP3    H158991   5.643   1.761  16.126 -0.1950 -0.6830 -0.5107
12500TIP3    H258992   5.509   1.723  16.185 -0.1482 -0.7022 -0.4170
12501TIP3   OH258993   0.878   5.954   3.732 -0.5550  0.3361 -0.2894
12501TIP3    H158994   0.897   6.047   3.739  0.9415  0.1451 -1.2127
12501TIP3    H258995   0.811   5.948   3.663 -1.7826  0.8023  0.8161
12502TIP3   OH258996   3.120   6.211  12.826  0.7833  0.4148  0.2029
12502TIP3    H158997   3.058   6.159  12.775  1.5579  1.5032 -1.9731
12502TIP3    H258998   3.087   6.207  12.915 -1.4932 -0.3868 -0.6076
12503TIP3   OH258999   3.950   3.748   2.311  0.5819  0.1805 -0.0396
12503TIP3    H159000   3.935   3.659   2.342 -0.6502 -0.1260 -1.4296
12503TIP3    H259001   4.045   3.756   2.305  0.8033 -0.3430  1.9798
12504TIP3   OH259002   3.002   1.881   3.824 -0.2653 -0.2700  0.2021
12504TIP3    H159003   3.052   1.909   3.901 -0.9506  1.1071  0.1788
12504TIP3    H259004   2.972   1.793   3.846 -0.1228 -0.0486  1.3575
12505TIP3   OH259005   3.790   2.785   1.944  0.2493 -0.1744 -0.1612
12505TIP3    H159006   3.843   2.778   2.023  0.8877 -0.2368 -0.5815
12505TIP3    H259007   3.723   2.849   1.965  1.5040  1.1890 -0.1486
12506TIP3   OH259008   2.699   4.824  14.416  0.0615  0.3643 -0.0880
12506TIP3    H159009   2.687   4.904  14.365  1.1215  0.0429 -0.8680
12506TIP3    H259010   2.618   4.774  14.404  0.3271  0.2605 -1.5164
12507TIP3   OH259011   1.805   2.720   0.682 -0.6056 -0.1316 -0.7693
12507TIP3    H159012   1.878   2.779   0.664 -1.0096  0.3862 -0.7501
12507TIP3    H259013   1.729   2.765   0.644 -0.6806 -1.4058 -2.2429
12508TIP3   OH259014   4.367   5.607   4.552 -0.5682 -0.5803  0.6470
12508TIP3    H159015   4.433   5.588   4.619  0.8479  3.4775  0.6830
12508TIP3    H259016   4.402   5.569   4.472  0.0894 -1.4328  1.3200
12509TIP3   OH259017   1.388   3.519  12.809 -0.0607  0.0840  0.1149
12509TIP3    H159018   1.360   3.543  12.898 -0.3582  1.1339 -0.2488
12509TIP3    H259019   1.323   3.560  12.752  0.5159 -0.0168 -0.6216
12510TIP3   OH259020   0.645   5.180  14.543 -0.0228 -0.3886  0.4967
12510TIP3    H159021   0.691   5.117  14.599  1.2170  0.2784  0.2643
12510TIP3    H259022   0.611   5.128  14.471 -0.1138 -0.9840  0.9597
12511TIP3   OH259023   3.435   4.723  16.197 -0.2249 -0.0116 -0.0295
12511TIP3    H159024   3.405   4.758  16.113  0.3604 -2.7795 -1.5329
12511TIP3    H259025   3.530   4.731  16.195 -0.2168  0.0989  0.4872
12512TIP3   OH259026   4.258   6.424  15.812  0.0848  0.0125 -0.7586
12512TIP3    H159027   4.324   6.460  15.872 -0.7373 -0.1818  0.3030
12512TIP3    H259028   4.296   6.342  15.782  0.5298  0.1298 -0.5335
12513TIP3   OH259029   1.604   5.853   0.348  0.6945  0.0741  0.0469
12513TIP3    H159030   1.678   5.850   0.287  1.1917 -0.7125  0.6676
12513TIP3    H259031   1.551   5.777   0.325  1.2527 -0.6320  1.0255
12514TIP3   OH259032   6.749   0.515   2.140  0.2021 -0.6187  0.3617
12514TIP3    H159033   6.820   0.451   2.128 -0.4107 -1.4888  1.2287
12514TIP3    H259034   6.712   0.526   2.052  0.7391 -0.9623  0.0829
12515TIP3   OH259035   6.115   6.347  12.624  0.1773  0.3415 -0.1580
12515TIP3    H159036   6.110   6.397  12.705 -3.1655 -0.2004  0.1201
12515TIP3    H259037   6.170   6.272  12.646  0.6403  1.0115  1.0946
12516TIP3   OH259038   2.602   0.046  16.933 -0.4563  0.0012  0.2111
12516TIP3    H159039   2.676   0.095  16.971 -0.5275 -0.9930  1.7296
12516TIP3    H259040   2.541   0.113  16.903  0.7571  0.8351 -0.4678
12517TIP3   OH259041   5.422   4.198   6.712  0.4392 -0.0477  0.1022
12517TIP3    H159042   5.328   4.180   6.719  0.2665 -0.3352 -2.3583
12517TIP3    H259043   5.455   4.180   6.800 -1.5017 -1.8125  0.5629
12518TIP3   OH259044   4.847   2.127   5.059 -0.1984  0.3153  0.0590
12518TIP3    H159045   4.875   2.187   4.990  3.0125 -1.7361 -0.5892
12518TIP3    H259046   4.917   2.130   5.124  0.2982 -2.9231 -0.1823
12519TIP3   OH259047   0.651   1.392  15.008 -0.0717 -0.6064  0.2920
12519TIP3    H159048   0.714   1.326  14.982 -0.2514 -0.0049 -1.8261
12519TIP3    H259049   0.570   1.367  14.965 -0.5574  0.1389  0.7482
12520TIP3   OH259050   0.182   3.821   1.586  0.2522 -0.5537  0.0742
12520TIP3    H159051   0.195   3.896   1.527  1.6736 -1.0526 -0.2766
12520TIP3    H259052   0.087   3.815   1.595  0.0775  0.8262 -0.4885
12521TIP3   OH259053   1.915   3.545  12.314  0.5151  0.3937 -0.4019
12521TIP3    H159054   1.897   3.639  12.319 -1.2769  0.0712  3.3299
12521TIP3    H259055   1.948   3.523  12.401  0.4381 -2.4898 -1.0183
12522TIP3   OH259056   0.167   1.682  13.255  0.3613 -0.4969  0.1227
12522TIP3    H159057   0.085   1.702  13.301  0.5716 -0.5248  0.5115
12522TIP3    H259058   0.234   1.731  13.303  0.9585 -2.4435  1.3511
12523TIP3   OH259059   1.074   1.853   2.454 -0.4381  0.0253 -0.2143
12523TIP3    H159060   0.999   1.887   2.504  1.0020  0.7485  1.5789
12523TIP3    H259061   1.062   1.758   2.454 -1.0629  0.0968  0.5596
12524TIP3   OH259062   3.501   4.379   1.889  0.3681  0.4262  0.3988
12524TIP3    H159063   3.573   4.346   1.943  0.3296  1.7680  1.3247
12524TIP3    H259064   3.519   4.473   1.881  0.2879  0.3037 -1.8341
12525TIP3   OH259065   4.720   2.348   5.868  0.0495 -0.1584 -0.1726
12525TIP3    H159066   4.709   2.433   5.910  0.5372 -0.5759  0.8140
12525TIP3    H259067   4.635   2.330   5.827 -0.8718 -0.3313  1.7290
12526TIP3   OH259068   5.485   5.787  12.995  0.1518  0.5404  0.0753
12526TIP3    H159069   5.526   5.854  13.051  1.9199  1.2327 -1.9256
12526TIP3    H259070   5.552   5.765  12.931  0.1302 -4.1469  1.3034
12527TIP3   OH259071   2.141   5.676  13.917 -0.1610 -0.1305  0.3516
12527TIP3    H159072   2.103   5.707  13.999 -1.0579 -0.5080  0.0895
12527TIP3    H259073   2.230   5.710  13.918 -0.3855  0.4727  1.1492
12528TIP3   OH259074   0.988   0.720   4.870 -0.0073  0.0504 -0.2219
12528TIP3    H159075   1.082   0.723   4.887  0.0539  0.6845 -0.6625
12528TIP3    H259076   0.960   0.635   4.906  0.0784  1.2800  3.1311
12529TIP3   OH259077   2.628   3.252   5.780 -0.0174 -0.0170 -0.5957
12529TIP3    H159078   2.667   3.339   5.784  0.2515 -0.0813 -1.5324
12529TIP3    H259079   2.600   3.234   5.870  1.1395  0.4776 -0.1065
12530TIP3   OH259080   1.484   4.331   5.007 -0.2213  0.1603 -0.1866
12530TIP3    H159081   1.567   4.291   5.030 -0.3920 -0.2485 -0.2825
12530TIP3    H259082   1.418   4.282   5.056 -0.3591  0.8471  0.3416
12531TIP3   OH259083   4.284   0.597  16.222  0.3673 -0.1273  1.0623
12531TIP3    H159084   4.281   0.501  16.229 -0.0350 -0.2259 -0.2439
12531TIP3    H259085   4.193   0.623  16.206  0.6594  0.3544  0.1335
12532TIP3   OH259086   5.118   0.715  11.926 -0.2396 -0.4240 -0.0445
12532TIP3    H159087   5.158   0.726  11.840 -0.7201  2.0906 -0.0280
12532TIP3    H259088   5.130   0.800  11.969 -3.5411 -0.2550  0.8287
12533TIP3   OH259089   6.113   0.727  16.859 -1.0102 -0.6246  0.3975
12533TIP3    H159090   6.116   0.674  16.939 -0.3682 -1.2075 -0.0023
12533TIP3    H259091   6.024   0.715  16.826 -1.7421  0.7137  1.7294
12534TIP3   OH259092   4.594   5.947   4.279  0.4693 -0.5741  0.0141
12534TIP3    H159093   4.658   5.919   4.214  0.1226  0.6019 -0.8495
12534TIP3    H259094   4.646   5.981   4.351  0.8415  1.0521 -0.9835
12535TIP3   OH259095   5.254   2.322   1.712  0.1745 -0.4122  0.0932
12535TIP3    H159096   5.245   2.410   1.749 -0.0950  1.0164 -3.0354
12535TIP3    H259097   5.341   2.321   1.673 -0.9341 -0.2128 -2.6842
12536TIP3   OH259098   6.700   5.087   4.287 -0.1236 -0.7982  0.1295
12536TIP3    H159099   6.771   5.137   4.326 -0.5536 -0.0582  0.0000
12536TIP3    H259100   6.681   5.018   4.350  0.4259 -0.7445  0.3581
12537TIP3   OH259101   6.650   1.456   5.770  0.0379  0.5475 -0.2061
12537TIP3    H159102   6.729   1.461   5.823 -0.8140  0.3267  1.1322
12537TIP3    H259103   6.674   1.496   5.686  1.4768  0.7012  0.2593
12538TIP3   OH259104   3.602   4.829  12.059 -0.7391  0.4559  0.3025
12538TIP3    H159105   3.672   4.893  12.055 -2.1622  2.0099 -1.6405
12538TIP3    H259106   3.623   4.765  11.991 -0.0912 -0.3747  1.2478
12539TIP3   OH259107   3.549   2.731   3.375  0.2929 -0.0514 -0.2048
12539TIP3    H159108   3.614   2.800   3.362 -1.0281  1.0703 -1.0301
12539TIP3    H259109   3.535   2.729   3.470  0.4483  0.7094 -0.1609
12540TIP3   OH259110   2.108   6.672   1.139 -0.0338  0.5444  0.2626
12540TIP3    H159111   2.193   6.637   1.164  0.0586  0.6773  0.1360
12540TIP3    H259112   2.106   6.663   1.044 -1.4552 -2.4789  0.4356
12541TIP3   OH259113   1.022   5.521   1.584 -0.0212  0.0576 -0.3781
12541TIP3    H159114   0.937   5.509   1.627  0.4664 -0.1107  0.5675
12541TIP3    H259115   1.011   5.599   1.529 -0.2150  1.2557  1.2757
12542TIP3   OH259116   3.481   2.110  15.829 -0.1304  0.1096 -0.2462
12542TIP3    H159117   3.467   2.021  15.860 -2.0703  0.6228  0.5445
12542TIP3    H259118   3.476   2.164  15.908 -0.3409  1.0263 -0.8632
12543TIP3   OH259119   3.725   2.093   5.541  0.1442  0.1244  0.1582
12543TIP3    H159120   3.811   2.091   5.498 -0.6744  0.1906 -1.5903
12543TIP3    H259121   3.743   2.073   5.633  2.2835  2.3092  0.3139
12544TIP3   OH259122   6.346   1.638   0.493  0.3768  0.1679 -0.2901
12544TIP3    H159123   6.305   1.611   0.575 -0.5318  0.4590 -0.6331
12544TIP3    H259124   6.437   1.654   0.516 -0.3619  2.7761  1.2859
12545TIP3   OH259125   3.246   2.787   4.350  0.7888 -0.4793 -0.0881
12545TIP3    H159126   3.157   2.812   4.375 -0.1385 -1.8535 -1.7816
12545TIP3    H259127   3.271   2.720   4.414  0.4585 -0.3656  0.1639
12546TIP3   OH259128   0.936   4.791  16.835  0.0610 -0.0204  0.7176
12546TIP3    H159129   0.859   4.847  16.834  0.0716 -0.0099 -0.7243
12546TIP3    H259130   0.931   4.740  16.754 -0.5513 -2.9778  2.4449
12547TIP3   OH259131   0.494   5.045  11.400 -0.6530  0.0201 -0.7936
12547TIP3    H159132   0.446   4.964  11.379  0.7672 -0.5965 -1.8038
12547TIP3    H259133   0.472   5.105  11.329 -0.4209 -0.0494 -0.9250
12548TIP3   OH259134   0.589   2.932  17.203 -0.3924 -0.4084 -0.5643
12548TIP3    H159135   0.534   2.925  17.281 -0.4827  0.4875 -0.5432
12548TIP3    H259136   0.544   2.879  17.137  0.1934 -2.0027  0.2570
12549TIP3   OH259137   0.849   4.849   2.670 -0.6808 -0.1668  0.1834
12549TIP3    H159138   0.914   4.879   2.733 -1.7571  2.0732  0.3479
12549TIP3    H259139   0.766   4.850   2.718 -0.9464 -2.8979 -0.0353
12550TIP3   OH259140   5.374   0.161   2.776  0.5336 -0.2432 -0.7645
12550TIP3    H159141   5.462   0.191   2.799  0.4535 -0.6803  0.1553
12550TIP3    H259142   5.316   0.204   2.838  0.3454 -1.6575  0.0846
12551TIP3   OH259143   3.953   0.761  12.305 -0.3869  0.0665  0.6328
12551TIP3    H159144   3.914   0.677  12.281 -2.5686  0.6953  1.7277
12551TIP3    H259145   4.045   0.741  12.320 -0.0905 -1.4592 -2.3346
12552TIP3   OH259146   5.101   2.423  12.684  0.0053  0.8510 -0.3714
12552TIP3    H159147   5.064   2.338  12.707 -0.6267  0.9904 -0.8499
12552TIP3    H259148   5.030   2.469  12.639  1.1235  0.6573 -2.4721
12553TIP3   OH259149   5.620   0.357  12.529  0.8046 -0.2546  0.0681
12553TIP3    H159150   5.551   0.296  12.555  0.6067 -0.9919 -1.9931
12553TIP3    H259151   5.624   0.349  12.434  3.4903  0.0525  0.0891
12554TIP3   OH259152   1.286   2.178   2.981  0.1205 -0.0866 -0.1625
12554TIP3    H159153   1.267   2.233   2.905  1.9467  0.3435 -0.3531
12554TIP3    H259154   1.342   2.109   2.946 -0.5950 -1.0042  0.4530
12555TIP3   OH259155   4.572   2.567  11.091 -0.3119  0.4932 -0.2778
12555TIP3    H159156   4.512   2.504  11.051 -0.9628  1.4078 -0.7781
12555TIP3    H259157   4.656   2.521  11.097 -1.4297 -1.4867  2.1006
12556TIP3   OH259158   2.347   4.267  16.343 -0.0914  0.2742  0.8042
12556TIP3    H159159   2.387   4.251  16.429 -1.2445  0.7855  1.4483
12556TIP3    H259160   2.254   4.248  16.356 -0.2177 -0.0131 -0.4394
12557TIP3   OH259161   0.034   4.694  12.030  0.9094 -0.6763  0.5463
12557TIP3    H159162   0.015   4.762  11.965  1.0862 -0.9778  0.1705
12557TIP3    H259163   0.125   4.668  12.012  0.7246 -1.2748  0.4310
12558TIP3   OH259164   4.506   2.841   2.344 -0.3246  0.2222  0.0078
12558TIP3    H159165   4.504   2.917   2.402  1.7786 -0.7339  1.4488
12558TIP3    H259166   4.530   2.768   2.401  1.7080 -0.8061 -2.0179
12559TIP3   OH259167   5.020   6.667   1.034 -0.1511  0.7131  0.4422
12559TIP3    H159168   5.110   6.637   1.023 -0.7292 -0.7447 -0.5965
12559TIP3    H259169   4.990   6.625   1.115 -0.2962  0.1773  0.1107
12560TIP3   OH259170   4.535   0.208   6.634 -0.6596 -0.6038  0.0502
12560TIP3    H159171   4.615   0.259   6.633  0.3316 -2.0911  0.1052
12560TIP3    H259172   4.467   0.268   6.604  0.7053  0.2971 -1.3513
12561TIP3   OH259173   6.608   2.338  15.851 -0.0800  0.2530 -0.3323
12561TIP3    H159174   6.571   2.375  15.770 -0.2052  0.1213 -0.3365
12561TIP3    H259175   6.606   2.411  15.914 -0.7302  0.1378 -0.2126
12562TIP3   OH259176   3.672   5.004  16.780 -0.0181  0.0243 -0.2200
12562TIP3    H159177   3.600   4.950  16.813  1.7467 -1.3914  1.5627
12562TIP3    H259178   3.642   5.094  16.792 -2.3371 -0.4801 -1.6312
12563TIP3   OH259179   1.470   0.034  11.253  0.0989  0.1016  0.0934
12563TIP3    H159180   1.506   0.011  11.167  0.8613  1.9748 -0.1325
12563TIP3    H259181   1.534  -0.001  11.315  0.8558  0.9034 -0.2136
12564TIP3   OH259182   5.118   0.857  12.180  0.1166 -0.0438  0.0980
12564TIP3    H159183   5.093   0.822  12.265  0.4931  0.4690  0.4264
12564TIP3    H259184   5.036   0.891  12.144 -0.2889 -1.4311 -0.3203
12565TIP3   OH259185   4.138   3.060   3.477  0.5573 -0.2352  0.3089
12565TIP3    H159186   4.109   3.067   3.386  0.0594 -0.7522  0.4220
12565TIP3    H259187   4.120   3.147   3.514  1.6334  0.2725 -0.3214
12566TIP3   OH259188   1.628   2.988  14.726 -0.2003  0.2137  0.3351
12566TIP3    H159189   1.608   2.909  14.775  1.2877 -0.9656 -0.8464
12566TIP3    H259190   1.657   3.051  14.792  2.8188 -1.6641  1.0059
12567TIP3   OH259191   1.767   4.882   4.152  0.6164 -0.7781  0.5723
12567TIP3    H159192   1.745   4.800   4.197 -0.8939 -0.8737 -0.2865
12567TIP3    H259193   1.740   4.868   4.061  1.3964  0.2786  0.1571
12568TIP3   OH259194   6.056   3.107   4.735  0.4627  0.2470 -0.0277
12568TIP3    H159195   6.106   3.029   4.758 -0.0705 -0.2000 -0.3628
12568TIP3    H259196   5.998   3.079   4.664  0.1520  0.9051 -0.0465
12569TIP3   OH259197   5.902   1.827  11.675 -0.6618 -0.3652  0.2081
12569TIP3    H159198   5.948   1.743  11.661 -1.7851 -0.7520 -1.4208
12569TIP3    H259199   5.814   1.801  11.701 -0.7770  0.3508  0.5416
12570TIP3   OH259200   4.204   1.240   2.780  0.2593  0.2297 -0.5143
12570TIP3    H159201   4.188   1.257   2.873 -3.0197  2.2314 -1.2432
12570TIP3    H259202   4.130   1.186   2.752  0.9335  0.0440 -2.0698
12571TIP3   OH259203   2.610   2.502   5.894 -1.0183 -0.3751  0.4026
12571TIP3    H159204   2.696   2.544   5.889 -1.1344 -0.1332  0.4711
12571TIP3    H259205   2.548   2.570   5.869 -1.0955 -0.8835 -0.8731
12572TIP3   OH259206   3.591   3.570   2.414 -0.0310 -0.0368  0.6316
12572TIP3    H159207   3.574   3.557   2.321  0.5982 -1.8321  0.7357
12572TIP3    H259208   3.683   3.596   2.419  0.6253 -2.2607  0.8772
12573TIP3   OH259209   6.685   1.572  15.347 -0.2940 -0.4250 -0.2342
12573TIP3    H159210   6.700   1.661  15.379  1.1734 -1.1900  1.4533
12573TIP3    H259211   6.704   1.516  15.423 -1.5689 -2.1690 -1.1194
12574TIP3   OH259212   6.394   5.141  11.910  0.4521  0.1250 -0.0046
12574TIP3    H159213   6.369   5.232  11.922  0.8728  0.1717  0.5293
12574TIP3    H259214   6.481   5.145  11.870 -0.0788 -0.0428 -1.2523
12575TIP3   OH259215   5.760   0.501   2.661 -0.3148  0.9438  1.0824
12575TIP3    H159216   5.723   0.538   2.741  0.1168  0.1600  1.6600
12575TIP3    H259217   5.854   0.514   2.669  0.0761 -1.8513  2.2051
12576TIP3   OH259218   6.090   4.354  16.784 -0.1456 -0.2472 -0.2936
12576TIP3    H159219   6.070   4.403  16.863  0.3351 -1.9863  0.9599
12576TIP3    H259220   6.048   4.404  16.713 -1.3619  0.8498  1.1490
12577TIP3   OH259221   5.172   4.434  12.870  0.2702 -0.4981 -0.3851
12577TIP3    H159222   5.200   4.353  12.913  1.2250 -1.7155 -3.0584
12577TIP3    H259223   5.086   4.414  12.833  0.4197 -0.2475 -0.8860
12578TIP3   OH259224   4.250   2.477  16.262  0.2864  0.3304 -0.1666
12578TIP3    H159225   4.294   2.528  16.331 -2.1214  1.3911  0.7173
12578TIP3    H259226   4.175   2.531  16.237 -0.9855 -1.7040 -0.9989
12579TIP3   OH259227   3.648   1.697   0.353  0.4968 -0.1482  0.3154
12579TIP3    H159228   3.707   1.758   0.309  1.4242 -0.5572  0.9673
12579TIP3    H259229   3.642   1.729   0.443  1.4047 -1.2827  0.8085
12580TIP3   OH259230   1.037   2.035  16.897 -0.2703  0.1228 -0.1089
12580TIP3    H159231   0.988   2.101  16.848 -1.3763  0.6465  1.5971
12580TIP3    H259232   0.988   1.954  16.883  0.1562 -0.0046 -0.8921
12581TIP3   OH259233   4.408   0.434   0.818  0.1084 -0.1138  0.0752
12581TIP3    H159234   4.432   0.527   0.819  0.8582 -0.2962  0.0766
12581TIP3    H259235   4.492   0.389   0.809 -0.3191 -0.7666 -0.8119
12582TIP3   OH259236   4.693   0.629  14.150 -0.4073  0.3965  0.3134
12582TIP3    H159237   4.742   0.680  14.086 -0.3791 -0.8865 -0.7196
12582TIP3    H259238   4.602   0.637  14.123 -0.4875  0.5453  0.6196
12583TIP3   OH259239   2.908   1.927  15.851  0.3405  0.0811  0.2184
12583TIP3    H159240   2.897   1.990  15.922 -1.7039  2.7914 -2.2237
12583TIP3    H259241   3.001   1.931  15.829  0.2864  2.2842  0.1890
12584TIP3   OH259242   6.627   3.868  12.943 -0.3183 -0.5078 -0.0121
12584TIP3    H159243   6.720   3.886  12.961 -0.6928 -1.1150  3.1292
12584TIP3    H259244   6.603   3.801  13.007 -2.8744 -0.6022 -0.9556
12585TIP3   OH259245   2.335   5.636   0.023 -0.3656  0.2849  0.3342
12585TIP3    H159246   2.292   5.707   0.070 -0.5701  0.1568  0.3380
12585TIP3    H259247   2.335   5.562   0.084 -2.1532 -0.4139 -0.4617
12586TIP3   OH259248   3.126   1.279   2.184  0.1164 -0.2730 -0.1443
12586TIP3    H159249   3.101   1.359   2.137  2.3180  0.4502 -0.2001
12586TIP3    H259250   3.075   1.210   2.142 -0.1175  0.7763 -1.6749
12587TIP3   OH259251   3.221   5.528   4.807 -0.1748 -0.1560 -0.5512
12587TIP3    H159252   3.259   5.477   4.878 -0.3144  0.9247  0.3133
12587TIP3    H259253   3.143   5.569   4.844 -1.4492 -1.2067 -1.9087
12588TIP3   OH259254   2.295   2.410   6.175 -1.1285 -0.5556  0.2163
12588TIP3    H159255   2.279   2.316   6.172 -1.5403 -0.5763  2.0599
12588TIP3    H259256   2.266   2.437   6.262 -0.9861  1.2818 -0.2575
12589TIP3   OH259257   0.567   1.746   5.778  0.1238  0.7939 -0.3712
12589TIP3    H159258   0.547   1.705   5.862 -1.1652 -1.6769 -1.7488
12589TIP3    H259259   0.508   1.821   5.773  0.1347  0.9001  0.8727
12590TIP3   OH259260   0.441   5.159  13.469 -0.2611 -0.3736 -0.2077
12590TIP3    H159261   0.483   5.077  13.443  1.9768  0.7701 -0.4307
12590TIP3    H259262   0.376   5.174  13.401  0.4073 -1.1654 -1.0608
12591TIP3   OH259263   2.884   6.378   5.807 -0.0848  0.2161  0.3416
12591TIP3    H159264   2.858   6.403   5.896 -0.4255 -0.5219  0.4531
12591TIP3    H259265   2.980   6.380   5.809 -0.0825 -0.2883  0.8672
12592TIP3   OH259266   5.745   5.476   1.344  0.2550  0.5928 -0.2579
12592TIP3    H159267   5.697   5.495   1.264 -0.0851 -2.2913 -0.8439
12592TIP3    H259268   5.756   5.381   1.343  2.1298  0.7035  2.0644
12593TIP3   OH259269   2.899   6.252   0.396 -0.0349 -0.0743 -0.0234
12593TIP3    H159270   2.988   6.217   0.389  0.3554  0.3862  1.9374
12593TIP3    H259271   2.909   6.330   0.450 -1.4902  0.6184 -0.7253
12594TIP3   OH259272   0.403   2.038  13.055  0.0772 -0.2943  0.4600
12594TIP3    H159273   0.376   2.088  12.977 -0.9267 -1.3771  0.0872
12594TIP3    H259274   0.433   1.954  13.020  4.5558  0.9300  0.7742
12595TIP3   OH259275   6.779   1.263   2.518  1.2059 -0.8583  0.2964
12595TIP3    H159276   6.799   1.254   2.425 -1.3997 -0.5529 -0.3895
12595TIP3    H259277   6.773   1.173   2.551  2.3592 -0.9628  0.2584
12596TIP3   OH259278   5.730   3.447   1.018 -0.3525 -0.1924 -0.2095
12596TIP3    H159279   5.637   3.435   0.998 -0.0286  0.8596 -2.7944
12596TIP3    H259280   5.755   3.526   0.970  1.8659 -0.3645  0.5329
12597TIP3   OH259281   1.796   2.210   6.720  0.3442  0.3468  0.1868
12597TIP3    H159282   1.767   2.300   6.703  0.6635  0.4863  0.3902
12597TIP3    H259283   1.891   2.214   6.715  0.4161  0.2463  1.3003
12598TIP3   OH259284   1.801   3.218  12.473 -0.0678  0.0932 -0.3101
12598TIP3    H159285   1.741   3.260  12.412 -1.3649 -0.6932  0.3628
12598TIP3    H259286   1.776   3.253  12.559 -0.7301 -1.4678  0.1801
12599TIP3   OH259287   6.441   3.188   3.668 -0.0491  0.4663  0.0560
12599TIP3    H159288   6.389   3.109   3.656  1.2778 -0.3417 -0.5429
12599TIP3    H259289   6.504   3.165   3.736  1.4323  0.4156 -1.2777
12600TIP3   OH259290   3.245   0.452   1.974 -0.1363 -0.2407  0.1494
12600TIP3    H159291   3.184   0.524   1.987 -0.6129 -0.9193  1.9836
12600TIP3    H259292   3.201   0.394   1.912 -0.2821  0.4501 -0.3951
12601TIP3   OH259293   3.277   5.625   3.951  0.4781  0.4785 -0.3032
12601TIP3    H159294   3.356   5.666   3.986 -0.2592  0.7261  1.1738
12601TIP3    H259295   3.233   5.589   4.028 -1.7246  1.8814 -0.8348
12602TIP3   OH259296   4.719   6.491   4.973 -0.4718  0.7104 -0.1366
12602TIP3    H159297   4.648   6.519   4.915  0.4440  0.7761 -1.2721
12602TIP3    H259298   4.688   6.410   5.012 -0.7976  0.2145 -1.3680
12603TIP3   OH259299   1.314   0.728   4.232 -0.2511 -0.8345  0.5369
12603TIP3    H159300   1.277   0.802   4.280 -0.0942  0.1834 -0.8548
12603TIP3    H259301   1.400   0.714   4.272  0.8279  1.4364 -0.7896
12604TIP3   OH259302   5.973   1.368   5.026  0.2267 -0.0094 -0.0785
12604TIP3    H159303   5.905   1.403   4.969  0.2696  0.8324  0.3642
12604TIP3    H259304   5.996   1.442   5.083 -0.2185 -0.9843  1.4020
12605TIP3   OH259305   1.848   6.617   1.215 -0.7743 -0.1802  0.7331
12605TIP3    H159306   1.815   6.559   1.146  0.0111  1.7424 -1.3775
12605TIP3    H259307   1.942   6.621   1.202 -0.6280  0.4335  1.7746
12606TIP3   OH259308   6.396   3.258  11.644  0.5592  0.2243 -0.1092
12606TIP3    H159309   6.384   3.222  11.732 -1.3506  0.7266 -0.1390
12606TIP3    H259310   6.486   3.234  11.621  0.3103 -2.0662  1.0016
12607TIP3   OH259311   3.487   4.935  16.039 -0.2165 -0.2241 -0.0064
12607TIP3    H159312   3.508   5.012  15.987 -1.6749  0.3281  0.1524
12607TIP3    H259313   3.490   4.966  16.130  0.9581 -0.8243  0.1711
12608TIP3   OH259314   6.290   2.728   4.636  0.3642 -0.1257  0.3208
12608TIP3    H159315   6.337   2.672   4.698  0.3364 -1.0088 -0.4237
12608TIP3    H259316   6.315   2.817   4.660  1.7928 -0.5280  0.4570
12609TIP3   OH259317   1.149   5.324   3.688 -0.0843 -0.1853  0.3434
12609TIP3    H159318   1.230   5.277   3.710 -0.4189 -0.7259  0.4270
12609TIP3    H259319   1.163   5.355   3.599  0.6768  0.7264  0.7554
12610TIP3   OH259320   5.051   5.135   0.914  0.1375 -0.0846 -0.2073
12610TIP3    H159321   5.083   5.140   0.824  0.1260  0.3931 -0.1883
12610TIP3    H259322   5.093   5.209   0.959 -1.5855  1.0702 -0.3812
12611TIP3   OH259323   5.712   2.784   0.217  0.6527  0.0038  0.4263
12611TIP3    H159324   5.647   2.716   0.233  0.2783  0.4338  0.7473
12611TIP3    H259325   5.681   2.828   0.137 -0.0291  0.8776  1.1491
12612TIP3   OH259326   0.949   1.610  12.923 -0.3453 -0.0787  0.0159
12612TIP3    H159327   0.938   1.518  12.899 -1.9540  0.0205  0.2511
12612TIP3    H259328   0.930   1.658  12.843  1.1917  0.0506 -0.2938
12613TIP3   OH259329   3.994   4.603   0.851 -0.1553  0.2178  0.1595
12613TIP3    H159330   4.053   4.612   0.926  0.2155  1.7597 -0.2789
12613TIP3    H259331   3.918   4.557   0.886  0.0553  0.8079  1.4719
12614TIP3   OH259332   4.746   3.866  12.305  0.1000  0.0128  0.1801
12614TIP3    H159333   4.773   3.946  12.259 -1.1872  1.8484  2.3967
12614TIP3    H259334   4.650   3.870  12.305  0.0483 -0.2850  2.3227
12615TIP3   OH259335   6.287   4.622   4.190 -0.3364  0.1623  0.4306
12615TIP3    H159336   6.365   4.633   4.244  1.2448  1.0943 -1.8803
12615TIP3    H259337   6.225   4.687   4.223  0.0431 -0.2158  1.9466
12616TIP3   OH259338   0.475   5.726  11.313 -0.3185 -0.1082 -0.5779
12616TIP3    H159339   0.518   5.811  11.309  0.5838 -0.3283  2.1525
12616TIP3    H259340   0.382   5.746  11.301 -0.5817  1.8746  3.2309
12617TIP3   OH259341   2.699   6.619   1.636 -0.1689  0.3604 -0.7110
12617TIP3    H159342   2.659   6.694   1.590  1.2660  1.5799 -0.0592
12617TIP3    H259343   2.721   6.557   1.567 -0.8639  0.7765 -1.3305
12618TIP3   OH259344   6.343   6.616   1.271  0.5838 -0.2353 -0.0402
12618TIP3    H159345   6.285   6.564   1.215  0.9340  0.7154 -1.3422
12618TIP3    H259346   6.288   6.689   1.300  0.8369  0.1210 -0.4482
12619TIP3   OH259347   3.403   0.630   1.406  0.2111  0.7484  0.0560
12619TIP3    H159348   3.436   0.577   1.478  2.4336  0.1108 -1.3161
12619TIP3    H259349   3.310   0.608   1.400  0.8062 -2.2292  0.2586
12620TIP3   OH259350   4.053   5.735  12.030  0.3731 -0.4363  0.1002
12620TIP3    H159351   4.125   5.683  11.993  2.0646  0.8360  1.3948
12620TIP3    H259352   4.002   5.673  12.082  0.2746 -1.4475 -1.1513
12621TIP3   OH259353   3.271   1.141  13.812 -0.4669 -0.3443  0.2126
12621TIP3    H159354   3.350   1.148  13.865 -0.3442 -0.7509  0.0911
12621TIP3    H259355   3.304   1.121  13.724 -0.6736  0.1883  0.0096
12622TIP3   OH259356   5.868   4.479  16.324 -0.2678 -0.4192 -0.0086
12622TIP3    H159357   5.834   4.437  16.245 -1.6438  0.3111  0.1674
12622TIP3    H259358   5.857   4.412  16.392  1.2985 -1.1983 -0.4784
12623TIP3   OH259359   3.025   4.739   3.543  0.2913 -0.1686  0.1010
12623TIP3    H159360   2.956   4.805   3.549 -0.5289 -0.9192 -0.7599
12623TIP3    H259361   3.058   4.731   3.632 -1.2313 -0.2924  0.6921
12624TIP3   OH259362   1.407   5.380  15.814  0.1852 -0.2628  0.6625
12624TIP3    H159363   1.470   5.328  15.863 -0.8537 -0.6602  1.6177
12624TIP3    H259364   1.365   5.436  15.880 -1.3901 -0.9543  0.2933
12625TIP3   OH259365   0.422   2.892  17.451 -0.4727 -0.1998  0.5237
12625TIP3    H159366   0.469   2.812  17.477  0.1880 -0.7820 -2.1514
12625TIP3    H259367   0.330   2.874  17.472 -0.6316 -2.5250 -1.6764
12626TIP3   OH259368   4.181   2.696   5.898  0.7735 -0.3694 -0.7899
12626TIP3    H159369   4.195   2.742   5.980  1.7437  0.2631 -1.2934
12626TIP3    H259370   4.087   2.678   5.897  0.7089 -0.1785  0.3387
12627TIP3   OH259371   5.159   1.991   4.107 -0.2085  0.0241  0.0493
12627TIP3    H159372   5.229   1.940   4.067  0.1562  0.6062 -0.0669
12627TIP3    H259373   5.199   2.029   4.186 -0.5115  0.0232  0.2055
12628TIP3   OH259374   1.418   5.217  12.778 -0.3240 -0.2073  0.6466
12628TIP3    H159375   1.335   5.200  12.734 -1.2348  2.2220  1.2569
12628TIP3    H259376   1.484   5.206  12.709 -1.1989 -1.4610 -0.0275
12629TIP3   OH259377   0.360   4.356   2.263 -0.2930  0.2479 -0.2604
12629TIP3    H159378   0.431   4.327   2.204 -0.4873 -1.2519  0.2063
12629TIP3    H259379   0.403   4.416   2.324  0.3651  0.1596 -0.6250
12630TIP3   OH259380   3.972   4.431  13.570  0.6644 -0.4323 -0.0198
12630TIP3    H159381   3.973   4.351  13.516  0.4757 -1.8053  1.8925
12630TIP3    H259382   3.922   4.494  13.519  1.9716 -1.0590 -2.2075
12631TIP3   OH259383   5.289   5.233   3.016 -0.1983  0.4106  0.4479
12631TIP3    H159384   5.354   5.201   3.078 -0.7198 -1.1756  0.2243
12631TIP3    H259385   5.270   5.158   2.960 -1.0387  1.3000 -0.5117
12632TIP3   OH259386   3.400   5.106   1.456  0.2728 -0.3429 -0.6097
12632TIP3    H159387   3.428   5.055   1.531  1.6185 -0.7068 -1.3318
12632TIP3    H259388   3.304   5.108   1.463  0.3001 -1.4709  0.3840
12633TIP3   OH259389   1.331   3.102   6.573 -0.0830  0.4416 -0.2500
12633TIP3    H159390   1.394   3.058   6.630  0.7865  1.7270 -0.1829
12633TIP3    H259391   1.257   3.122   6.630 -0.7796 -1.4263 -0.4165
12634TIP3   OH259392   0.681   2.372   4.739 -0.7121 -0.0800  0.5456
12634TIP3    H159393   0.722   2.447   4.696 -1.9591  0.8982  1.0123
12634TIP3    H259394   0.684   2.394   4.832 -0.1277 -1.1211  0.7847
12635TIP3   OH259395   5.472   3.782  13.973  0.1655 -0.0685  0.2540
12635TIP3    H159396   5.566   3.777  13.990  0.2417 -0.8242 -0.3324
12635TIP3    H259397   5.433   3.722  14.037  0.0542  0.4344  0.6633
12636TIP3   OH259398   6.641   5.749  16.298  0.2339  0.0940  0.0532
12636TIP3    H159399   6.718   5.722  16.349  0.3542 -0.0200 -0.1845
12636TIP3    H259400   6.655   5.710  16.211 -0.6002 -0.7976  0.3036
12637TIP3   OH259401   6.204   3.909   6.539  0.1904 -0.8635 -0.4788
12637TIP3    H159402   6.155   3.829   6.519 -0.6866 -0.1654 -1.1470
12637TIP3    H259403   6.246   3.933   6.457 -0.7218  0.1479 -0.6803
12638TIP3   OH259404   4.258   5.162  14.577 -0.0672 -0.1153  0.6572
12638TIP3    H159405   4.242   5.226  14.646 -0.0781 -0.9734  1.4625
12638TIP3    H259406   4.179   5.108  14.576  0.2418 -0.5621  0.4612
12639TIP3   OH259407   1.665   0.312  12.947 -0.6166 -0.3033  0.2835
12639TIP3    H159408   1.598   0.380  12.946  0.1670  0.6129 -3.0461
12639TIP3    H259409   1.748   0.359  12.956 -0.2080 -1.1959  1.5735
12640TIP3   OH259410   2.955   0.495   4.232  0.0449  0.4598 -0.1427
12640TIP3    H159411   2.871   0.535   4.210 -0.6677  0.3846  2.2105
12640TIP3    H259412   3.010   0.569   4.259 -0.2374  0.2366  1.1071
12641TIP3   OH259413   4.645   2.130  14.345 -0.1665  0.0381 -0.1979
12641TIP3    H159414   4.576   2.117  14.410 -0.9445  0.5009 -0.9062
12641TIP3    H259415   4.637   2.056  14.286  0.2454 -0.1473 -0.0225
12642TIP3   OH259416   2.642   5.325  16.649  0.1159  0.0282  0.0060
12642TIP3    H159417   2.593   5.280  16.581 -0.2956  0.1798  0.1963
12642TIP3    H259418   2.716   5.364  16.604 -0.3253  0.3924 -0.4130
12643TIP3   OH259419   3.363   3.855  15.478  0.9663  0.2023 -0.4824
12643TIP3    H159420   3.407   3.800  15.543  0.7941 -1.5773 -1.7881
12643TIP3    H259421   3.270   3.843  15.495  0.8902 -1.1094 -1.6516
12644TIP3   OH259422   1.836   1.099   4.618 -0.9254  0.5891 -0.0517
12644TIP3    H159423   1.859   1.113   4.709  2.8482  1.8534 -1.0186
12644TIP3    H259424   1.742   1.117   4.614 -0.7346  3.3015  3.0822
12645TIP3   OH259425   2.667   4.728   1.619  0.1787 -0.6221 -0.0505
12645TIP3    H159426   2.639   4.771   1.538  0.3118 -1.0496 -0.3307
12645TIP3    H259427   2.596   4.744   1.681 -0.3768 -1.1195 -0.5491
12646TIP3   OH259428   0.723   1.927   3.855 -0.4272  0.4555 -0.3265
12646TIP3    H159429   0.680   1.856   3.807 -0.0910  0.2716 -0.3593
12646TIP3    H259430   0.781   1.883   3.917 -1.4043  0.6813  0.7758
12647TIP3   OH259431   5.165   2.549   1.873 -0.4608 -0.2057 -0.1787
12647TIP3    H159432   5.183   2.642   1.857  0.3185 -0.1564  0.8998
12647TIP3    H259433   5.081   2.548   1.918 -1.0766 -0.1290 -1.2822
12648TIP3   OH259434   4.421   4.733  15.331  0.2245 -0.0546  0.2521
12648TIP3    H159435   4.421   4.791  15.407  1.5770 -0.2892  0.4467
12648TIP3    H259436   4.473   4.658  15.358 -1.9706 -1.7120  0.2281
12649TIP3   OH259437   2.360   3.349  14.504  0.1387 -0.5109 -0.0376
12649TIP3    H159438   2.348   3.398  14.586 -1.6894 -2.5357  1.0040
12649TIP3    H259439   2.301   3.274  14.513  0.0489 -0.9112 -3.1457
12650TIP3   OH259440   5.252   5.320   1.961  0.3889  0.3476  0.5891
12650TIP3    H159441   5.262   5.229   1.933 -1.0792  0.3218  0.0931
12650TIP3    H259442   5.159   5.339   1.950  0.3484  1.3885  2.3263
12651TIP3   OH259443   5.103   6.222  11.797  0.3611 -0.4668  0.5996
12651TIP3    H159444   5.133   6.180  11.717 -0.4861 -2.2080  1.1264
12651TIP3    H259445   5.014   6.252  11.777 -0.1005 -1.4760  1.0223
12652TIP3   OH259446   3.433   5.219  13.132 -0.4793  0.0259 -0.1772
12652TIP3    H159447   3.401   5.153  13.193 -0.8172 -0.1443 -0.5346
12652TIP3    H259448   3.496   5.172  13.077 -1.2036 -0.1665 -0.8561
12653TIP3   OH259449   3.162   0.842  13.877  0.4316  0.8546  0.3640
12653TIP3    H159450   3.095   0.798  13.929  0.3726  0.9157  0.3388
12653TIP3    H259451   3.228   0.775  13.862 -0.1746  0.4555 -0.6137
12654TIP3   OH259452   1.319   6.264   1.959  0.3994 -0.3440  0.1346
12654TIP3    H159453   1.228   6.237   1.949  0.4148 -1.6568  2.6168
12654TIP3    H259454   1.370   6.191   1.926  0.5573  0.1885 -0.8122
12655TIP3   OH259455   3.831   3.122   3.308 -0.0182  0.0845  0.3069
12655TIP3    H159456   3.812   3.157   3.395  1.7505  1.3295  0.2612
12655TIP3    H259457   3.918   3.156   3.287 -0.3903 -0.1811 -1.9583
12656TIP3   OH259458   0.782   5.386  14.332 -0.0447 -0.0322  0.0089
12656TIP3    H159459   0.735   5.307  14.360 -1.0955  0.1709 -1.0704
12656TIP3    H259460   0.713   5.447  14.307  0.7453  1.3778  1.1421
12657TIP3   OH259461   3.747   2.848  14.687  0.0813  0.4212  0.0402
12657TIP3    H159462   3.775   2.933  14.721 -2.0908  1.6953 -1.0825
12657TIP3    H259463   3.737   2.862  14.593 -0.6402 -0.9622 -0.1169
12658TIP3   OH259464   0.685   0.659  15.022  0.3839 -0.4256  0.5714
12658TIP3    H159465   0.636   0.581  14.995  1.1011 -0.6753 -0.0538
12658TIP3    H259466   0.653   0.728  14.965  0.9607 -0.6586 -0.0522
12659TIP3   OH259467   3.829   2.466   4.695  0.2056  0.4066  0.1552
12659TIP3    H159468   3.900   2.514   4.651 -0.8202  2.6793  0.8300
12659TIP3    H259469   3.749   2.496   4.651 -0.4086 -2.2492 -0.7207
12660TIP3   OH259470   1.786   4.377   0.130  0.1704 -0.0043 -0.2984
12660TIP3    H159471   1.838   4.308   0.089  0.1049  0.7312 -1.6744
12660TIP3    H259472   1.750   4.337   0.209 -0.8211 -1.9025 -1.6412
12661TIP3   OH259473   1.449   5.826   0.659 -0.0002 -0.4633  0.1675
12661TIP3    H159474   1.364   5.867   0.677  1.0274  1.5209  0.9055
12661TIP3    H259475   1.481   5.871   0.581 -0.2939 -2.3725 -1.1220
12662TIP3   OH259476   5.528   4.821  14.476  0.6410 -0.1233  0.2389
12662TIP3    H159477   5.433   4.838  14.473  0.8655  1.1953 -2.1070
12662TIP3    H259478   5.555   4.855  14.561 -0.9452 -0.3014  0.8532
12663TIP3   OH259479   4.218   0.941   2.360 -0.5347  0.1469  0.5080
12663TIP3    H159480   4.212   0.891   2.441  1.4404  1.2680  1.4215
12663TIP3    H259481   4.274   0.888   2.303 -1.0081 -0.1090  0.2667
12664TIP3   OH259482   3.734   3.890   6.672  0.5931  0.1460 -0.6013
12664TIP3    H159483   3.753   3.974   6.714  1.3931 -0.9112  1.2881
12664TIP3    H259484   3.813   3.870   6.622  1.3245 -0.4854  0.7528
12665TIP3   OH259485   6.640   4.208  13.249 -0.3197  0.0450 -0.7888
12665TIP3    H159486   6.714   4.149  13.238 -0.9411 -0.8647 -0.1668
12665TIP3    H259487   6.582   4.164  13.311 -1.9143  0.2008 -2.0901
12666TIP3   OH259488   1.268   2.176   5.959  0.5065  0.1836 -0.0418
12666TIP3    H159489   1.174   2.159   5.966  0.3703  0.7619 -0.4418
12666TIP3    H259490   1.301   2.104   5.905  0.7576 -1.5478  2.2368
12667TIP3   OH259491   4.234   4.326   0.003  0.1295  0.4226  0.1927
12667TIP3    H159492   4.255   4.233   0.012  0.2599  0.4808  0.5139
12667TIP3    H259493   4.195   4.334  -0.084 -0.4198 -0.0344  0.3865
12668TIP3   OH259494   2.851   1.844  15.144  0.1145  0.0951 -0.0163
12668TIP3    H159495   2.901   1.763  15.145  2.2833  1.3495  0.6077
12668TIP3    H259496   2.824   1.855  15.053  0.8742 -0.7185 -0.3530
12669TIP3   OH259497   2.928   4.289  17.110  0.0183 -0.9816  0.0768
12669TIP3    H159498   2.952   4.249  17.194  0.4945  0.8428  0.8607
12669TIP3    H259499   2.895   4.375  17.133 -0.7025 -0.7838 -1.5696
12670TIP3   OH259500   3.089   4.185  15.460 -1.0127 -0.2219  0.2470
12670TIP3    H159501   3.180   4.189  15.489 -1.5316  1.7662  1.9047
12670TIP3    H259502   3.048   4.123  15.520 -1.3324  1.2102  1.5885
12671TIP3   OH259503   2.169   0.851  11.347  0.2511  0.3967 -0.4734
12671TIP3    H159504   2.132   0.938  11.359  0.1557  0.2511  0.3715
12671TIP3    H259505   2.199   0.826  11.434 -1.0890 -1.0439 -0.3947
12672TIP3   OH259506   1.425   3.449  15.500 -0.2485 -0.4094  0.1827
12672TIP3    H159507   1.376   3.521  15.462 -2.7556 -1.3365  1.3868
12672TIP3    H259508   1.408   3.456  15.594  2.5517 -0.4222  0.7534
12673TIP3   OH259509   6.358   0.173   1.397 -0.4411 -0.2823 -0.1530
12673TIP3    H159510   6.316   0.226   1.330 -1.7592 -1.3059 -0.1698
12673TIP3    H259511   6.305   0.094   1.402  0.9860 -1.2403  0.4679
12674TIP3   OH259512   2.120   2.970  15.194  0.3684 -0.1378 -0.6494
12674TIP3    H159513   2.129   3.058  15.157  0.6032  0.3553  0.5421
12674TIP3    H259514   2.044   2.933  15.149 -0.4300  1.0963 -0.3626
12675TIP3   OH259515   0.484   3.357   4.910 -0.4923  0.1077  0.1248
12675TIP3    H159516   0.557   3.419   4.909  1.0634 -1.6066 -1.4670
12675TIP3    H259517   0.525   3.271   4.913 -2.4469 -0.9284 -0.6891
12676TIP3   OH259518   4.635   2.604  15.880 -0.1251  0.1630  0.7450
12676TIP3    H159519   4.572   2.569  15.942 -0.9763 -0.0718 -0.2383
12676TIP3    H259520   4.609   2.695  15.868 -1.6259 -0.4789 -1.2762
12677TIP3   OH259521   5.319   2.932  13.911 -0.2400  0.1110 -0.3288
12677TIP3    H159522   5.330   2.982  13.830  1.1143 -0.2333 -0.3684
12677TIP3    H259523   5.353   2.989  13.980  1.5064 -0.7952 -0.4000
12678TIP3   OH259524   6.484   3.678   1.417  0.2800  0.0837 -0.0475
12678TIP3    H159525   6.431   3.685   1.497  0.9406  0.3767  0.3710
12678TIP3    H259526   6.425   3.703   1.346 -0.6130 -1.1522  0.2254
12679TIP3   OH259527   1.956   1.849  16.379  0.3066  0.3746  0.3100
12679TIP3    H159528   1.895   1.922  16.368 -0.0436  0.2465  1.3040
12679TIP3    H259529   1.911   1.789  16.437  1.0401 -0.1271  0.3663
12680TIP3   OH259530   4.827   4.056  12.135 -0.4149  0.2115  0.2131
12680TIP3    H159531   4.862   4.121  12.197 -0.4803 -0.7650  1.3048
12680TIP3    H259532   4.839   4.096  12.049  2.3607  0.4292  0.5995
12681TIP3   OH259533   6.538   6.654   5.031 -0.1708 -0.3207  0.1452
12681TIP3    H159534   6.590   6.574   5.025 -1.1451 -0.9016 -1.1031
12681TIP3    H259535   6.588   6.720   4.982 -0.9944 -1.1330 -1.9160
12682TIP3   OH259536   1.595   5.473  13.749 -0.2315  0.0580  0.4083
12682TIP3    H159537   1.644   5.396  13.780  0.4854 -0.4748 -1.8470
12682TIP3    H259538   1.663   5.532  13.715 -0.8984  1.0298  0.7295
12683TIP3   OH259539   0.007   0.553  15.246  0.0754  0.3810 -0.4971
12683TIP3    H159540   0.042   0.629  15.293  0.9026  0.4772 -1.2477
12683TIP3    H259541   0.067   0.482  15.268 -0.5828 -0.0264  0.0393
12684TIP3   OH259542   3.431   6.219   0.141  0.3547 -1.0005 -0.0667
12684TIP3    H159543   3.388   6.286   0.088 -0.7417 -0.9798  0.8054
12684TIP3    H259544   3.474   6.161   0.078 -0.4278 -0.6510 -0.9318
12685TIP3   OH259545   0.141   2.144   5.249 -0.3045  0.3431 -0.0790
12685TIP3    H159546   0.199   2.148   5.173 -2.4272 -1.1496 -1.9086
12685TIP3    H259547   0.079   2.074   5.228 -1.8410  0.8358  2.4345
12686TIP3   OH259548   3.374   1.930  14.075  0.3062 -0.7657  0.7999
12686TIP3    H159549   3.416   1.896  13.996 -0.5453 -0.1572  0.0622
12686TIP3    H259550   3.447   1.955  14.132  0.9996  1.2106 -0.8568
12687TIP3   OH259551   1.401   1.583   4.144 -0.1564  0.0514 -0.1455
12687TIP3    H159552   1.399   1.554   4.053 -3.0159 -1.0210  0.1550
12687TIP3    H259553   1.451   1.516   4.190  0.0111 -0.2096 -0.7046
12688TIP3   OH259554   4.145   6.511   3.720  0.3963  0.2602  0.1043
12688TIP3    H159555   4.122   6.419   3.712  1.7445 -0.1828  0.8618
12688TIP3    H259556   4.231   6.510   3.762  1.1829  1.8099 -1.3503
12689TIP3   OH259557   5.980   2.855   0.628 -0.0527  0.2483  0.2494
12689TIP3    H159558   5.928   2.850   0.548  0.4814 -0.3250 -0.0679
12689TIP3    H259559   5.996   2.949   0.640 -2.4636  0.5870  1.2173
12690TIP3   OH259560   6.587   3.248  14.336 -0.0454 -0.7592 -0.1564
12690TIP3    H159561   6.523   3.243  14.265  0.1837 -0.4363 -0.3919
12690TIP3    H259562   6.670   3.263  14.291 -0.2350  2.0236  0.2899
12691TIP3   OH259563   5.572   1.767   2.412  0.1764 -0.2023  0.0172
12691TIP3    H159564   5.541   1.736   2.497 -0.4722 -0.7035 -0.3922
12691TIP3    H259565   5.511   1.729   2.349  0.7429  0.0336 -0.6874
12692TIP3   OH259566   5.247   2.363  16.005 -0.6322  0.0112  0.1353
12692TIP3    H159567   5.335   2.399  16.015  0.1474 -0.9089 -2.4523
12692TIP3    H259568   5.195   2.406  16.073  1.1453  2.7912 -0.1010
12693TIP3   OH259569   2.555   2.880   0.114  1.0709  0.3571  0.5637
12693TIP3    H159570   2.465   2.875   0.146  0.3414 -1.6586 -1.4898
12693TIP3    H259571   2.605   2.915   0.187 -1.4963  2.4519  1.4691
12694TIP3   OH259572   1.650   0.930  12.997  0.0307 -0.1752  0.0145
12694TIP3    H159573   1.556   0.934  13.014  0.0279 -0.8568  0.1731
12694TIP3    H259574   1.661   0.981  12.916 -0.4807 -0.1270 -0.0306
12695TIP3   OH259575   3.032   5.640   3.015  0.2077 -0.0497 -0.8457
12695TIP3    H159576   2.962   5.653   3.080  0.3082  0.1370 -0.7753
12695TIP3    H259577   3.089   5.574   3.054  1.5253  1.6941  0.2827
12696TIP3   OH259578   1.769   6.322   3.315 -0.1772 -0.5170 -0.1704
12696TIP3    H159579   1.695   6.312   3.374 -1.0382  1.6577 -0.7920
12696TIP3    H259580   1.731   6.318   3.227  0.4163  0.5837 -0.4952
12697TIP3   OH259581   5.313   1.376   0.183  0.1628  0.1343 -0.4823
12697TIP3    H159582   5.399   1.417   0.190  0.1427  0.2838 -1.0083
12697TIP3    H259583   5.256   1.446   0.151 -0.3936  0.3266  0.8702
12698TIP3   OH259584   0.813   0.393   0.266 -0.0325  0.7723 -0.0734
12698TIP3    H159585   0.770   0.420   0.347  1.6301 -0.6649  1.3572
12698TIP3    H259586   0.790   0.300   0.256  3.0133 -0.2076  1.0437
12699TIP3   OH259587   2.351   5.457  15.098 -0.3002 -0.4294 -0.1707
12699TIP3    H159588   2.375   5.504  15.178 -1.2488 -1.3904  0.7129
12699TIP3    H259589   2.288   5.514  15.055 -1.2341 -0.7300  0.7494
12700TIP3   OH259590   4.762   5.034  17.496 -0.1042  0.1863  0.5089
12700TIP3    H159591   4.747   4.980  17.573 -1.4164  0.3399  0.3838
12700TIP3    H259592   4.839   4.996  17.454  1.2856  0.7494  2.4475
12701TIP3   OH259593   3.985   3.034  12.736  0.0531 -0.3607 -0.0698
12701TIP3    H159594   3.980   2.975  12.661  0.4589 -2.3285  1.3579
12701TIP3    H259595   4.018   2.979  12.807 -0.1733  1.4584  1.5215
12702TIP3   OH259596   6.766   2.955   0.367 -0.2696 -0.0759  0.4295
12702TIP3    H159597   6.747   3.026   0.306  2.0148 -1.7786 -2.5188
12702TIP3    H259598   6.858   2.966   0.389 -0.0229 -1.7757  0.3675
12703TIP3   OH259599   4.411   4.694   3.984 -0.4343 -0.5411  0.1016
12703TIP3    H159600   4.446   4.767   4.035  1.2386 -0.2165 -1.3998
12703TIP3    H259601   4.329   4.726   3.948  0.0584  0.4597 -0.1633
12704TIP3   OH259602   3.373   2.720   4.746  0.1428  0.5106  0.2701
12704TIP3    H159603   3.378   2.811   4.717  0.6430  0.7332  0.9987
12704TIP3    H259604   3.321   2.724   4.826 -0.4587  0.0422 -0.0933
12705TIP3   OH259605   6.391   2.824   4.297 -0.3593  0.0499 -0.2906
12705TIP3    H159606   6.360   2.910   4.324  1.5961  0.8483 -0.4879
12705TIP3    H259607   6.373   2.768   4.373  0.2211  1.0970  0.6517
12706TIP3   OH259608   4.804   2.744  11.995 -0.5094  0.1079  0.1489
12706TIP3    H159609   4.825   2.768  12.086  1.8815 -1.3830  0.0742
12706TIP3    H259610   4.719   2.700  12.001 -0.6878  0.5806  1.5499
12707TIP3   OH259611   2.884   0.014  16.992 -0.0469 -0.3627 -0.1793
12707TIP3    H159612   2.898  -0.051  17.060  1.1294  0.0581  0.0083
12707TIP3    H259613   2.827   0.080  17.033 -2.1392 -1.7305 -0.7016
12708TIP3   OH259614   3.562   2.616   1.610 -0.3916 -0.1314  0.1417
12708TIP3    H159615   3.570   2.712   1.607  0.1709 -0.1928 -0.2497
12708TIP3    H259616   3.636   2.588   1.663 -0.5845 -0.3534  0.2954
12709TIP3   OH259617   5.634   0.281   0.729 -0.1610 -0.0770 -0.4382
12709TIP3    H159618   5.602   0.348   0.669  1.1359  2.0488  1.1057
12709TIP3    H259619   5.718   0.253   0.692  0.5109  1.0409  0.1906
12710TIP3   OH259620   6.765   1.384  16.876 -0.2302 -0.0659  0.6586
12710TIP3    H159621   6.698   1.383  16.944 -0.2600 -0.8577  0.6221
12710TIP3    H259622   6.845   1.355  16.920 -0.3012 -0.8045  0.3070
12711TIP3   OH259623   3.126   3.251   5.612  0.0176  0.2549 -0.4350
12711TIP3    H159624   3.094   3.188   5.677 -0.3666  0.4757 -0.4116
12711TIP3    H259625   3.221   3.238   5.612  0.2695  1.6570  1.6444
12712TIP3   OH259626   6.378   1.380  13.626  0.3284  0.2643  0.1738
12712TIP3    H159627   6.404   1.335  13.707  2.6112 -0.8966 -1.1138
12712TIP3    H259628   6.413   1.469  13.636 -1.0866  0.7545  1.2092
12713TIP3   OH259629   0.969   4.501   3.483 -0.3646 -0.0649  0.2437
12713TIP3    H159630   0.979   4.468   3.393 -0.9326 -1.1416  0.5663
12713TIP3    H259631   0.989   4.594   3.476  2.1429 -0.5916 -0.5422
12714TIP3   OH259632   4.482   5.547   5.434  0.2988 -0.1679 -0.2890
12714TIP3    H159633   4.427   5.552   5.355 -0.9562  1.2372  0.6117
12714TIP3    H259634   4.419   5.542   5.506  1.3852  0.5571  0.7410
12715TIP3   OH259635   1.630   4.180  15.559  0.1354  0.3077 -0.4237
12715TIP3    H159636   1.544   4.214  15.585  0.3134  1.9181 -1.7701
12715TIP3    H259637   1.687   4.257  15.558  0.8964 -0.2202 -2.2844
12716TIP3   OH259638   0.456   4.351  12.244 -0.7106 -0.1446  0.1356
12716TIP3    H159639   0.516   4.277  12.237 -0.2047  0.3131 -0.5111
12716TIP3    H259640   0.371   4.316  12.217 -1.2365 -1.3063  2.8667
12717TIP3   OH259641   1.711   4.070   5.650  0.1110  0.1800  0.8103
12717TIP3    H159642   1.735   4.089   5.560  0.7736  2.1565  1.3614
12717TIP3    H259643   1.615   4.073   5.651  0.1299  1.5213  0.4176
12718TIP3   OH259644   2.197   5.018   4.335  0.1459 -0.0266  0.2000
12718TIP3    H159645   2.152   4.984   4.257 -0.8408  0.1793  0.6671
12718TIP3    H259646   2.290   5.003   4.317 -0.0377  0.2612 -1.1474
12719TIP3   OH259647   3.628   0.369   3.279 -0.3360 -0.6109  0.1641
12719TIP3    H159648   3.539   0.358   3.314 -0.5974  1.3769  0.2607
12719TIP3    H259649   3.678   0.406   3.351 -0.5582  2.3109 -1.0017
12720TIP3   OH259650   5.071   0.526   3.286 -0.6088  0.4229  0.6309
12720TIP3    H159651   5.052   0.600   3.342  2.3484  2.2110 -0.4760
12720TIP3    H259652   5.058   0.449   3.341 -0.4075  1.9537  2.9217
12721TIP3   OH259653   3.427   1.980  13.327 -0.8623 -0.2325 -0.3600
12721TIP3    H159654   3.416   1.921  13.253 -0.5347  0.2420 -0.7939
12721TIP3    H259655   3.341   2.020  13.339 -1.1432 -0.9403  0.0701
12722TIP3   OH259656   1.012   2.992   0.661  0.0339 -0.2215 -0.4281
12722TIP3    H159657   0.998   3.030   0.574  0.7235  0.2658 -0.3367
12722TIP3    H259658   0.949   3.036   0.718 -1.9224 -2.0469 -1.0484
12723TIP3   OH259659   0.695   1.904   0.703  0.3847  0.6939  0.1692
12723TIP3    H159660   0.626   1.952   0.657 -1.0737 -0.9295  0.5360
12723TIP3    H259661   0.717   1.961   0.778 -0.7238  1.1569  0.1690
12724TIP3   OH259662   5.441   2.321   5.827  0.1893 -0.2246 -0.5102
12724TIP3    H159663   5.420   2.297   5.737  0.3867  2.1374 -1.2677
12724TIP3    H259664   5.376   2.387   5.850  0.8599  0.0590  0.6629
12725TIP3   OH259665   5.792   2.431   2.960  0.2321  0.2848  0.4156
12725TIP3    H159666   5.754   2.504   2.910  1.0603 -0.1210 -0.8647
12725TIP3    H259667   5.831   2.375   2.893  0.7993 -0.6394  1.4948
12726TIP3   OH259668   1.118   1.718  11.491 -0.1864 -0.0059  0.1688
12726TIP3    H159669   1.029   1.743  11.469 -0.2609 -0.7065 -0.3694
12726TIP3    H259670   1.119   1.623  11.484  0.6180 -0.0028  0.0933
12727TIP3   OH259671   6.688   2.543   0.061  0.0946 -0.0172  0.6445
12727TIP3    H159672   6.756   2.599   0.023 -1.0740  0.9367 -0.1068
12727TIP3    H259673   6.645   2.597   0.126 -0.7992 -0.1638  0.1841
12728TIP3   OH259674   2.769   4.153  11.914 -0.5181 -0.1374 -0.0955
12728TIP3    H159675   2.693   4.095  11.916 -0.4232 -0.5085 -2.9592
12728TIP3    H259676   2.734   4.239  11.892 -0.2786  0.0896  0.3898
12729TIP3   OH259677   0.150   2.443   1.042  0.2235  0.5062 -0.5392
12729TIP3    H159678   0.222   2.419   1.101  0.3375 -0.9386 -1.2295
12729TIP3    H259679   0.131   2.363   0.994  0.3923  1.7193 -2.7488
12730TIP3   OH259680   4.208   4.382  15.039 -0.1590  0.1140 -0.4325
12730TIP3    H159681   4.257   4.302  15.061  0.7891  0.3869 -1.4737
12730TIP3    H259682   4.122   4.350  15.012  0.4936 -0.6473 -1.7133
12731TIP3   OH259683   1.371   3.563   0.585 -0.1429  0.2243 -0.5245
12731TIP3    H159684   1.322   3.564   0.503 -0.6088  2.2223 -0.2702
12731TIP3    H259685   1.316   3.513   0.645 -1.3778  1.4542 -0.5746
12732TIP3   OH259686   2.132   5.887  16.708  0.0249 -0.0265  0.4211
12732TIP3    H159687   2.036   5.889  16.700  0.0380 -0.1614  0.2223
12732TIP3    H259688   2.147   5.885  16.802 -0.1706 -0.0420  0.4537
12733TIP3   OH259689   3.085   1.652   3.098 -0.3715  0.0527 -0.0532
12733TIP3    H159690   3.002   1.604   3.098  0.2476 -1.0524 -0.3832
12733TIP3    H259691   3.105   1.666   3.005 -0.2420  0.4117  0.0269
12734TIP3   OH259692   6.301   6.082   3.895 -0.9422  0.1432  0.4657
12734TIP3    H159693   6.370   6.033   3.851 -1.7331 -0.8300  0.2566
12734TIP3    H259694   6.226   6.077   3.835 -1.4565  0.4355  1.0652
12735TIP3   OH259695   6.173   6.503   3.609 -0.2619  0.2231 -0.4783
12735TIP3    H159696   6.092   6.529   3.566 -1.5506 -2.7785 -0.1365
12735TIP3    H259697   6.204   6.427   3.560  2.0707  0.9194 -0.2345
12736TIP3   OH259698   1.448   2.961   1.710  0.1461 -0.1550  0.0748
12736TIP3    H159699   1.405   3.047   1.708 -1.6458 -0.9984 -0.8087
12736TIP3    H259700   1.396   2.910   1.771  0.1669 -1.0760 -0.6502
12737TIP3   OH259701   2.905   4.960  11.660  0.3890 -0.1260  0.3801
12737TIP3    H159702   2.892   4.880  11.711  2.1886 -1.0144 -0.4692
12737TIP3    H259703   2.853   4.947  11.581 -0.6909  0.3277  0.9898
12738TIP3   OH259704   3.180   6.175   0.410  0.1411  0.5471 -0.1540
12738TIP3    H159705   3.224   6.103   0.364  0.4670  0.3415  0.4767
12738TIP3    H259706   3.177   6.147   0.501 -2.6051 -0.1256 -0.3685
12739TIP3   OH259707   4.758   1.002   6.082 -0.5026 -0.1287 -0.2036
12739TIP3    H159708   4.718   1.082   6.116 -1.3340 -0.1365 -1.1295
12739TIP3    H259709   4.712   0.985   6.000  1.4785 -0.0739 -1.4026
12740TIP3   OH259710   3.937   2.903  11.529 -0.0283  0.6321 -0.2156
12740TIP3    H159711   3.932   2.938  11.440 -0.5279 -1.2036 -0.9539
12740TIP3    H259712   3.899   2.972  11.583 -2.5929  0.6235 -1.8118
12741TIP3   OH259713   1.324   2.696   6.412 -0.2534  0.5801  0.1491
12741TIP3    H159714   1.414   2.714   6.438  0.7023 -2.1321 -0.8636
12741TIP3    H259715   1.311   2.604   6.435 -2.2695  0.5003 -1.0645
12742TIP3   OH259716   0.746   2.271   3.669  0.2351 -1.0851  0.6638
12742TIP3    H159717   0.814   2.205   3.683  0.5084 -0.8240  0.5945
12742TIP3    H259718   0.684   2.231   3.609  0.8714 -0.9549 -0.0931
12743TIP3   OH259719   5.477   0.590  16.959  0.5963 -0.7857 -0.7674
12743TIP3    H159720   5.401   0.649  16.962 -0.6701 -2.3489  2.5033
12743TIP3    H259721   5.462   0.537  16.881 -1.2881 -0.5306 -0.6266
12744TIP3   OH259722   1.539   6.427  15.886 -0.0310 -0.3056  0.1898
12744TIP3    H159723   1.464   6.373  15.861  0.2001 -0.8922  0.7387
12744TIP3    H259724   1.503   6.515  15.898 -0.4327 -0.3617 -0.5859
12745TIP3   OH259725   5.445   4.589   3.020 -0.4994 -0.0885  0.5298
12745TIP3    H159726   5.497   4.534   2.962 -1.5367 -0.4479 -0.0878
12745TIP3    H259727   5.472   4.564   3.109  0.8029  0.1760  0.2164
12746TIP3   OH259728   2.519   4.483  12.102  0.0683 -0.4534  0.1203
12746TIP3    H159729   2.592   4.527  12.148  0.1251 -0.6193  0.1894
12746TIP3    H259730   2.550   4.394  12.089 -0.1041 -0.5110  0.1053
12747TIP3   OH259731   5.533   1.136   3.578  0.1292 -0.2590 -0.3744
12747TIP3    H159732   5.447   1.155   3.541  0.4762  0.0852 -1.0035
12747TIP3    H259733   5.561   1.218   3.618 -0.1009 -0.5389  0.3841
12748TIP3   OH259734   5.705   4.390  14.252  0.1207 -0.2940  0.3080
12748TIP3    H159735   5.624   4.361  14.209 -0.5398 -0.4953  1.6201
12748TIP3    H259736   5.680   4.472  14.295  1.3303  1.0116 -1.3858
12749TIP3   OH259737   1.420   0.158  14.582 -0.5964 -0.2449  0.2851
12749TIP3    H159738   1.489   0.158  14.648 -1.2525 -0.5547  0.9908
12749TIP3    H259739   1.384   0.069  14.585 -1.9492  0.2984  0.9429
12750TIP3   OH259740   1.890   0.108   3.453  0.1033 -0.1539 -0.1444
12750TIP3    H159741   1.818   0.088   3.392  1.2168 -0.0559 -1.5398
12750TIP3    H259742   1.920   0.194   3.427 -0.9733  1.0249  2.1946
12751TIP3   OH259743   4.943   3.430  16.166 -0.4011  0.3131 -0.2090
12751TIP3    H159744   4.986   3.357  16.120  0.0891  1.5020 -1.7262
12751TIP3    H259745   4.942   3.403  16.258  3.2458  0.0030 -0.1231
12752TIP3   OH259746   6.578   2.577  14.089  0.0188  0.1567 -0.3842
12752TIP3    H159747   6.509   2.608  14.148  0.3875  0.8888 -0.3360
12752TIP3    H259748   6.590   2.648  14.027 -0.9800 -0.9510 -1.9200
12753TIP3   OH259749   0.396   2.664  14.835 -0.1082  0.3179 -0.6948
12753TIP3    H159750   0.456   2.613  14.780  0.6900  2.5586 -2.0060
12753TIP3    H259751   0.431   2.654  14.924  0.9640 -0.0955 -1.1458
12754TIP3   OH259752   2.032   0.664   0.893  0.0106 -0.0795 -0.7488
12754TIP3    H159753   2.074   0.578   0.894  0.6372  0.2211 -0.4680
12754TIP3    H259754   2.006   0.679   0.984 -0.5031 -0.1627 -0.8801
12755TIP3   OH259755   0.394   1.315   0.375  0.2930 -0.0206  0.2778
12755TIP3    H159756   0.329   1.256   0.335  0.4439 -1.0078  1.4201
12755TIP3    H259757   0.472   1.260   0.386  1.5270  1.2596 -1.4885
12756TIP3   OH259758   1.064   2.699   4.465 -0.4240  0.3617  0.2312
12756TIP3    H159759   1.083   2.784   4.506 -0.9829  0.0830  1.0959
12756TIP3    H259760   1.146   2.674   4.424 -0.8017  2.3254 -1.9175
12757TIP3   OH259761   4.978   6.056  14.253  0.1701 -0.3531  0.2299
12757TIP3    H159762   5.066   6.076  14.221  0.0347 -1.1562 -0.6784
12757TIP3    H259763   4.963   5.965  14.227 -0.5532 -0.5324  1.2324
12758TIP3   OH259764   0.603   0.846   2.746 -0.1149  0.5415  0.0949
12758TIP3    H159765   0.556   0.902   2.808  0.4065 -0.5118  1.4821
12758TIP3    H259766   0.675   0.900   2.714 -0.5431  1.1799  0.2014
12759TIP3   OH259767   4.009   2.511  13.297 -0.2103 -0.2106 -0.2775
12759TIP3    H159768   3.915   2.494  13.306 -0.0679 -0.5954  0.5483
12759TIP3    H259769   4.014   2.589  13.242 -1.0024 -0.3897 -0.6124
12760TIP3   OH259770   0.061   1.947  17.476 -0.1489 -0.2243 -0.2879
12760TIP3    H159771  -0.003   1.876  17.477  0.4082 -0.7409 -0.6004
12760TIP3    H259772   0.012   2.024  17.506 -1.5914 -0.0065 -2.9098
12761TIP3   OH259773   0.137   3.251  12.108  0.5657  0.3104 -0.3802
12761TIP3    H159774   0.052   3.263  12.065  0.9537 -0.8373 -1.5259
12761TIP3    H259775   0.121   3.277  12.199 -0.7064  1.2072 -0.8178
12762TIP3   OH259776   4.707   1.679  11.262  0.0637 -0.1011 -0.0764
12762TIP3    H159777   4.704   1.713  11.351 -1.4561  0.3887 -0.2950
12762TIP3    H259778   4.730   1.754  11.208  1.6375 -0.5337 -0.0615
12763TIP3   OH259779   2.097   6.351   1.452 -0.2220  0.2119  0.2403
12763TIP3    H159780   2.013   6.392   1.472 -0.1409  0.1603  0.7100
12763TIP3    H259781   2.087   6.261   1.481 -0.5848 -0.2636 -1.2932
12764TIP3   OH259782   3.925   2.696  15.399 -0.0574  0.0117  0.0593
12764TIP3    H159783   3.983   2.621  15.412  1.8638  0.9584 -2.2466
12764TIP3    H259784   3.881   2.678  15.316 -1.1500  0.5144  0.5101
12765TIP3   OH259785   5.539   5.740   5.327 -0.3481 -0.2277 -0.4053
12765TIP3    H159786   5.592   5.817   5.307 -0.8054 -0.1434 -1.3583
12765TIP3    H259787   5.467   5.744   5.265  0.3298 -2.1240 -1.4003
12766TIP3   OH259788   6.626   0.509  12.778 -0.0781 -0.2027 -0.2443
12766TIP3    H159789   6.616   0.442  12.711 -1.1906  0.7111 -1.0173
12766TIP3    H259790   6.669   0.464  12.851 -0.4373 -1.6342 -0.8968
12767TIP3   OH259791   5.388   0.233  17.481  0.2475 -0.1017 -0.3204
12767TIP3    H159792   5.346   0.202  17.401 -0.0294 -0.2940 -0.0998
12767TIP3    H259793   5.315   0.258  17.538  0.4035  3.5258 -1.4594
12768TIP3   OH259794   1.834   5.699  14.239 -0.5978  0.5017 -0.3940
12768TIP3    H159795   1.784   5.665  14.313 -2.1563 -0.2865 -1.7333
12768TIP3    H259796   1.911   5.740  14.278 -1.5221  0.3876  1.6592
12769TIP3   OH259797   2.238   5.307  15.836 -0.0718 -0.0861 -0.1383
12769TIP3    H159798   2.217   5.297  15.929  0.8745 -0.1197  0.0807
12769TIP3    H259799   2.331   5.286  15.830  0.8468  3.4114 -0.4720
12770TIP3   OH259800   3.841   4.465   1.700  0.4771 -0.0639  0.6590
12770TIP3    H159801   3.910   4.530   1.683  1.2702 -0.2137  2.9905
12770TIP3    H259802   3.870   4.418   1.778 -0.6568 -2.4686 -0.2551
12771TIP3   OH259803   1.253   4.564   5.661  0.2345  0.3212 -0.1873
12771TIP3    H159804   1.343   4.587   5.638  0.4728  0.3306  0.7281
12771TIP3    H259805   1.250   4.469   5.651 -0.0717  0.4620 -1.6171
12772TIP3   OH259806   2.627   1.864   1.209  0.8413 -0.0897 -0.1134
12772TIP3    H159807   2.665   1.778   1.192 -0.2428 -0.6285  0.0446
12772TIP3    H259808   2.533   1.852   1.190  0.6947  1.0860 -0.1867
12773TIP3   OH259809   5.075   4.023   4.390  0.0484  0.2129  0.2398
12773TIP3    H159810   5.078   4.118   4.380 -0.3716  0.3934  1.6657
12773TIP3    H259811   5.126   4.005   4.469 -0.0803 -0.7238  0.1221
12774TIP3   OH259812   2.541   3.165   6.075 -0.0862  0.1740  0.4237
12774TIP3    H159813   2.595   3.102   6.028  0.6660  0.7957  0.4265
12774TIP3    H259814   2.604   3.224   6.116 -0.7472  2.1793 -1.2672
12775TIP3   OH259815   5.737   5.206  14.514  0.4050 -0.3820  0.2154
12775TIP3    H159816   5.776   5.186  14.429 -0.7443  1.0776 -0.6977
12775TIP3    H259817   5.674   5.136  14.529  0.1833 -0.3305 -0.4346
12776TIP3   OH259818   3.993   3.977  15.402  0.7834  0.8578 -0.3118
12776TIP3    H159819   3.969   3.971  15.309  1.1620  0.7007 -0.4016
12776TIP3    H259820   3.990   3.887  15.434  0.4880  0.9320 -0.1271
12777TIP3   OH259821   0.541   5.757   4.810  0.4700 -0.3493  0.4500
12777TIP3    H159822   0.515   5.717   4.728  0.6162 -1.4059  0.9077
12777TIP3    H259823   0.466   5.809   4.837  0.2339 -0.4103 -0.0906
12778TIP3   OH259824   5.332   1.564  12.010  0.1950 -0.0109  0.1973
12778TIP3    H159825   5.330   1.658  12.026 -1.8656  0.1557 -0.6995
12778TIP3    H259826   5.368   1.556  11.921 -0.7498  0.0287 -0.1943
12779TIP3   OH259827   0.740   4.374   3.202 -0.7950 -0.1552  0.9098
12779TIP3    H159828   0.778   4.291   3.175 -0.5738 -0.0993  1.0447
12779TIP3    H259829   0.773   4.438   3.140 -2.4060 -0.4480 -0.3080
12780TIP3   OH259830   2.401   2.983  12.077 -0.6227 -0.6001 -0.7749
12780TIP3    H159831   2.493   3.007  12.090 -1.1149  1.2184 -0.4411
12780TIP3    H259832   2.352   3.043  12.133 -2.2701  1.5722 -4.1933
12781TIP3   OH259833   6.517   0.742   0.865 -0.0781  0.3746  0.1437
12781TIP3    H159834   6.601   0.702   0.841  0.1955  0.6925  0.5594
12781TIP3    H259835   6.469   0.672   0.909 -0.5201 -0.1692 -1.1465
12782TIP3   OH259836   2.058   3.851  15.111 -0.8066  0.2563 -0.0207
12782TIP3    H159837   2.055   3.756  15.098 -0.1236  0.0281  1.3398
12782TIP3    H259838   2.145   3.868  15.146 -1.9486  0.9398  2.7188
12783TIP3   OH259839   6.596   6.237  14.557  0.3382 -0.3309 -0.0271
12783TIP3    H159840   6.565   6.174  14.492  0.9398  0.1922 -0.8502
12783TIP3    H259841   6.576   6.197  14.641  0.5094 -1.5236 -0.5308
12784TIP3   OH259842   5.579   2.958  15.930  0.4146  0.0892  0.1595
12784TIP3    H159843   5.495   2.915  15.947  0.5945 -1.4384 -2.3566
12784TIP3    H259844   5.644   2.896  15.964  0.6032 -0.6855 -1.5246
12785TIP3   OH259845   1.346   5.800  16.481 -0.0014  0.1603  0.2988
12785TIP3    H159846   1.269   5.743  16.472 -0.1397  0.5602 -1.4366
12785TIP3    H259847   1.389   5.770  16.561 -1.6120 -0.4984  0.9573
12786TIP3   OH259848   0.762   6.333   5.424  0.1216  0.2806 -0.1432
12786TIP3    H159849   0.768   6.320   5.519  0.6733 -2.2035 -0.4537
12786TIP3    H259850   0.767   6.428   5.413  2.3246  0.5500  2.1767
12787TIP3   OH259851   2.937   3.846   6.092 -0.1124 -0.4599  0.0019
12787TIP3    H159852   2.866   3.871   6.152 -0.1578 -0.4015 -0.0753
12787TIP3    H259853   2.945   3.752   6.103 -0.9680 -0.6484 -0.8150
12788TIP3   OH259854   5.468   3.858   3.785 -0.0994 -0.2170 -0.2855
12788TIP3    H159855   5.510   3.923   3.841  0.2817  0.6049 -1.4761
12788TIP3    H259856   5.390   3.831   3.834 -0.3856  1.3057  0.1591
12789TIP3   OH259857   3.680   1.218   0.736 -0.6192 -0.3582  0.2587
12789TIP3    H159858   3.643   1.305   0.724 -0.1662 -0.4267 -1.9601
12789TIP3    H259859   3.664   1.198   0.829  1.3649  3.0241  1.5228
12790TIP3   OH259860   3.004   6.184  14.838 -0.2082 -0.3969 -0.2434
12790TIP3    H159861   2.979   6.266  14.881 -0.5241  0.3193 -1.7204
12790TIP3    H259862   3.081   6.208  14.786 -0.3155 -1.0377 -0.7012
12791TIP3   OH259863   1.868   4.728   6.738 -0.3518  0.4303 -0.4010
12791TIP3    H159864   1.786   4.774   6.720 -0.8783 -0.0617  0.6569
12791TIP3    H259865   1.890   4.684   6.655 -0.8304  1.0514 -0.8650
12792TIP3   OH259866   5.031   6.254  16.365  0.0091 -0.3458 -0.2992
12792TIP3    H159867   5.116   6.298  16.373  0.4344 -1.1137 -0.4469
12792TIP3    H259868   5.054   6.165  16.339 -0.8271 -0.6927  0.1486
12793TIP3   OH259869   4.946   1.504  14.540 -0.1188  0.0452 -0.2674
12793TIP3    H159870   5.002   1.456  14.480 -0.4009  1.6009 -1.8614
12793TIP3    H259871   4.887   1.438  14.577 -0.1937 -0.8985 -2.0071
12794TIP3   OH259872   3.640   1.886   6.361  0.0478 -0.3519  0.0667
12794TIP3    H159873   3.707   1.901   6.427  0.7169 -4.1363  0.4691
12794TIP3    H259874   3.561   1.864   6.410 -0.4574  0.2768 -0.4326
12795TIP3   OH259875   6.289   2.118  13.109 -0.0069  0.1529  0.2869
12795TIP3    H159876   6.237   2.138  13.032  0.1537  1.7494  0.5585
12795TIP3    H259877   6.264   2.028  13.133 -0.4354 -0.1704 -1.2875
12796TIP3   OH259878   1.103   5.840  14.708 -0.4742  0.3029 -0.3705
12796TIP3    H159879   1.030   5.779  14.694 -0.3917  0.2254 -0.4640
12796TIP3    H259880   1.062   5.917  14.747 -0.3210 -0.5388  1.5950
12797TIP3   OH259881   4.672   4.954  12.724  0.0307  0.5066  0.0526
12797TIP3    H159882   4.584   4.943  12.686 -0.3193  0.6737  0.7932
12797TIP3    H259883   4.719   5.007  12.659  0.1792 -1.1002 -1.2130
12798TIP3   OH259884   5.721   4.902  13.484  0.1781 -0.0884 -0.1138
12798TIP3    H159885   5.629   4.884  13.505 -0.1105 -0.3799 -1.4738
12798TIP3    H259886   5.767   4.822  13.509  0.1149  0.1697  0.8459
12799TIP3   OH259887   3.555   1.200   2.518 -0.1040  0.5693  0.0757
12799TIP3    H159888   3.603   1.164   2.443  0.1382 -0.6271  0.7732
12799TIP3    H259889   3.464   1.174   2.503 -0.4788  2.3081 -0.9343
12800TIP3   OH259890   3.379   2.651  14.661 -0.3848 -0.1054 -0.4430
12800TIP3    H159891   3.435   2.621  14.732 -0.5553 -0.1100 -0.3098
12800TIP3    H259892   3.290   2.647  14.697 -0.7604 -2.4494 -1.4318
12801TIP3   OH259893   5.374   0.529   2.466  0.4500 -0.5347  0.5235
12801TIP3    H159894   5.419   0.449   2.491 -0.9867 -1.1896  1.1637
12801TIP3    H259895   5.318   0.550   2.541 -1.2262 -0.4790 -0.6808
12802TIP3   OH259896   3.951   1.713  12.559 -0.5575 -0.7098 -0.2261
12802TIP3    H159897   3.890   1.765  12.610 -0.8402 -0.8086 -0.4569
12802TIP3    H259898   3.895   1.659  12.502 -0.2520 -0.0861 -1.1481
12803TIP3   OH259899   4.248   5.846  12.353  0.2581  0.2534 -0.2184
12803TIP3    H159900   4.154   5.835  12.336  0.0634 -0.3867  1.1615
12803TIP3    H259901   4.267   5.935  12.322 -0.2434 -0.4158 -2.7073
12804TIP3   OH259902   1.360   0.826  15.021 -0.0743 -0.6359 -0.7789
12804TIP3    H159903   1.381   0.755  15.081  2.1638 -1.3758 -2.2903
12804TIP3    H259904   1.444   0.870  15.007 -1.6686  4.0451  2.0156
12805TIP3   OH259905   1.936   6.309   5.491 -0.0050  0.1823 -0.1080
12805TIP3    H159906   1.851   6.292   5.531 -0.6213  0.5549 -1.2404
12805TIP3    H259907   1.916   6.337   5.402  1.3370 -0.5828 -0.6816
12806TIP3   OH259908   6.496   6.582  17.106 -0.3162 -0.4350  0.7384
12806TIP3    H159909   6.510   6.675  17.120  0.2793 -0.5012  0.6261
12806TIP3    H259910   6.411   6.576  17.062  0.1211  0.1428 -0.2330
12807TIP3   OH259911   0.681   6.435   0.945 -0.2416 -0.3285  0.3882
12807TIP3    H159912   0.701   6.496   0.874 -0.1139  0.4172  1.0487
12807TIP3    H259913   0.764   6.426   0.991  0.5481 -3.3033 -1.3766
12808TIP3   OH259914   3.191   4.406   3.646  0.7147 -0.0318 -0.1182
12808TIP3    H159915   3.123   4.403   3.579  0.5152 -0.7729  0.1029
12808TIP3    H259916   3.169   4.334   3.705  0.3924  1.1540  1.2316
12809TIP3   OH259917   2.576   3.491   4.432 -0.3193 -0.4489  0.1543
12809TIP3    H159918   2.570   3.546   4.354 -0.9208 -1.7196 -0.7465
12809TIP3    H259919   2.607   3.549   4.501 -2.5358  1.4124 -0.3172
12810TIP3   OH259920   0.815   4.107   3.381 -0.8974 -0.3798  0.0788
12810TIP3    H159921   0.896   4.100   3.432 -1.2535 -0.0680  0.6847
12810TIP3    H259922   0.804   4.201   3.367 -2.7523 -0.1187  2.6037
12811TIP3   OH259923   2.849   5.213  16.793 -0.1761 -0.5374  0.0054
12811TIP3    H159924   2.776   5.269  16.765 -0.2089 -1.1992 -1.3561
12811TIP3    H259925   2.916   5.226  16.726  0.2606 -1.2538  0.2925
12812TIP3   OH259926   0.452   5.949   2.528 -0.4881 -0.1154 -0.4213
12812TIP3    H159927   0.386   5.937   2.459  0.5084 -0.5870 -1.3211
12812TIP3    H259928   0.514   6.012   2.490  0.0146 -0.2980  0.0904
12813TIP3   OH259929   0.463   5.971  13.082 -0.5780 -0.7731 -0.3930
12813TIP3    H159930   0.453   5.894  13.138 -1.4837 -2.0245 -2.1589
12813TIP3    H259931   0.436   5.941  12.995  0.6963  1.0900 -1.5059
12814TIP3   OH259932   2.763   1.508  12.752 -0.0768  0.0148  0.1395
12814TIP3    H159933   2.749   1.575  12.817  0.6947 -1.1587  1.5845
12814TIP3    H259934   2.832   1.543  12.696 -1.0089  1.1877 -0.3148
12815TIP3   OH259935   6.369   0.076   2.277  0.5443 -0.4929 -0.1228
12815TIP3    H159936   6.337   0.010   2.215 -1.7353 -0.4894  0.9214
12815TIP3    H259937   6.292   0.130   2.296  1.6158  0.5996  1.3523
12816TIP3   OH259938   1.248   1.168   1.288 -0.0399  0.0033 -0.6610
12816TIP3    H159939   1.234   1.076   1.268 -2.1594 -0.0644  0.9061
12816TIP3    H259940   1.170   1.212   1.257 -0.0562  0.9374  0.6313
12817TIP3   OH259941   0.671   0.192  13.599 -0.2009  0.1509  0.3813
12817TIP3    H159942   0.640   0.101  13.599 -0.2608  0.1579  1.5797
12817TIP3    H259943   0.641   0.227  13.516 -2.2661 -0.2401  0.9139
12818TIP3   OH259944   1.387   3.503   2.214  0.2199 -0.0801 -0.2064
12818TIP3    H159945   1.366   3.543   2.130  0.5561 -0.2235 -0.3608
12818TIP3    H259946   1.320   3.536   2.274  0.5127  0.7563 -0.3185
12819TIP3   OH259947   4.772   2.438   1.283  0.7188 -0.0998 -0.4537
12819TIP3    H159948   4.836   2.396   1.226 -0.8336 -1.9547 -0.9340
12819TIP3    H259949   4.808   2.525   1.300  1.6203  0.2681 -3.6256
12820TIP3   OH259950   2.810   4.608  16.364  0.2224  0.0419  0.1940
12820TIP3    H159951   2.768   4.563  16.438  1.3862  0.2996  1.0316
12820TIP3    H259952   2.822   4.539  16.298  0.4004 -0.4943  0.7787
12821TIP3   OH259953   3.355   6.603  10.824  0.3434  0.2340  0.1460
12821TIP3    H159954   3.277   6.564  10.784  0.9188  1.7978 -2.7236
12821TIP3    H259955   3.324   6.685  10.862  0.4948  0.7333 -0.7746
12822TIP3   OH259956   5.705   2.617   4.691 -0.5128 -0.3321 -0.4898
12822TIP3    H159957   5.641   2.567   4.640 -0.7361 -0.2787 -0.2617
12822TIP3    H259958   5.668   2.705   4.697 -0.3853 -0.2825 -0.4121
12823TIP3   OH259959   4.100   3.549  17.357  0.1812 -0.3356 -0.1054
12823TIP3    H159960   4.017   3.575  17.398 -0.8600 -2.2818 -0.8526
12823TIP3    H259961   4.166   3.567  17.423 -0.9171  0.5561  0.8063
12824TIP3   OH259962   4.248   3.418   3.281 -0.4954 -0.3286  0.7265
12824TIP3    H159963   4.313   3.350   3.262 -0.9676 -0.8371  0.9051
12824TIP3    H259964   4.287   3.470   3.351  0.5486  0.5535 -0.4653
12825TIP3   OH259965   2.656   6.538  10.747  0.1080 -0.0400  0.3739
12825TIP3    H159966   2.646   6.463  10.806 -0.6178 -0.1136  0.1708
12825TIP3    H259967   2.573   6.541  10.699  0.2123  0.7715  0.2367
12826TIP3   OH259968   1.336   4.459  17.479 -0.1174 -0.0956 -0.3931
12826TIP3    H159969   1.300   4.447  17.391 -1.2922  0.6782 -0.0486
12826TIP3    H259970   1.431   4.459  17.467 -0.2169 -1.4112 -1.4563
12827TIP3   OH259971   6.687   5.697   2.939 -0.7326 -0.3852 -0.8030
12827TIP3    H159972   6.689   5.780   2.987  1.5821 -0.6663 -0.2773
12827TIP3    H259973   6.693   5.721   2.847 -0.7312  0.0344 -0.6916
12828TIP3   OH259974   1.600   6.266  16.855 -0.6817  0.5754 -0.1001
12828TIP3    H159975   1.580   6.248  16.946  0.2420  0.3613  0.0656
12828TIP3    H259976   1.538   6.213  16.806  0.0692 -0.8048  0.4007
12829TIP3   OH259977   1.028   0.812  13.591  0.0768  0.0937  0.4590
12829TIP3    H159978   1.057   0.783  13.678  0.7408 -0.4067  0.0828
12829TIP3    H259979   1.023   0.732  13.539  0.9202  0.5200 -0.3092
12830TIP3   OH259980   3.556   6.650   2.653 -0.1808  0.3211  0.2760
12830TIP3    H159981   3.555   6.570   2.706 -2.6756  0.5978  0.7455
12830TIP3    H259982   3.533   6.621   2.565 -1.6315  0.5422  0.5576
12831TIP3   OH259983   5.957   2.789   0.359  0.5620  0.1493 -0.1897
12831TIP3    H159984   6.038   2.801   0.309  1.8689 -2.1914  1.1923
12831TIP3    H259985   5.888   2.790   0.293  1.6821  2.1353 -1.4182
12832TIP3   OH259986   5.986   2.458  12.033  0.0994 -0.2137  0.0903
12832TIP3    H159987   6.001   2.429  11.943  1.0104  0.8589 -0.1294
12832TIP3    H259988   5.956   2.548  12.024  2.4379  0.7170  0.9078
12833TIP3   OH259989   3.657   6.576   0.438 -0.0168 -0.2736 -0.2076
12833TIP3    H159990   3.689   6.547   0.353  0.5155 -0.2681 -0.0176
12833TIP3    H259991   3.731   6.625   0.476 -0.8342  1.2506 -0.4777
12834TIP3   OH259992   1.064   4.738   5.762 -0.1267 -0.0846 -0.3098
12834TIP3    H159993   1.116   4.669   5.720  1.1493  0.2693  0.6190
12834TIP3    H259994   1.125   4.811   5.771 -0.6837  0.2405  1.0855
12835TIP3   OH259995   0.567   4.237  12.976 -0.3950  0.2266  0.0960
12835TIP3    H159996   0.479   4.228  12.939 -0.5355  1.7690 -0.0070
12835TIP3    H259997   0.583   4.154  13.020 -1.8947 -0.0937  0.0936
12836TIP3   OH259998   6.015   5.291   1.427  0.1858  0.2335 -0.3396
12836TIP3    H159999   6.091   5.303   1.370  0.3768  2.4480  0.2809
12836TIP3    H260000   5.941   5.280   1.367  0.6674  0.5405 -0.9992
12837TIP3   OH260001   1.999   0.669   3.799 -0.0662  0.2043  0.2145
12837TIP3    H160002   2.080   0.651   3.846  1.4508 -1.6549 -2.8016
12837TIP3    H260003   2.027   0.699   3.713 -2.5527 -0.9875 -1.1152
12838TIP3   OH260004   5.236   2.147  12.142  0.2127 -0.3379 -0.1810
12838TIP3    H160005   5.154   2.146  12.190  0.5217 -0.9185  0.3528
12838TIP3    H260006   5.211   2.167  12.052 -0.4525 -0.0039  0.0719
12839TIP3   OH260007   2.395   2.537  16.554  0.0732 -0.2459 -0.2067
12839TIP3    H160008   2.341   2.478  16.502  0.2018 -0.7544  0.2255
12839TIP3    H260009   2.475   2.487  16.571  0.0316 -0.0927  0.4746
12840TIP3   OH260010   0.917   0.487  17.331 -0.2391 -0.2240  0.6342
12840TIP3    H160011   0.951   0.468  17.244  0.0405  0.5069  0.5739
12840TIP3    H260012   0.902   0.401  17.371  0.6490 -0.5628  0.2558
12841TIP3   OH260013   0.388   0.095   1.154 -0.3633  0.4071  0.0231
12841TIP3    H160014   0.403   0.020   1.096 -2.7588 -0.2669  0.1613
12841TIP3    H260015   0.401   0.060   1.242 -0.9292  0.2860  0.0621
12842TIP3   OH260016   1.058   2.531   1.336 -0.0382 -0.3288 -0.1183
12842TIP3    H160017   1.046   2.507   1.244 -0.6343 -1.2755  0.1908
12842TIP3    H260018   1.115   2.463   1.371  1.1732  0.6835 -0.0548
12843TIP3   OH260019   2.455   4.206  13.605  0.4315  0.3929  0.3250
12843TIP3    H160020   2.366   4.201  13.571  0.0483  0.5072  1.2609
12843TIP3    H260021   2.498   4.274  13.554 -0.8544  2.2931  1.6302
12844TIP3   OH260022   1.534   6.308  13.291 -0.1321 -0.1683 -0.0489
12844TIP3    H160023   1.442   6.283  13.299 -0.0122 -0.9337 -0.8550
12844TIP3    H260024   1.533   6.400  13.266 -0.6965 -0.3006 -0.5221
12845TIP3   OH260025   2.178   1.097   5.534 -0.5092 -0.4537  0.1376
12845TIP3    H160026   2.186   1.157   5.608 -1.6423 -0.1686  0.0478
12845TIP3    H260027   2.189   1.010   5.572  0.8456 -0.2278  0.3183
12846TIP3   OH260028   3.823   1.500  10.816  0.6974  0.3132  0.3352
12846TIP3    H160029   3.756   1.565  10.834  0.3660 -0.0306  0.3522
12846TIP3    H260030   3.902   1.535  10.857  0.1247 -0.1245  1.8795
12847TIP3   OH260031   3.815   3.313   2.593  0.7629  0.7407  0.3857
12847TIP3    H160032   3.811   3.218   2.581  2.3325  0.7147 -0.1639
12847TIP3    H260033   3.789   3.327   2.684 -0.9842 -0.0576  0.0464
12848TIP3   OH260034   5.883   3.179   5.715  0.4939 -0.2469  0.2825
12848TIP3    H160035   5.889   3.274   5.728 -0.8661  0.0871 -1.1584
12848TIP3    H260036   5.807   3.152   5.767  0.2896 -0.3697 -0.0741
12849TIP3   OH260037   0.026   4.701  11.143 -0.7819  0.3357 -0.8376
12849TIP3    H160038   0.036   4.703  11.238 -0.7124  1.0774 -0.8575
12849TIP3    H260039   0.037   4.792  11.115 -0.9849  0.1544 -1.5373
12850TIP3   OH260040   3.579   5.140   1.255  0.4612  0.0590 -0.4834
12850TIP3    H160041   3.579   5.065   1.196  2.1215 -1.0586  0.8532
12850TIP3    H260042   3.524   5.114   1.328 -0.1204  0.7348 -0.6637
12851TIP3   OH260043   3.825   2.989   1.695  0.4612  0.2929 -0.3579
12851TIP3    H160044   3.789   2.965   1.780  0.7269 -2.3902 -0.9217
12851TIP3    H260045   3.910   3.029   1.715  1.2499 -1.7428  0.6244
12852TIP3   OH260046   6.000   5.236   5.674  0.6072  0.0543 -0.4668
12852TIP3    H160047   5.986   5.314   5.619 -0.2908 -1.0031 -1.7989
12852TIP3    H260048   5.972   5.163   5.619 -0.3716 -1.0538  1.4114
12853TIP3   OH260049   5.077   1.117   0.981 -0.2748  0.0789  0.5906
12853TIP3    H160050   5.137   1.083   1.047 -0.2517 -2.7711 -0.7645
12853TIP3    H260051   4.990   1.111   1.022 -0.0231  0.8835  1.2765
12854TIP3   OH260052   3.358   2.981   0.029 -0.1809  0.0222 -0.0079
12854TIP3    H160053   3.428   2.996   0.093 -0.7696 -0.3883  0.7485
12854TIP3    H260054   3.280   3.018   0.070 -0.7775 -1.1774 -0.0292
12855TIP3   OH260055   0.191   5.830  17.420 -0.2965  0.2968 -0.5925
12855TIP3    H160056   0.188   5.803  17.328 -0.4094 -0.0019 -0.4998
12855TIP3    H260057   0.193   5.748  17.469  0.7365  0.4452 -0.3624
12856TIP3   OH260058   6.715   0.694  12.137  0.5287 -0.6642 -0.2866
12856TIP3    H160059   6.808   0.676  12.148  0.3735 -0.9950  0.4965
12856TIP3    H260060   6.697   0.765  12.199  0.0655 -1.2379  0.2489
12857TIP3   OH260061   0.249   0.361   1.357  0.6301 -0.1897 -0.6640
12857TIP3    H160062   0.207   0.439   1.320  0.1257  0.5622  1.3782
12857TIP3    H260063   0.179   0.297   1.365 -0.0613  0.7846  1.9716
12858TIP3   OH260064   0.819   5.118   6.309  0.3362 -0.3240  0.1944
12858TIP3    H160065   0.751   5.179   6.341  0.9816  0.5495 -0.0592
12858TIP3    H260066   0.856   5.080   6.389  2.6848  2.6448  0.7223
12859TIP3   OH260067   3.001   4.139   1.507 -0.0857  0.1284  0.0772
12859TIP3    H160068   2.980   4.227   1.540 -0.4869 -0.4118  1.2930
12859TIP3    H260069   2.955   4.135   1.423 -0.6753  0.8201  0.3473
12860TIP3   OH260070   5.881   5.931  15.061  0.3396 -0.7270  0.5152
12860TIP3    H160071   5.908   5.891  14.978  1.6511 -1.9294  1.4735
12860TIP3    H260072   5.954   5.988  15.085 -0.4336  0.3433  0.4203
12861TIP3   OH260073   1.170   2.203  12.754 -0.5858  0.3357  0.4340
12861TIP3    H160074   1.213   2.134  12.704  0.6078  2.1158 -1.1401
12861TIP3    H260075   1.156   2.165  12.841 -1.5027 -2.4170 -0.8146
12862TIP3   OH260076   4.945   4.686   1.067  0.0795  0.6414  0.1330
12862TIP3    H160077   4.972   4.645   0.985  0.3713 -0.8192  0.9282
12862TIP3    H260078   5.027   4.714   1.108  0.2970 -1.6171  1.4190
12863TIP3   OH260079   5.268   5.376  16.488  0.2737 -0.1343  0.5235
12863TIP3    H160080   5.188   5.324  16.479  0.8430 -0.8481 -0.6524
12863TIP3    H260081   5.270   5.430  16.409  0.9015 -0.0534  0.5923
12864TIP3   OH260082   4.476   4.522  15.132  0.0195  0.4727  0.0089
12864TIP3    H160083   4.507   4.435  15.108  1.4741  0.5999  1.2666
12864TIP3    H260084   4.451   4.515  15.224  1.3712  1.6477  0.5081
12865TIP3   OH260085   2.813   6.741  10.655  0.2484 -0.4827 -0.5654
12865TIP3    H160086   2.853   6.699  10.579  0.2950  0.5645 -1.1320
12865TIP3    H260087   2.761   6.671  10.696 -0.6347 -0.7899 -2.1524
12866TIP3   OH260088   1.049   4.790  12.470  0.0971  0.3014 -0.7753
12866TIP3    H160089   0.996   4.731  12.416  0.1535  1.9117 -2.7475
12866TIP3    H260090   1.001   4.796  12.553 -0.6624 -1.3331 -1.0551
12867TIP3   OH260091   1.800   1.897   1.863  0.0812  0.0567  0.0643
12867TIP3    H160092   1.806   1.913   1.957 -1.6929  2.5322 -0.1328
12867TIP3    H260093   1.862   1.959   1.824  1.5961 -1.6817 -0.4341
12868TIP3   OH260094   2.685   1.876  15.387 -0.1046 -0.3520 -0.5888
12868TIP3    H160095   2.741   1.847  15.315 -0.0308 -0.1185 -0.6248
12868TIP3    H260096   2.745   1.886  15.461  0.4329  2.5165 -1.2740
12869TIP3   OH260097   2.385   5.581  12.990  0.1414  0.2464 -0.2269
12869TIP3    H160098   2.359   5.671  12.969 -1.7889 -0.6590 -2.0895
12869TIP3    H260099   2.381   5.576  13.085 -1.0909  1.7626 -0.1679
12870TIP3   OH260100   4.554   2.606   5.161 -0.5934  0.0052  0.1101
12870TIP3    H160101   4.643   2.579   5.185 -1.0983 -1.7691  0.1514
12870TIP3    H260102   4.509   2.524   5.142 -1.8960  0.9575 -1.0998
12871TIP3   OH260103   0.820   2.125   2.275 -0.6186 -0.3297 -0.0573
12871TIP3    H160104   0.729   2.130   2.245 -1.0707 -0.7357  1.1599
12871TIP3    H260105   0.842   2.032   2.272 -0.5618 -0.3416  0.5034
12872TIP3   OH260106   3.620   4.472   6.016 -0.2289 -0.0648 -0.0194
12872TIP3    H160107   3.667   4.498   6.095 -1.8027  1.5308  0.4651
12872TIP3    H260108   3.602   4.555   5.971 -2.4855 -0.5756 -0.1808
12873TIP3   OH260109   4.916   4.425  15.858  0.4745 -0.3858 -0.5981
12873TIP3    H160110   4.848   4.366  15.889  1.2990 -0.1756  1.8959
12873TIP3    H260111   4.870   4.506  15.837 -0.5642 -1.5966 -3.3519
12874TIP3   OH260112   3.256   2.336   2.180 -0.0088  0.4107  0.2952
12874TIP3    H160113   3.286   2.390   2.253 -2.0457 -0.2908  1.7333
12874TIP3    H260114   3.292   2.249   2.198 -1.6141 -0.0955  1.2751
12875TIP3   OH260115   5.239   6.331   0.373 -0.5016 -0.9123  0.0281
12875TIP3    H160116   5.156   6.356   0.414 -0.2859 -0.0433 -0.0451
12875TIP3    H260117   5.296   6.406   0.389 -0.2155 -0.8298 -1.3003
12876TIP3   OH260118   6.684   5.512   5.765  0.4292 -0.2491  0.3245
12876TIP3    H160119   6.673   5.417   5.757 -0.1792 -0.0903 -0.9603
12876TIP3    H260120   6.599   5.545   5.793  1.0179 -0.1863  2.2243
12877TIP3   OH260121   1.440   4.292   0.194 -0.1418  0.1984 -0.0818
12877TIP3    H160122   1.410   4.334   0.114  2.1716 -1.5670 -2.0299
12877TIP3    H260123   1.377   4.222   0.210  0.6585 -0.9883 -1.8455
12878TIP3   OH260124   2.667   1.136  13.269 -0.0829 -0.0551  0.0451
12878TIP3    H160125   2.744   1.179  13.307 -0.3570 -0.6635  1.3548
12878TIP3    H260126   2.693   1.044  13.261  0.2291  0.1795 -2.0037
12879TIP3   OH260127   2.635   0.901  15.117  0.3281  0.4231  0.3330
12879TIP3    H160128   2.565   0.907  15.183  0.3096  0.1777  0.3356
12879TIP3    H260129   2.687   0.825  15.144  0.1351  0.1292 -0.1108
12880TIP3   OH260130   1.751   3.924   3.098  0.5731  0.1563 -0.5746
12880TIP3    H160131   1.738   4.013   3.131 -0.6191 -0.3429  0.3525
12880TIP3    H260132   1.675   3.908   3.042 -0.8786 -1.3232  1.6546
12881TIP3   OH260133   4.011   0.368  14.372  0.3136 -0.2722  0.3332
12881TIP3    H160134   3.925   0.374  14.413  0.6891 -0.9248  1.2511
12881TIP3    H260135   4.010   0.281  14.330  0.9505 -0.7892  1.3685
12882TIP3   OH260136   2.806   3.740  12.995 -0.0332  0.1352  0.2376
12882TIP3    H160137   2.738   3.705  13.052  1.4635  0.1077  2.0844
12882TIP3    H260138   2.804   3.683  12.918 -1.2180 -0.6379  0.8079
12883TIP3   OH260139   1.229   3.522  14.906  0.2285  0.2890  0.0782
12883TIP3    H160140   1.137   3.545  14.895 -0.0172  0.6964  2.4836
12883TIP3    H260141   1.237   3.497  14.999  2.3040 -0.8565 -0.3408
12884TIP3   OH260142   6.588   5.455  14.384  0.0745 -0.1303  0.5527
12884TIP3    H160143   6.520   5.399  14.346  0.3271  0.8932 -1.5545
12884TIP3    H260144   6.540   5.532  14.416  0.2301  1.1187 -1.9505
12885TIP3   OH260145   4.963   5.885   2.776 -0.4476 -0.2630 -0.1021
12885TIP3    H160146   4.968   5.917   2.866 -2.6663  0.7636 -0.2746
12885TIP3    H260147   4.894   5.819   2.778  0.0040 -0.7684 -0.9042
12886TIP3   OH260148   1.321   0.395  13.843 -0.3044 -0.0129  0.1735
12886TIP3    H160149   1.302   0.433  13.758 -0.5853 -0.9180 -0.1778
12886TIP3    H260150   1.247   0.420  13.898 -1.2711 -1.3319 -0.4812
12887TIP3   OH260151   6.359   0.470  16.737 -0.1600  0.2915  0.4342
12887TIP3    H160152   6.393   0.413  16.668 -1.0850 -1.1121  1.0853
12887TIP3    H260153   6.322   0.545  16.690 -2.2487 -1.3838 -0.7911
12888TIP3   OH260154   2.334   2.397  14.145  0.2238 -0.0626  0.1786
12888TIP3    H160155   2.409   2.453  14.163  0.3439 -0.5381  1.2369
12888TIP3    H260156   2.364   2.308  14.165 -1.7848  0.0713  5.0744
12889TIP3   OH260157   6.360   3.851   2.868 -0.0146  0.4640  0.1222
12889TIP3    H160158   6.271   3.877   2.844  0.0707  0.1258 -0.5860
12889TIP3    H260159   6.390   3.920   2.928 -0.1463  1.4655 -0.9329
12890TIP3   OH260160   3.074   2.261   5.079  0.2487  0.1903 -0.9325
12890TIP3    H160161   3.076   2.241   5.172 -0.2755 -0.4629 -1.0568
12890TIP3    H260162   3.064   2.176   5.036 -1.5512  0.6335 -1.4869
12891TIP3   OH260163   2.629   5.163  14.069  0.7741 -0.1623  0.0172
12891TIP3    H160164   2.585   5.247  14.055  0.2102 -0.5165 -0.3469
12891TIP3    H260165   2.631   5.122  13.983  0.0042 -1.0344  0.4023
12892TIP3   OH260166   2.420   6.533   4.882 -0.1651 -0.0950 -0.1672
12892TIP3    H160167   2.409   6.517   4.788 -1.8392  0.0755 -0.0286
12892TIP3    H260168   2.505   6.575   4.889 -0.7303  1.4514 -1.8206
12893TIP3   OH260169   4.205   4.075  14.274 -0.2737  0.2191  0.1808
12893TIP3    H160170   4.260   4.005  14.240 -1.3187 -0.8501  0.6553
12893TIP3    H260171   4.202   4.060  14.369 -1.8424 -0.0950  0.1065
12894TIP3   OH260172   5.914   2.832   2.708 -0.2287 -0.2944 -0.1518
12894TIP3    H160173   5.984   2.868   2.654  0.3251 -0.5901  0.3560
12894TIP3    H260174   5.877   2.907   2.754  0.8103 -0.3225  0.7758
12895TIP3   OH260175   1.587   3.446  12.598  0.1601  0.1758  0.2572
12895TIP3    H160176   1.553   3.535  12.590 -2.4689 -0.5130  2.3411
12895TIP3    H260177   1.627   3.443  12.684 -0.7804 -0.9083  0.6845
12896TIP3   OH260178   6.709   0.145  14.197  0.6170 -0.1736  0.1170
12896TIP3    H160179   6.686   0.236  14.180  1.0617 -0.0258  0.2794
12896TIP3    H260180   6.644   0.116  14.261 -0.1103 -0.2648 -0.6499
12897TIP3   OH260181   2.490   0.406  11.592  0.0808  0.5040  0.9325
12897TIP3    H160182   2.488   0.466  11.517 -1.8947 -0.1155  0.4224
12897TIP3    H260183   2.536   0.455  11.660  0.2872  1.8211 -0.0938
12898TIP3   OH260184   6.662   6.036  15.201 -0.4982 -0.4825 -0.1062
12898TIP3    H160185   6.673   6.105  15.136 -0.6201  1.1869  1.5696
12898TIP3    H260186   6.578   6.055  15.243 -0.3969 -1.4755  0.5782
12899TIP3   OH260187   2.948   3.081  11.496 -0.2353  0.3829  0.2889
12899TIP3    H160188   2.897   3.001  11.504  0.8626 -0.5766 -1.4804
12899TIP3    H260189   3.007   3.080  11.572 -0.2723 -0.4696  0.3137
12900TIP3   OH260190   4.597   6.405   0.297 -0.1765  0.0319 -0.3904
12900TIP3    H160191   4.592   6.484   0.351  0.6424 -0.0702 -0.1485
12900TIP3    H260192   4.664   6.424   0.232 -0.4734 -0.2067 -0.7739
12901TIP3   OH260193   4.412   0.281   4.747 -0.4271 -0.3277  0.0743
12901TIP3    H160194   4.459   0.232   4.679 -1.1268 -1.2721  0.2498
12901TIP3    H260195   4.366   0.350   4.699 -0.9188 -0.9901 -0.4276
12902TIP3   OH260196   3.516   6.383   2.547 -0.0128 -0.0093 -0.1006
12902TIP3    H160197   3.566   6.388   2.628  1.0943  1.5849 -0.8306
12902TIP3    H260198   3.527   6.292   2.518 -0.5946 -0.6583  1.5888
12903TIP3   OH260199   0.513   0.009   4.128  0.1440  0.5223  0.5661
12903TIP3    H160200   0.550   0.087   4.169 -0.0240  1.3648 -0.8192
12903TIP3    H260201   0.433   0.040   4.085  0.2808 -0.3156 -0.3315
12904TIP3   OH260202   5.330   5.241  15.083  0.0466  0.6873 -1.4376
12904TIP3    H160203   5.415   5.285  15.094  0.7607 -0.8474 -0.4889
12904TIP3    H260204   5.306   5.213  15.171 -1.8591  1.7402 -1.5601
12905TIP3   OH260205   5.341   0.603  13.128 -0.1150  0.5529  0.2725
12905TIP3    H160206   5.300   0.663  13.065 -0.7726  1.3121  1.3792
12905TIP3    H260207   5.358   0.523  13.078 -0.7574  1.0752 -0.8199
12906TIP3   OH260208   5.633   2.089  14.959  0.0985 -0.1955 -0.3960
12906TIP3    H160209   5.553   2.042  14.936 -0.3248 -0.4973  1.5267
12906TIP3    H260210   5.615   2.180  14.935 -1.4031 -0.0030  1.2038
12907TIP3   OH260211   0.467   0.467   4.914 -0.2578  0.2102 -0.3031
12907TIP3    H160212   0.555   0.501   4.894  0.2379 -0.1025  1.2112
12907TIP3    H260213   0.446   0.412   4.839  0.8979  0.1911 -0.6383
12908TIP3   OH260214   3.989   6.265   0.549 -0.3209 -0.5807 -0.2305
12908TIP3    H160215   4.023   6.339   0.499 -0.6062 -1.1055 -1.2436
12908TIP3    H260216   4.043   6.191   0.521 -0.1853 -0.8111  0.6029
12909TIP3   OH260217   5.046   4.760   4.937  0.1131  0.3640 -0.1527
12909TIP3    H160218   5.107   4.828   4.967 -0.0195  0.0167  0.9616
12909TIP3    H260219   5.092   4.717   4.865  0.0932  1.7831 -1.0518
12910TIP3   OH260220   4.533   2.866  15.840  0.4098  0.2558  0.3414
12910TIP3    H160221   4.506   2.957  15.858  0.6845  0.8373 -1.8575
12910TIP3    H260222   4.613   2.875  15.788  0.1564 -1.2326 -0.3477
12911TIP3   OH260223   6.326   4.142  11.468 -0.1658  0.1467 -0.3988
12911TIP3    H160224   6.355   4.057  11.502  0.1668 -0.2398 -1.6320
12911TIP3    H260225   6.258   4.121  11.405  0.8489  0.6972 -1.7139
12912TIP3   OH260226   6.739   3.378  13.136  0.3352  0.3690  0.0747
12912TIP3    H160227   6.653   3.337  13.150 -0.6546  2.6872  1.3302
12912TIP3    H260228   6.785   3.365  13.219  1.7462 -1.8311 -0.9410
12913TIP3   OH260229   2.693   0.872  13.245  0.1597 -0.4621 -0.2616
12913TIP3    H160230   2.689   0.804  13.178  0.6499 -1.1741  0.4186
12913TIP3    H260231   2.766   0.846  13.301 -0.0558  0.2888  0.3759
12914TIP3   OH260232   1.773   3.458  11.652  0.4390 -0.0515  0.5988
12914TIP3    H160233   1.710   3.501  11.595  0.2639 -1.6194 -0.4628
12914TIP3    H260234   1.785   3.519  11.725  0.9288  2.1889 -1.2392
12915TIP3   OH260235   3.122   0.258  15.654 -0.2372 -0.0137 -1.0335
12915TIP3    H160236   3.036   0.219  15.636  0.2274 -2.2596  1.1285
12915TIP3    H260237   3.108   0.312  15.732  0.1529  0.2350 -1.1347
12916TIP3   OH260238   2.674   1.721   2.296  0.1872  0.2193  0.0519
12916TIP3    H160239   2.734   1.762   2.357 -1.1671  0.5202  1.2446
12916TIP3    H260240   2.634   1.650   2.346 -1.0146  0.5201 -0.4386
12917TIP3   OH260241   0.651   0.715   6.203  0.2871  0.2333 -0.3887
12917TIP3    H160242   0.746   0.719   6.202  0.3291 -0.6487 -0.7346
12917TIP3    H260243   0.623   0.805   6.218  1.2046  0.1741  2.1711
12918TIP3   OH260244   4.702   1.426  12.105 -0.1771  0.5936  0.1782
12918TIP3    H160245   4.626   1.385  12.062 -0.5003 -0.4709  1.6766
12918TIP3    H260246   4.758   1.352  12.130  1.7129  1.3832 -1.4307
12919TIP3   OH260247   6.060   1.011   0.567 -0.0137 -0.0145  0.1500
12919TIP3    H160248   6.070   0.917   0.584  0.9341  0.0788  0.1470
12919TIP3    H260249   6.140   1.036   0.522 -0.4542  0.7143 -0.2371
12920TIP3   OH260250   3.927   6.690   3.249 -0.1670  0.4039 -0.0253
12920TIP3    H160251   3.930   6.611   3.195  1.0829  2.3383 -3.0582
12920TIP3    H260252   3.896   6.758   3.190 -1.5417  2.2166  2.5604
12921TIP3   OH260253   1.586   6.156   1.369 -0.0522  0.2640  0.0806
12921TIP3    H160254   1.554   6.215   1.301 -0.4039  1.5503  1.3164
12921TIP3    H260255   1.664   6.200   1.403 -1.0577  0.7231  1.9182
12922TIP3   OH260256   1.819   0.568  12.226 -0.5944 -0.3462  0.7770
12922TIP3    H160257   1.905   0.604  12.248 -0.5357  1.4322 -1.9621
12922TIP3    H260258   1.838   0.481  12.192 -0.1707 -0.8921  2.3089
12923TIP3   OH260259   5.050   0.152  13.981 -0.1951  0.3036 -0.0508
12923TIP3    H160260   4.982   0.145  14.049 -0.3139  0.1335 -0.1856
12923TIP3    H260261   5.080   0.242  13.986 -0.2524  0.3101  0.1845
12924TIP3   OH260262   6.211   0.763   6.701  0.4265  0.0611 -0.1185
12924TIP3    H160263   6.125   0.726   6.720 -0.4018  2.0691  0.3042
12924TIP3    H260264   6.237   0.722   6.619  0.1764 -2.3480  0.9325
12925TIP3   OH260265   5.610   1.951   3.708  0.0300 -0.2215  0.5270
12925TIP3    H160266   5.682   1.887   3.705 -0.1499 -0.4144  0.1252
12925TIP3    H260267   5.597   1.968   3.801 -0.4312 -1.3732  0.7013
12926TIP3   OH260268   2.990   5.242   1.322  0.2320  0.0652  0.0643
12926TIP3    H160269   2.914   5.258   1.379 -0.3046 -0.2651 -0.5412
12926TIP3    H260270   3.025   5.329   1.303 -1.5358  0.4626 -1.7014
12927TIP3   OH260271   2.198   6.128   0.356  0.0992  0.7201 -0.4469
12927TIP3    H160272   2.249   6.197   0.314  0.1110  0.7456 -0.3911
12927TIP3    H260273   2.253   6.098   0.428 -0.4318  1.5382  0.3290
12928TIP3   OH260274   1.095   4.007  17.156 -0.0884 -0.3644 -0.6900
12928TIP3    H160275   1.032   3.944  17.190  0.1084  0.2891  0.9821
12928TIP3    H260276   1.178   3.984  17.199 -0.2866  1.7862  1.0365
12929TIP3   OH260277   3.973   0.423  10.953  0.2518 -0.0007 -0.4914
12929TIP3    H160278   4.049   0.371  10.978 -0.1417  0.2799  1.3956
12929TIP3    H260279   4.004   0.514  10.957 -0.2299  0.1263  0.5013
12930TIP3   OH260280   1.029   6.405   5.028 -0.1092  0.1598  0.5045
12930TIP3    H160281   1.092   6.471   5.057  0.3812 -0.7352  1.5400
12930TIP3    H260282   1.039   6.404   4.933  0.3444  1.1018  0.5194
12931TIP3   OH260283   4.168   3.606   6.135 -0.1017  0.1413 -0.0101
12931TIP3    H160284   4.195   3.565   6.053 -3.0138 -2.0212 -0.0549
12931TIP3    H260285   4.086   3.651   6.114 -1.0472 -0.6547  1.6998
12932TIP3   OH260286   4.808   5.934  13.029  1.0620  0.2970  0.4229
12932TIP3    H160287   4.743   5.932  12.959 -0.6258 -1.3469  1.9200
12932TIP3    H260288   4.760   5.967  13.106  2.2516  0.0003  1.3287
12933TIP3   OH260289   5.038   0.200  11.902 -0.6062 -0.0061  0.3433
12933TIP3    H160290   5.057   0.205  11.996 -1.0068 -0.9294  0.4866
12933TIP3    H260291   4.952   0.239  11.892 -0.2689  0.7254  0.2528
12934TIP3   OH260292   1.669   1.596   3.880  0.3591 -0.1768 -0.4625
12934TIP3    H160293   1.586   1.586   3.833  0.7187  0.3963 -1.2309
12934TIP3    H260294   1.658   1.543   3.959 -1.1767  0.8223  0.0249
12935TIP3   OH260295   1.523   2.041  12.973  0.0326 -0.5753 -0.0748
12935TIP3    H160296   1.503   2.037  12.879 -0.0679  3.0348 -0.3363
12935TIP3    H260297   1.441   2.067  13.014  0.6742  0.3724  0.6595
12936TIP3   OH260298   0.165   1.736  14.465  0.2577  0.2722 -0.2317
12936TIP3    H160299   0.082   1.780  14.485  0.7504  1.1156 -0.0226
12936TIP3    H260300   0.233   1.797  14.492  0.9656 -0.5075 -0.1849
12937TIP3   OH260301   5.599   4.301   4.935 -0.1540  0.1229  0.5920
12937TIP3    H160302   5.590   4.247   5.014 -1.6144 -0.5495  0.0141
12937TIP3    H260303   5.552   4.252   4.867 -0.1755  1.3730 -0.3333
12938TIP3   OH260304   4.360   5.598  14.763  0.5716 -0.5397 -0.1049
12938TIP3    H160305   4.327   5.680  14.727 -0.2258 -0.7416  0.1551
12938TIP3    H260306   4.359   5.612  14.858  1.1150 -0.6016 -0.0826
12939TIP3   OH260307   1.188   5.138   3.392 -0.2456  0.2739  0.9321
12939TIP3    H160308   1.268   5.191   3.389 -0.2684  0.3220 -2.2773
12939TIP3    H260309   1.130   5.178   3.327 -1.8728 -1.2881  1.3420
12940TIP3   OH260310   4.419   3.990  13.599  0.1477  0.2873  0.0297
12940TIP3    H160311   4.446   4.059  13.659  0.9946 -0.4396  0.5263
12940TIP3    H260312   4.429   3.909  13.650 -0.8486 -0.1996 -0.5225
12941TIP3   OH260313   0.975   3.903  13.438  0.8965 -0.2450 -0.0036
12941TIP3    H160314   1.004   3.922  13.527 -0.1408 -0.9388  0.5000
12941TIP3    H260315   0.981   3.808  13.431  0.5734 -0.2295 -0.5285
12942TIP3   OH260316   0.340   5.220   1.643 -0.1417 -0.2315  0.0317
12942TIP3    H160317   0.300   5.154   1.586 -1.7386 -2.4188  3.3249
12942TIP3    H260318   0.266   5.274   1.672  0.4575  0.3022  0.6033
12943TIP3   OH260319   0.461   3.588  13.472  0.4599 -0.3594  0.0585
12943TIP3    H160320   0.399   3.661  13.472  1.0585  0.1620  0.6806
12943TIP3    H260321   0.544   3.627  13.443  0.3640 -1.1803 -1.3906
12944TIP3   OH260322   4.944   2.271  16.313 -0.5584  0.6101  0.5196
12944TIP3    H160323   4.923   2.265  16.219 -0.4305 -2.8452  0.5778
12944TIP3    H260324   4.860   2.285  16.355 -0.7648  1.0831 -0.0285
12945TIP3   OH260325   3.617   6.162  13.177  0.2111  0.0572 -0.4247
12945TIP3    H160326   3.688   6.181  13.115  0.7620  1.8385  0.6785
12945TIP3    H260327   3.661   6.160  13.263 -0.6336 -1.7144  0.0054
12946TIP3   OH260328   0.563   6.647   3.497  0.4858  0.0674 -0.3282
12946TIP3    H160329   0.552   6.643   3.592  1.6635 -1.4695 -0.2224
12946TIP3    H260330   0.571   6.556   3.469 -3.4844  0.1489 -2.4462
12947TIP3   OH260331   2.177   2.027  13.244 -0.0128  0.0752  0.4045
12947TIP3    H160332   2.095   1.997  13.206  0.8073 -1.0014 -0.5998
12947TIP3    H260333   2.176   2.122  13.232 -0.2708 -0.1213 -1.3515
12948TIP3   OH260334   2.916   4.160  16.129 -0.1901  0.1414 -0.0075
12948TIP3    H160335   2.929   4.113  16.212  1.3156  1.1330  0.3656
12948TIP3    H260336   2.979   4.122  16.069  1.0288  1.5714  0.2903
12949TIP3   OH260337   6.481   2.294   5.747  0.0008 -0.6691 -0.3763
12949TIP3    H160338   6.438   2.369   5.788 -1.0967 -1.1138 -0.6801
12949TIP3    H260339   6.411   2.231   5.731  0.8562 -1.6848 -0.3297
12950TIP3   OH260340   5.513   5.333  12.905 -0.2747 -0.4446 -0.3785
12950TIP3    H160341   5.540   5.416  12.943 -0.3017 -0.1900 -0.8970
12950TIP3    H260342   5.500   5.353  12.812  0.6789 -1.2637 -0.6957
12951TIP3   OH260343   6.467   3.039  15.124 -0.2105  0.6676  0.1672
12951TIP3    H160344   6.467   3.134  15.136 -1.3507  0.6122  0.7013
12951TIP3    H260345   6.544   3.008  15.172 -0.1306  1.2652  0.4315
12952TIP3   OH260346   4.737   1.665  12.241  0.4510 -0.1806 -0.0560
12952TIP3    H160347   4.726   1.587  12.187  0.5780 -0.5010  0.3791
12952TIP3    H260348   4.771   1.632  12.324  1.2415  0.4204 -0.1313
12953TIP3   OH260349   5.845   4.498   2.727 -0.3587  0.4221 -0.0311
12953TIP3    H160350   5.780   4.480   2.794  1.8075 -1.0491  1.8251
12953TIP3    H260351   5.872   4.411   2.696  1.8591  0.8698  0.4705
12954TIP3   OH260352   0.728   1.980  12.161  0.2932  0.1203  0.2328
12954TIP3    H160353   0.720   1.924  12.238 -2.2538  0.9182  0.6555
12954TIP3    H260354   0.684   1.932  12.092  0.4718  0.4334 -0.1026
12955TIP3   OH260355   1.848   0.915   3.548  0.1386 -0.7178  0.4836
12955TIP3    H160356   1.758   0.891   3.528  0.5234 -0.7737 -1.3227
12955TIP3    H260357   1.857   0.896   3.642 -1.8326 -0.2820  0.8050
12956TIP3   OH260358   3.971   5.821   5.772 -0.3658 -0.9637 -0.9839
12956TIP3    H160359   3.908   5.847   5.705 -0.0286  2.3572 -0.1532
12956TIP3    H260360   4.057   5.836   5.732 -0.1568  1.6277  0.2675
12957TIP3   OH260361   4.984   1.487   0.873 -0.0368  0.2276  0.2246
12957TIP3    H160362   4.986   1.518   0.782 -0.8354  1.5086  0.6145
12957TIP3    H260363   4.939   1.403   0.869 -0.2826  0.3885 -0.5518
12958TIP3   OH260364   3.223   6.162  16.745 -0.2166 -0.1259  0.1578
12958TIP3    H160365   3.141   6.197  16.710  0.5384  0.3289 -1.2351
12958TIP3    H260366   3.225   6.193  16.836 -1.5316 -0.0617  0.1819
12959TIP3   OH260367   2.667   0.591   2.168 -0.2948 -0.3183 -0.7556
12959TIP3    H160368   2.576   0.562   2.173 -0.4003  0.0219 -0.7038
12959TIP3    H260369   2.707   0.531   2.105  0.5578 -3.3955  2.3632
12960TIP3   OH260370   2.516   2.839   4.515 -0.5489 -0.3745  0.1195
12960TIP3    H160371   2.457   2.824   4.589 -0.4820 -2.0621 -0.1312
12960TIP3    H260372   2.464   2.888   4.452 -0.1803  2.3934  1.8052
12961TIP3   OH260373   0.761   5.989  12.934  0.5901 -0.1148  0.5303
12961TIP3    H160374   0.715   6.032  13.006  0.4398  0.8983 -0.1438
12961TIP3    H260375   0.729   6.033  12.855  1.9114 -0.1183 -0.0426
12962TIP3   OH260376   3.360   1.983  14.681 -0.0727 -0.2892  0.2072
12962TIP3    H160377   3.339   2.052  14.744  2.3728  1.9448 -1.2105
12962TIP3    H260378   3.455   1.971  14.690  0.1321 -0.8320 -2.1140
12963TIP3   OH260379   3.940   6.699  11.978 -0.1512 -0.3933 -0.0447
12963TIP3    H160380   3.979   6.776  12.019 -1.5274 -0.3156  1.1849
12963TIP3    H260381   3.946   6.717  11.884 -0.2631  1.1213  0.2118
12964TIP3   OH260382   4.230   4.841   5.252 -0.7445  0.0706  0.0063
12964TIP3    H160383   4.322   4.820   5.237 -0.8955 -0.5394 -0.0798
12964TIP3    H260384   4.228   4.936   5.262 -0.4610  0.4017 -2.5661
12965TIP3   OH260385   3.329   0.469   0.176  0.0255 -0.2222 -1.0530
12965TIP3    H160386   3.358   0.437   0.090  1.6232 -2.1892  0.1132
12965TIP3    H260387   3.342   0.394   0.235 -1.0024  1.0627  0.9196
12966TIP3   OH260388   5.488   2.562  14.830 -0.3854 -0.0500  0.7744
12966TIP3    H160389   5.531   2.640  14.866 -0.1336  0.2730 -0.1914
12966TIP3    H260390   5.460   2.589  14.742  0.4411 -1.3008  0.1076
12967TIP3   OH260391   5.259   5.626  14.204  0.1225  0.3124 -0.4014
12967TIP3    H160392   5.341   5.581  14.187  0.5232  0.2205  1.5892
12967TIP3    H260393   5.191   5.567  14.171  0.7950 -0.1419 -0.9827
12968TIP3   OH260394   5.823   2.373  12.531  0.0296 -0.4563  0.5313
12968TIP3    H160395   5.806   2.359  12.438 -0.5267 -0.1517  0.5805
12968TIP3    H260396   5.851   2.464  12.537  1.1553 -0.7884  0.5280
12969TIP3   OH260397   5.771   2.205   6.216 -0.2896 -0.0445 -0.0547
12969TIP3    H160398   5.846   2.213   6.158 -1.0276  1.7005 -0.8428
12969TIP3    H260399   5.802   2.239   6.300 -0.1332  0.5029 -0.3274
12970TIP3   OH260400   5.023   5.144   4.371  0.0309  0.0449 -0.1282
12970TIP3    H160401   4.947   5.154   4.428  0.5601 -0.7591  0.7501
12970TIP3    H260402   5.023   5.051   4.347 -0.4685  0.4606 -1.8724
12971TIP3   OH260403   2.558   0.385  15.526 -0.2825  0.6875  0.3804
12971TIP3    H160404   2.553   0.292  15.548  1.2069 -0.1169 -2.2387
12971TIP3    H260405   2.467   0.414  15.528 -0.9775 -1.2386 -0.1562
12972TIP3   OH260406   1.156   4.302   1.751 -0.2306 -0.2234  0.3267
12972TIP3    H160407   1.083   4.337   1.700 -0.8988 -3.6568 -1.3550
12972TIP3    H260408   1.231   4.354   1.724 -1.3199  0.6622 -1.1182
12973TIP3   OH260409   1.468   5.584   0.514 -0.2712  0.0825 -0.1360
12973TIP3    H160410   1.389   5.566   0.565  0.6626 -0.3140  1.2281
12973TIP3    H260411   1.503   5.666   0.551  0.5561 -0.3481  0.0767
12974TIP3   OH260412   1.422   0.385  17.404 -0.2995  0.5294 -0.6429
12974TIP3    H160413   1.352   0.374  17.469 -1.3679  2.6585 -1.3333
12974TIP3    H260414   1.481   0.449  17.442 -0.2038  0.7743 -1.1889
12975TIP3   OH260415   5.279   4.455  13.956  0.2844  0.0823 -0.3517
12975TIP3    H160416   5.247   4.499  13.877  1.7021 -1.6279 -1.9717
12975TIP3    H260417   5.318   4.526  14.007  1.8283  0.9268 -2.5196
12976TIP3   OH260418   1.060   6.570  15.420  0.0428 -0.3350  0.6728
12976TIP3    H160419   1.123   6.538  15.355 -0.3569  0.3491 -0.0612
12976TIP3    H260420   0.983   6.595  15.369  0.1531  1.3020  1.2594
12977TIP3   OH260421   5.527   3.710   2.891  0.1879  0.4840  0.0404
12977TIP3    H160422   5.473   3.758   2.829  0.8283 -0.9153 -1.6817
12977TIP3    H260423   5.603   3.766   2.907  0.3706  0.5552 -1.0396
12978TIP3   OH260424   2.021   3.807  11.324  0.3918 -0.0216 -0.5646
12978TIP3    H160425   1.952   3.748  11.354 -0.6713  1.2075 -0.5026
12978TIP3    H260426   2.026   3.874  11.392  0.4726  0.8147 -1.3813
12979TIP3   OH260427   5.479   1.979  11.432  0.2710 -0.3258  0.4447
12979TIP3    H160428   5.429   2.034  11.493  0.7548 -0.4326  0.9512
12979TIP3    H260429   5.545   2.038  11.395  1.0745 -0.6389  1.3181
12980TIP3   OH260430   4.624   0.234   2.158  0.0322  0.1720  0.2105
12980TIP3    H160431   4.670   0.212   2.239 -4.0391  1.4964  3.2244
12980TIP3    H260432   4.625   0.329   2.154 -2.7666  0.3112  0.7924
12981TIP3   OH260433   1.800   6.699   3.264  0.2338  0.1125 -0.0998
12981TIP3    H160434   1.791   6.654   3.181 -0.0951 -0.7382  0.3851
12981TIP3    H260435   1.831   6.632   3.325 -0.9903  0.3372  0.8184
12982TIP3   OH260436   4.878   0.620   2.837 -0.4756  0.2328  0.1884
12982TIP3    H160437   4.873   0.534   2.879  3.1764  0.0940  0.6974
12982TIP3    H260438   4.845   0.606   2.748 -0.5540 -1.5458  0.4696
12983TIP3   OH260439   4.447   0.004  12.647  0.1206 -0.1974 -0.1399
12983TIP3    H160440   4.459  -0.090  12.638 -0.2885 -0.1090 -2.1186
12983TIP3    H260441   4.501   0.042  12.577 -1.5698  0.8786 -0.9344
12984TIP3   OH260442   6.659   3.234  12.003 -0.1903 -0.2027  0.3842
12984TIP3    H160443   6.616   3.220  11.919  1.1133  0.3217 -0.3980
12984TIP3    H260444   6.614   3.310  12.041  0.8629  1.2074 -1.0416
12985TIP3   OH260445   1.801   2.636  10.739  0.0270  0.2039  0.4228
12985TIP3    H160446   1.771   2.709  10.793 -0.4411 -0.4218  1.0179
12985TIP3    H260447   1.721   2.595  10.707  0.2919  0.2510 -0.3234
12986TIP3   OH260448   4.726   6.248   1.252  0.5885  0.7077 -0.8859
12986TIP3    H160449   4.635   6.264   1.280  0.4399  1.9829 -1.9919
12986TIP3    H260450   4.760   6.187   1.317 -0.1940  2.3827  1.2179
12987TIP3   OH260451   0.350   2.352   6.187  0.4642  0.2615  0.6423
12987TIP3    H160452   0.377   2.411   6.257  1.5092  0.8654 -0.2387
12987TIP3    H260453   0.256   2.367   6.177  0.5513  1.1068  1.0375
12988TIP3   OH260454   2.833   4.516   1.594  0.0952 -0.1969  0.3870
12988TIP3    H160455   2.774   4.591   1.600 -0.9040 -1.0228  1.2586
12988TIP3    H260456   2.879   4.515   1.678  1.1969  0.2836 -0.1825
12989TIP3   OH260457   6.442   6.410   1.417 -0.1238  0.1127 -0.4400
12989TIP3    H160458   6.435   6.472   1.345  2.7011  2.8660  1.4258
12989TIP3    H260459   6.400   6.453   1.491 -0.1252 -1.2266  0.3774
12990TIP3   OH260460   2.266   3.964  14.196 -0.3633 -0.3046 -0.3681
12990TIP3    H160461   2.341   3.998  14.245  0.2280 -0.5445 -1.0817
12990TIP3    H260462   2.198   3.951  14.261  0.2434 -0.1523  0.3042
12991TIP3   OH260463   0.161   1.927  14.777 -0.0552  0.4012  0.2557
12991TIP3    H160464   0.139   2.013  14.814 -1.0989  0.5685 -0.7061
12991TIP3    H260465   0.083   1.874  14.791 -0.2470  0.2867 -1.1329
12992TIP3   OH260466   4.498   2.997  13.691 -0.6549 -0.1802  0.3027
12992TIP3    H160467   4.554   2.965  13.620  0.0515  0.8884  0.3548
12992TIP3    H260468   4.515   2.938  13.764  1.3695  0.8115  0.7072
12993TIP3   OH260469   6.109   2.006  15.159 -0.2517  0.0241 -0.0037
12993TIP3    H160470   6.147   1.985  15.074  1.0449  0.9743  0.3128
12993TIP3    H260471   6.015   2.016  15.141 -0.4854 -2.7514 -0.7204
12994TIP3   OH260472   2.006   5.845  14.918  0.5422  0.3850  0.3609
12994TIP3    H160473   1.986   5.895  14.998 -1.3202  0.7938 -0.3091
12994TIP3    H260474   1.954   5.888  14.850  2.5926  0.4588 -1.2471
12995TIP3   OH260475   1.315   1.498   2.714 -0.2134 -0.2368  0.0230
12995TIP3    H160476   1.358   1.551   2.647  0.8028 -0.0622  0.8038
12995TIP3    H260477   1.384   1.445   2.752 -1.0398 -1.4079 -0.0437
12996TIP3   OH260478   1.889   4.269   0.965 -0.0107 -0.1165 -0.6449
12996TIP3    H160479   1.820   4.326   0.999 -0.0041 -0.9507  0.8293
12996TIP3    H260480   1.962   4.329   0.948 -0.0483  0.3586  0.7554
12997TIP3   OH260481   4.274   3.933   3.225 -0.0766  0.0174 -0.0513
12997TIP3    H160482   4.251   3.955   3.135 -0.6889 -0.6230 -0.0560
12997TIP3    H260483   4.346   3.992   3.246  0.1428  0.1053 -0.9942
12998TIP3   OH260484   1.242   5.035  15.163 -0.1697  0.4985 -0.3093
12998TIP3    H160485   1.281   5.063  15.246  0.8762  1.0206 -0.9518
12998TIP3    H260486   1.154   5.074  15.163 -0.6146 -0.4508  1.0338
12999TIP3   OH260487   1.683   3.519  14.355 -0.3055 -0.1819 -0.1805
12999TIP3    H160488   1.720   3.431  14.362  1.7848  0.3748 -2.8719
12999TIP3    H260489   1.606   3.508  14.299  0.5948 -0.1997 -1.4612
13000TIP3   OH260490   1.408   4.847   5.283  0.8681 -0.0643  0.1209
13000TIP3    H160491   1.348   4.824   5.354  1.5245  0.9757  1.0449
13000TIP3    H260492   1.496   4.837   5.322  1.2543 -0.0558 -0.7311
13001TIP3   OH260493   0.669   0.071  13.862  0.2486  0.3617 -0.2325
13001TIP3    H160494   0.656   0.152  13.812  1.4475  0.6488 -0.1187
13001TIP3    H260495   0.757   0.043  13.839  0.8798  0.5343  1.7451
13002TIP3   OH260496   4.099   6.573   1.113  0.5131  0.0067  0.3297
13002TIP3    H160497   4.143   6.579   1.028  1.0894 -0.0079  0.6218
13002TIP3    H260498   4.025   6.515   1.097 -0.4262  1.3993 -0.5826
13003TIP3   OH260499   4.585   3.192   3.926  0.2072 -0.4827  0.5674
13003TIP3    H160500   4.643   3.153   3.860 -0.0975 -0.7392  0.4461
13003TIP3    H260501   4.499   3.195   3.883  0.6829  2.6412 -0.3681
13004TIP3   OH260502   1.017   5.093  15.716  0.0089  0.1914 -0.0301
13004TIP3    H160503   1.028   4.998  15.723  1.3817  0.3360 -0.0752
13004TIP3    H260504   1.106   5.127  15.706 -0.5824  1.3260 -1.9069
13005TIP3   OH260505   4.797   2.330   2.556 -0.2267  0.3476 -0.4635
13005TIP3    H160506   4.865   2.370   2.611 -0.6989  2.9031 -1.5877
13005TIP3    H260507   4.719   2.383   2.572 -1.0270 -0.3833 -1.7611
13006TIP3   OH260508   0.195   0.562   0.164 -0.1982  0.5425  0.2430
13006TIP3    H160509   0.165   0.637   0.215 -1.6725  1.6116 -2.0090
13006TIP3    H260510   0.253   0.600   0.098 -0.7796 -0.2790 -0.7793
13007TIP3   OH260511   6.641   0.114   1.595 -0.7938  0.1939 -0.1236
13007TIP3    H160512   6.607   0.056   1.527  0.0223 -0.1630 -0.2362
13007TIP3    H260513   6.629   0.064   1.676  2.4363 -1.4180 -0.4673
13008TIP3   OH260514   1.279   0.432   0.538  0.3724  0.2568  0.0257
13008TIP3    H160515   1.356   0.397   0.583  0.1910  0.3125  0.3876
13008TIP3    H260516   1.205   0.405   0.593  0.1220  0.1013 -0.3793
13009TIP3   OH260517   0.045   0.130   0.747 -0.2126 -0.6071 -0.0003
13009TIP3    H160518   0.111   0.064   0.727 -0.6786 -1.2320  0.4928
13009TIP3    H260519   0.033   0.124   0.842  0.1726  0.6055  0.1394
13010TIP3   OH260520   4.782   3.437  12.539  0.7171  0.1293  0.5404
13010TIP3    H160521   4.870   3.451  12.504  0.3490 -0.0748 -0.4966
13010TIP3    H260522   4.762   3.518  12.586  0.9992  0.6393 -0.2030
13011TIP3   OH260523   5.560   0.200   6.083  0.3082  0.1482 -0.7120
13011TIP3    H160524   5.587   0.254   6.157  1.5972 -0.7961 -0.4684
13011TIP3    H260525   5.500   0.136   6.121 -0.0125  0.4420 -0.7198
13012TIP3   OH260526   5.883   5.018  15.551 -0.2997  0.4061 -0.0808
13012TIP3    H160527   5.825   4.959  15.599  1.9988 -1.8946  0.0041
13012TIP3    H260528   5.835   5.038  15.470 -1.2646 -1.3632  0.0130
13013TIP3   OH260529   0.707   3.575   1.586 -0.5825 -0.0629 -0.9346
13013TIP3    H160530   0.770   3.645   1.573 -0.3494 -0.2325 -0.7300
13013TIP3    H260531   0.666   3.563   1.501 -1.2939  0.9610 -0.7526
13014TIP3   OH260532   2.419   0.602  17.281 -0.0418  0.1934 -0.2794
13014TIP3    H160533   2.326   0.600  17.307  0.1307  0.0693  0.3441
13014TIP3    H260534   2.454   0.518  17.312  0.1260 -0.0509 -1.1095
13015TIP3   OH260535   2.134   4.196   0.774  0.2128 -0.2062  0.1613
13015TIP3    H160536   2.147   4.131   0.705 -0.4960  0.3094 -0.4797
13015TIP3    H260537   2.181   4.162   0.849  0.0688 -1.3347 -0.2495
13016TIP3   OH260538   3.501   0.101  14.473 -0.3621  0.3978 -0.0939
13016TIP3    H160539   3.474   0.018  14.511 -0.7536  0.7343  0.3682
13016TIP3    H260540   3.422   0.154  14.471 -0.5316  0.1709 -1.9996
13017TIP3   OH260541   5.410   2.595  11.560 -0.0524  0.5678 -0.3967
13017TIP3    H160542   5.442   2.623  11.646  0.0156 -0.6738  0.0047
13017TIP3    H260543   5.464   2.519  11.538 -1.6394 -0.6088 -0.4252
13018TIP3   OH260544   4.694   4.330   5.420  0.1509  0.1484  0.3925
13018TIP3    H160545   4.755   4.403   5.413  0.6285 -0.1587  1.1679
13018TIP3    H260546   4.622   4.364   5.473  0.6138 -0.0742  1.1897
13019TIP3   OH260547   5.556   0.251   1.904  0.3369  0.3105 -0.4293
13019TIP3    H160548   5.594   0.193   1.971 -1.5022 -2.3965 -1.5797
13019TIP3    H260549   5.505   0.314   1.954  0.6485 -0.3727  0.8039
13020TIP3   OH260550   5.901   6.725   0.405  0.2306 -0.4594 -0.1761
13020TIP3    H160551   5.952   6.787   0.354  0.2148 -0.6452 -0.4165
13020TIP3    H260552   5.956   6.647   0.410 -0.2722 -0.8650 -0.9247
13021TIP3   OH260553   0.634   0.103   0.877  0.7601  0.5275 -0.8716
13021TIP3    H160554   0.629   0.021   0.928  0.3257  1.0507 -0.0569
13021TIP3    H260555   0.561   0.098   0.816  0.9033  0.1760 -1.0165
13022TIP3   OH260556   5.869   2.825  14.792 -0.0690  0.1164 -0.2692
13022TIP3    H160557   5.805   2.798  14.726  1.1705 -3.1716 -0.3107
13022TIP3    H260558   5.953   2.821  14.747  0.4605  1.6139  0.5253
13023TIP3   OH260559   6.112   5.701  11.904 -0.5402 -0.0466  0.4472
13023TIP3    H160560   6.132   5.685  11.812 -1.4055  1.0891  0.0480
13023TIP3    H260561   6.046   5.635  11.926 -0.8917  0.1704  0.0399
13024TIP3   OH260562   2.269   5.396   1.068  0.6236  0.4516 -0.4795
13024TIP3    H160563   2.245   5.304   1.072  1.0506  0.3943  1.6906
13024TIP3    H260564   2.191   5.443   1.096  0.3558  0.8073 -1.7294
13025TIP3   OH260565   4.573   6.779   5.479  0.2655  0.0340 -0.5119
13025TIP3    H160566   4.559   6.685   5.468  1.2848 -0.1000 -0.7807
13025TIP3    H260567   4.579   6.813   5.389  0.4110  0.2752 -0.4105
13026TIP3   OH260568   3.688   3.250  14.738 -0.0122 -0.1792 -0.4416
13026TIP3    H160569   3.723   3.182  14.796 -0.9306 -1.1636 -1.0009
13026TIP3    H260570   3.669   3.324  14.796  2.5100  0.2467 -0.0513
13027TIP3   OH260571   0.179   5.393   1.124  0.2223 -0.3000  0.2074
13027TIP3    H160572   0.085   5.398   1.107  0.3728  1.1229 -0.3798
13027TIP3    H260573   0.218   5.380   1.037  0.6489  0.6242  0.2548
13028TIP3   OH260574   5.368   5.593   0.175  0.4463 -0.5364  0.5521
13028TIP3    H160575   5.420   5.659   0.222  0.2210 -0.2765  0.4360
13028TIP3    H260576   5.410   5.586   0.089  0.4244 -0.4920  0.5379
13029TIP3   OH260577   1.757   1.148  13.263  0.3845  0.0998  0.1734
13029TIP3    H160578   1.804   1.085  13.209 -2.2957 -1.5544 -0.3772
13029TIP3    H260579   1.822   1.217  13.280  2.9719 -1.9959 -0.4911
13030TIP3   OH260580   4.186   3.950  13.415  0.1115  0.4122 -0.1143
13030TIP3    H160581   4.229   4.007  13.479 -1.0659  1.3687 -0.1288
13030TIP3    H260582   4.253   3.887  13.390  2.0065  2.6749 -1.2328
13031TIP3   OH260583   6.445   6.645   3.515  0.9407  0.1027 -0.6226
13031TIP3    H160584   6.391   6.634   3.593  2.3054  1.2749  0.5365
13031TIP3    H260585   6.419   6.730   3.479 -0.0888 -0.6771 -1.8329
13032TIP3   OH260586   1.816   0.155  14.965  0.2746 -0.0220  0.0694
13032TIP3    H160587   1.810   0.136  15.059 -1.0538  1.2427  0.2650
13032TIP3    H260588   1.852   0.243  14.961 -0.4634  0.2617 -0.5638
13033TIP3   OH260589   0.437   0.976  11.170  1.0933  0.2168 -0.3232
13033TIP3    H160590   0.386   0.937  11.241  2.6726 -3.4313 -0.9623
13033TIP3    H260591   0.481   1.050  11.211 -0.5550  0.2306  1.5921
13034TIP3   OH260592   5.130   3.196  12.246 -0.5453  0.2866 -0.3959
13034TIP3    H160593   5.184   3.134  12.197 -0.5439 -0.4426  0.5040
13034TIP3    H260594   5.193   3.245  12.300 -0.4545  1.6615 -1.7022
13035TIP3   OH260595   2.005   6.226   0.988  0.7832  0.1867  0.0178
13035TIP3    H160596   1.960   6.158   1.039 -1.4302  1.0897 -0.6186
13035TIP3    H260597   2.025   6.184   0.905 -0.2969  0.2006 -0.2600
13036TIP3   OH260598   2.883   3.077   1.322  0.0030  0.0379  0.2178
13036TIP3    H160599   2.849   3.061   1.234 -0.7058 -0.2645  0.5336
13036TIP3    H260600   2.962   3.129   1.309  1.0040 -1.6431 -0.7153
13037TIP3   OH260601   3.314   5.369  15.141  0.8391  0.0279  0.1465
13037TIP3    H160602   3.318   5.285  15.186 -0.8719  0.7962  1.9148
13037TIP3    H260603   3.382   5.422  15.183  1.1227 -0.1003 -0.1460
13038TIP3   OH260604   6.653   5.824   1.275  0.3376  0.3447  0.1973
13038TIP3    H160605   6.654   5.793   1.184  0.6696  1.4264 -0.1819
13038TIP3    H260606   6.562   5.847   1.291  0.2364 -0.0595  0.2166
13039TIP3   OH260607   5.536   4.282   2.082 -0.3112  0.6509 -0.3700
13039TIP3    H160608   5.549   4.305   2.174  0.7964 -0.4207 -0.2270
13039TIP3    H260609   5.462   4.336   2.053  0.6259  2.5619  0.5764
13040TIP3   OH260610   6.298   5.372   1.426  0.3456 -0.6641  0.3421
13040TIP3    H160611   6.284   5.302   1.362  1.4524 -0.0144 -0.6727
13040TIP3    H260612   6.378   5.348   1.471  0.7330 -0.0658 -0.0141
13041TIP3   OH260613   3.640   6.408  11.071  0.3150  0.0765 -0.0724
13041TIP3    H160614   3.659   6.328  11.119 -1.0390  0.1580  0.6518
13041TIP3    H260615   3.562   6.387  11.019  1.8639 -0.0834 -2.4744
13042TIP3   OH260616   0.248   6.158   4.991  0.1066 -0.1454  0.0380
13042TIP3    H160617   0.205   6.156   4.906  0.5968 -0.3930 -0.2099
13042TIP3    H260618   0.288   6.072   5.000  1.5601  0.4607 -0.2786
13043TIP3   OH260619   3.501   6.286   5.926 -0.5643 -0.1761  0.2337
13043TIP3    H160620   3.417   6.293   5.971 -1.2270  1.8573 -1.1518
13043TIP3    H260621   3.533   6.376   5.921  1.1199 -0.7647 -0.3273
13044TIP3   OH260622   1.895   2.158   0.062  0.1927  0.4398 -0.2037
13044TIP3    H160623   1.885   2.251   0.038  1.0896  0.7132  0.4198
13044TIP3    H260624   1.817   2.139   0.114 -0.4152  0.6014 -1.0338
13045TIP3   OH260625   3.020   5.082  12.181  0.4273  0.0903 -0.2339
13045TIP3    H160626   3.090   5.115  12.237  1.7262 -2.5761 -0.1322
13045TIP3    H260627   3.016   4.988  12.201 -2.1536 -0.1167 -1.3775
13046TIP3   OH260628   6.318   1.960  12.746 -0.0535 -0.7521 -0.3583
13046TIP3    H160629   6.226   1.978  12.766  0.4142  0.1547  1.1951
13046TIP3    H260630   6.338   2.018  12.672 -0.0945  1.0089  0.9294
13047TIP3   OH260631   3.007   5.658  15.237 -0.1306 -0.3251  0.1821
13047TIP3    H160632   3.070   5.671  15.166  0.0126  0.1155  0.3809
13047TIP3    H260633   3.031   5.575  15.277 -0.1172 -0.5010 -0.1870
13048TIP3   OH260634   0.216   6.647   3.756 -0.1073 -0.0210  0.0795
13048TIP3    H160635   0.266   6.580   3.803 -0.1023 -0.2142 -0.2023
13048TIP3    H260636   0.202   6.610   3.669  0.0216  0.4047 -0.1253
13049TIP3   OH260637   5.879   5.955  11.853 -0.4907 -0.1969 -0.1002
13049TIP3    H160638   5.911   5.959  11.943 -0.1929 -1.2678 -0.1503
13049TIP3    H260639   5.802   6.012  11.853  0.0858  0.5994  0.5765
13050TIP3   OH260640   1.942   0.387   4.764 -0.2224  0.0232 -0.3448
13050TIP3    H160641   1.855   0.423   4.749  0.7348  2.6815 -0.0974
13050TIP3    H260642   1.952   0.320   4.697 -1.8144  0.9317 -1.5581
13051TIP3   OH260643   4.638   3.775  16.952 -0.5985  0.0600 -0.0490
13051TIP3    H160644   4.640   3.679  16.948 -1.6656  0.0521 -0.8102
13051TIP3    H260645   4.633   3.795  17.046  2.7424 -0.4944  0.3693
13052TIP3   OH260646   3.942   4.476  14.213  0.3555 -0.1064  0.2586
13052TIP3    H160647   3.860   4.454  14.258  0.1103  2.1133  1.0343
13052TIP3    H260648   3.969   4.394  14.171 -2.1132 -0.9723  0.1812
13053TIP3   OH260649   1.225   1.040   4.926 -0.2159  0.9411 -0.0288
13053TIP3    H160650   1.298   1.087   4.887  0.1388 -0.5161 -1.2135
13053TIP3    H260651   1.244   1.038   5.019  1.8545 -0.3213 -0.4045
13054TIP3   OH260652   2.304   1.817  13.109 -0.0116  0.1133  0.5174
13054TIP3    H160653   2.245   1.883  13.146 -1.1241  0.6594 -1.9885
13054TIP3    H260654   2.250   1.738  13.102  0.1330  0.0606 -0.0244
13055TIP3   OH260655   1.639   4.438  16.987 -0.6799  0.0824 -0.4878
13055TIP3    H160656   1.697   4.511  17.011 -0.6284  0.9462 -2.8771
13055TIP3    H260657   1.691   4.385  16.927 -1.9558  0.2839 -1.8438
13056TIP3   OH260658   2.337   4.910   5.719 -0.4108  0.5172 -0.0900
13056TIP3    H160659   2.415   4.941   5.766  0.9494 -2.2663 -0.3008
13056TIP3    H260660   2.281   4.874   5.788 -1.3689  2.0541 -0.0017
13057TIP3   OH260661   4.111   1.904  14.643  0.0705  0.1534  0.0372
13057TIP3    H160662   4.036   1.874  14.694 -0.9862  1.0338 -0.9508
13057TIP3    H260663   4.138   1.985  14.687  1.7353 -1.1573  1.5737
13058TIP3   OH260664   4.145   3.812   4.120  0.6387  0.0478  0.1618
13058TIP3    H160665   4.151   3.901   4.087 -0.0181 -0.0604 -0.2632
13058TIP3    H260666   4.057   3.805   4.157  0.7594 -0.3575  0.3834
13059TIP3   OH260667   2.740   3.082  11.258  0.3376 -0.0084 -0.4356
13059TIP3    H160668   2.773   3.049  11.174  1.4809 -0.4188  0.1483
13059TIP3    H260669   2.645   3.079  11.249  0.3683  2.4859 -2.6922
13060TIP3   OH260670   0.921   1.024  16.114  0.5804  0.2674 -0.3732
13060TIP3    H160671   0.895   0.935  16.138  0.8036  0.4640  0.6748
13060TIP3    H260672   0.953   1.017  16.025  2.6926 -1.1432  0.4270
13061TIP3   OH260673   4.067   4.802  14.900  0.1011 -0.2776 -0.0652
13061TIP3    H160674   4.073   4.821  14.806  1.5492 -0.5402 -0.0518
13061TIP3    H260675   4.088   4.886  14.942 -0.0546 -0.2813  0.0198
13062TIP3   OH260676   1.434   6.325  15.453 -0.3575  0.5242  0.4097
13062TIP3    H160677   1.502   6.383  15.487 -1.2732  2.4013 -0.7418
13062TIP3    H260678   1.362   6.332  15.515  0.4720 -1.5460  1.6852
13063TIP3   OH260679   3.257   1.701  10.755 -0.1960 -0.4279  0.1746
13063TIP3    H160680   3.288   1.649  10.681  1.0410 -0.8985  0.9938
13063TIP3    H260681   3.243   1.788  10.719 -0.2623 -0.8123 -0.7587
13064TIP3   OH260682   1.146   2.026   0.461 -0.1427 -0.4506  0.3973
13064TIP3    H160683   1.076   2.086   0.487  1.5057  0.6726  2.5323
13064TIP3    H260684   1.208   2.080   0.413  0.5857 -0.7904  0.9406
13065TIP3   OH260685   1.522   6.377  16.185  0.0608 -0.1485 -0.3419
13065TIP3    H160686   1.427   6.376  16.189 -0.1163  3.3575 -0.6263
13065TIP3    H260687   1.542   6.392  16.093  0.9394 -1.0954 -0.3258
13066TIP3   OH260688   0.510   4.784   0.946 -0.1905 -0.0817 -0.2301
13066TIP3    H160689   0.447   4.718   0.975  0.8541 -1.7566 -1.5487
13066TIP3    H260690   0.473   4.818   0.864  0.6529 -1.2371 -1.1316
13067TIP3   OH260691   2.602   1.892  11.713  0.1943  0.0394 -0.7596
13067TIP3    H160692   2.569   1.816  11.664  0.0180 -1.1154  1.0807
13067TIP3    H260693   2.556   1.967  11.673 -1.2162 -1.0369 -1.2558
13068TIP3   OH260694   6.450   5.738  12.851 -0.6914  0.2813  0.8880
13068TIP3    H160695   6.428   5.727  12.758  0.8347 -1.5468  0.6832
13068TIP3    H260696   6.480   5.652  12.879 -0.6510  0.9180  2.9768
13069TIP3   OH260697   1.049   1.168  12.605 -0.2624  0.3676  0.5163
13069TIP3    H160698   1.006   1.096  12.651 -0.0266  0.2463  0.5476
13069TIP3    H260699   1.137   1.136  12.586 -0.1405  0.6637  0.5713
13070TIP3   OH260700   4.085   0.235   0.749  0.0034  0.2313  0.7187
13070TIP3    H160701   4.131   0.199   0.674 -2.0327  1.7085 -1.3883
13070TIP3    H260702   4.013   0.173   0.765 -1.6285  1.5892 -0.8940
13071TIP3   OH260703   1.962   1.718   1.576  0.4114 -0.3732 -0.4542
13071TIP3    H160704   1.886   1.722   1.518 -1.5477  1.2340  2.0428
13071TIP3    H260705   1.998   1.806   1.574 -0.1364 -0.0822  1.2587
13072TIP3   OH260706   5.557   6.518   0.987  0.2250 -0.0330  0.4020
13072TIP3    H160707   5.587   6.493   0.899  0.9706 -0.9355  0.8914
13072TIP3    H260708   5.586   6.609   0.997  0.8995 -0.1930  0.0246
13073TIP3   OH260709   4.106   4.089   2.036  0.6949  0.2801 -0.2707
13073TIP3    H160710   4.179   4.081   1.974 -0.9690  0.1657 -2.3278
13073TIP3    H260711   4.035   4.038   1.997  0.1306 -1.4727  2.7495
13074TIP3   OH260712   5.579   1.774   4.767  0.2274  0.2862 -0.2762
13074TIP3    H160713   5.651   1.777   4.830 -0.7385  0.9375  0.8652
13074TIP3    H260714   5.531   1.694   4.789 -0.2298  0.6218 -0.0242
13075TIP3   OH260715   5.897   3.357   0.811 -0.4361 -0.0159  0.0231
13075TIP3    H160716   5.945   3.275   0.823  0.9142  0.5756 -1.0176
13075TIP3    H260717   5.867   3.380   0.899 -0.5220 -1.4323  0.3846
13076TIP3   OH260718   0.334   4.030   3.201  0.0581  0.4666  1.1192
13076TIP3    H160719   0.368   3.971   3.134 -0.0616  2.1360 -0.4801
13076TIP3    H260720   0.240   4.036   3.181 -0.3170 -0.2675  2.4829
13077TIP3   OH260721   1.252   6.368   2.291  0.2189 -0.0977 -0.0031
13077TIP3    H160722   1.230   6.287   2.338 -3.1926  0.5723 -0.2026
13077TIP3    H260723   1.273   6.431   2.360 -2.2964  0.1948  0.5903
13078TIP3   OH260724   5.183   3.288  17.264 -0.3301  0.2491 -0.1153
13078TIP3    H160725   5.133   3.303  17.184  0.7427 -0.4931 -0.9737
13078TIP3    H260726   5.177   3.370  17.313 -0.0748  1.1280 -1.4985
13079TIP3   OH260727   6.069   5.606   3.966  0.3038  0.4884 -0.2248
13079TIP3    H160728   6.152   5.588   4.010 -0.0900  1.7037  1.1179
13079TIP3    H260729   6.044   5.523   3.926  1.8970 -0.0273 -0.2019
13080TIP3   OH260730   1.587   3.854   6.162  0.2737 -0.4376  0.0720
13080TIP3    H160731   1.605   3.799   6.086 -0.3253 -1.3855  0.5940
13080TIP3    H260732   1.551   3.794   6.227 -2.1237  0.8166  0.0452
13081TIP3   OH260733   4.962   6.645   5.499  0.7237  0.0047 -0.4931
13081TIP3    H160734   4.950   6.675   5.409 -2.9601  2.1840  0.5082
13081TIP3    H260735   4.989   6.723   5.547 -1.6197  0.0879  0.8959
13082TIP3   OH260736   1.702   3.896   2.144  0.5137 -0.2573  0.1196
13082TIP3    H160737   1.695   3.991   2.135  0.4258 -0.1482  1.2641
13082TIP3    H260738   1.708   3.864   2.053 -1.3660  0.6793 -0.3922
13083TIP3   OH260739   0.918   2.871   5.286 -0.3948  0.0127  0.0679
13083TIP3    H160740   0.858   2.862   5.212  0.4950 -2.5688 -0.4476
13083TIP3    H260741   1.005   2.868   5.247  0.1433  2.2308  0.9398
13084TIP3   OH260742   1.688   0.146   4.605  0.0129 -0.1330 -0.7388
13084TIP3    H160743   1.738   0.073   4.643 -0.2121  0.4895  0.8606
13084TIP3    H260744   1.755   0.207   4.574  0.2426 -0.0164 -0.0348
13085TIP3   OH260745   3.304   6.095   0.879 -0.3854 -0.0624 -0.1948
13085TIP3    H160746   3.235   6.102   0.945  0.0572  2.2414  0.0819
13085TIP3    H260747   3.379   6.140   0.916  1.6760 -3.2236 -0.1342
13086TIP3   OH260748   6.469   1.040   3.517  0.8341  0.0111  0.1701
13086TIP3    H160749   6.536   0.994   3.466  2.3866  1.1355  1.1064
13086TIP3    H260750   6.516   1.112   3.558 -1.1749  1.4606  0.0687
13087TIP3   OH260751   2.061   3.614  16.766 -0.1683  0.6720  0.0295
13087TIP3    H160752   2.112   3.537  16.794  1.1830  0.3600 -2.8986
13087TIP3    H260753   1.996   3.579  16.705 -0.5154  1.6811 -0.1985
13088TIP3   OH260754   3.465   0.333   2.693  0.2892 -0.1792  0.4885
13088TIP3    H160755   3.384   0.382   2.678  1.3509  1.8904  1.0638
13088TIP3    H260756   3.529   0.375   2.635  1.0021 -1.6599  0.1713
13089TIP3   OH260757   3.970   2.336   1.872  0.5365 -0.0056  0.7242
13089TIP3    H160758   4.040   2.395   1.843 -0.8883  0.3326 -2.4103
13089TIP3    H260759   3.895   2.393   1.886 -1.0606 -0.8981 -3.0134
13090TIP3   OH260760   2.510   3.525   6.109 -0.4339 -0.4286  0.0062
13090TIP3    H160761   2.571   3.458   6.141 -0.1481 -0.2868 -0.2315
13090TIP3    H260762   2.436   3.520   6.168 -0.2367 -0.6807  0.2364
13091TIP3   OH260763   5.308   0.978  13.256 -0.2589 -0.4854 -0.1173
13091TIP3    H160764   5.372   0.922  13.213  0.5867  0.6123 -0.3249
13091TIP3    H260765   5.269   1.029  13.185 -1.2771 -1.0430  0.0240
13092TIP3   OH260766   3.085   3.450   2.732  0.4981  0.0238 -0.0190
13092TIP3    H160767   3.159   3.420   2.680  0.4727  0.1683 -0.1388
13092TIP3    H260768   3.079   3.544   2.714  1.4048  0.3864  1.3691
13093TIP3   OH260769   1.074   4.217   6.661 -0.0109 -0.0330 -0.2769
13093TIP3    H160770   1.086   4.132   6.620 -0.7244 -1.0764  1.5726
13093TIP3    H260771   1.163   4.249   6.677  0.3459 -1.7277  1.4941
13094TIP3   OH260772   5.674   1.628  16.963  0.4252 -0.2722  0.2807
13094TIP3    H160773   5.649   1.546  16.922 -0.5730  0.8916 -1.5608
13094TIP3    H260774   5.755   1.654  16.918 -0.5010  0.8514 -0.8094
13095TIP3   OH260775   2.896   1.263   0.271  0.1450 -0.0627  0.4013
13095TIP3    H160776   2.956   1.292   0.340  0.9660 -1.9600  0.5480
13095TIP3    H260777   2.860   1.181   0.304 -0.0659 -0.5938 -1.0832
13096TIP3   OH260778   5.508   0.968   1.474 -0.6829 -0.0507 -0.3315
13096TIP3    H160779   5.470   0.902   1.533  2.4195 -1.3048  0.4495
13096TIP3    H260780   5.556   1.027   1.532 -1.6600  1.7300 -1.2367
13097TIP3   OH260781   5.862   4.613  11.575  0.5321  0.0071  0.0728
13097TIP3    H160782   5.859   4.699  11.533 -0.1556 -0.3903 -0.7072
13097TIP3    H260783   5.855   4.633  11.669  2.9784  0.9556  0.1435
13098TIP3   OH260784   1.566   1.274   1.710  0.0154  0.6128 -0.3810
13098TIP3    H160785   1.490   1.284   1.767  0.0225  0.4132 -0.3352
13098TIP3    H260786   1.616   1.203   1.749  0.4355  1.0072 -0.1852
13099TIP3   OH260787   0.147   4.330   4.208  0.6211  0.1333  0.1648
13099TIP3    H160788   0.149   4.358   4.299  2.2942  0.3092  0.1159
13099TIP3    H260789   0.162   4.411   4.158  0.4572 -0.0735 -0.2233
13100TIP3   OH260790   5.149   4.324   6.199  0.4047 -0.3273 -0.1401
13100TIP3    H160791   5.224   4.379   6.175 -0.4683  0.6031 -0.8611
13100TIP3    H260792   5.155   4.315   6.294  1.2036  0.0655 -0.1438
13101TIP3   OH260793   3.699   2.396  15.051 -0.1336  0.2073 -0.2670
13101TIP3    H160794   3.613   2.423  15.019 -0.1582  1.0145  0.4622
13101TIP3    H260795   3.710   2.442  15.134  0.5110 -0.7970  0.2249
13102TIP3   OH260796   4.085   5.854   4.129  0.3602  0.5435  0.3231
13102TIP3    H160797   4.016   5.919   4.117 -0.2285 -0.0983  0.2296
13102TIP3    H260798   4.159   5.905   4.163  0.6719  1.7006 -1.8691
13103TIP3   OH260799   3.233   4.602   5.827 -0.3924 -0.2023  0.7352
13103TIP3    H160800   3.210   4.695   5.831 -0.9923 -0.3126 -0.0280
13103TIP3    H260801   3.153   4.558   5.800 -0.0453 -0.9195  0.8453
13104TIP3   OH260802   3.500   3.034  14.631  0.0507  0.7489 -0.3843
13104TIP3    H160803   3.484   3.118  14.674  2.7548  0.0973  2.2876
13104TIP3    H260804   3.579   3.049  14.579 -0.0394  0.1172 -0.7118
13105TIP3   OH260805   1.536   3.256  13.348  0.1900 -0.6100 -0.4395
13105TIP3    H160806   1.630   3.239  13.348  0.4617  0.7656 -0.1253
13105TIP3    H260807   1.496   3.172  13.373  1.2821 -1.3678 -1.1535
13106TIP3   OH260808   5.029   3.041  16.950  0.0541 -0.4612  0.1722
13106TIP3    H160809   4.935   3.034  16.967 -0.0613  0.0598 -0.2452
13106TIP3    H260810   5.055   3.123  16.991  0.2899 -0.5096  0.1225
13107TIP3   OH260811   6.023   5.834  14.008 -0.3243 -0.3754  0.1993
13107TIP3    H160812   5.949   5.883  14.043 -1.3858 -1.6086 -0.2455
13107TIP3    H260813   5.986   5.778  13.941  1.1677 -0.3971 -0.6582
13108TIP3   OH260814   0.070   5.947  15.652  0.3727  0.1835  0.7156
13108TIP3    H160815   0.013   5.928  15.577 -0.4761  0.3105  1.3044
13108TIP3    H260816   0.049   6.037  15.676  0.4254  0.0551  1.2718
13109TIP3   OH260817   5.387   5.319   1.236 -0.2316  0.6276  0.3747
13109TIP3    H160818   5.448   5.249   1.260 -0.1751  0.9902  1.3732
13109TIP3    H260819   5.411   5.343   1.147  0.5214  0.1661  0.4446
13110TIP3   OH260820   6.391   2.210  15.966 -0.3140  0.2254 -0.8095
13110TIP3    H160821   6.419   2.251  15.884 -0.7677  0.1204 -1.0184
13110TIP3    H260822   6.473   2.192  16.013 -0.1012  3.5312  0.3841
13111TIP3   OH260823   0.757   3.125   1.893  0.2711  0.2716 -0.2014
13111TIP3    H160824   0.793   3.050   1.845 -0.3383 -0.8363  1.0041
13111TIP3    H260825   0.705   3.172   1.828  0.8798 -0.1865 -1.0503
13112TIP3   OH260826   0.532   2.682  11.472  0.3993 -0.1803 -0.2820
13112TIP3    H160827   0.544   2.639  11.387 -1.0192 -0.2047 -0.5062
13112TIP3    H260828   0.449   2.728  11.463  0.4040  0.0982  0.9862
13113TIP3   OH260829   2.291   6.169   5.719 -0.0699 -0.2054 -0.5740
13113TIP3    H160830   2.261   6.255   5.691 -1.7355 -0.2449  0.9285
13113TIP3    H260831   2.352   6.187   5.791  0.7745 -0.2605 -1.2548
13114TIP3   OH260832   0.917   3.422  13.416 -0.0899 -0.3405 -0.4273
13114TIP3    H160833   0.924   3.353  13.350  1.7191 -0.5555 -0.0712
13114TIP3    H260834   0.997   3.414  13.468 -0.3704  1.3077  0.3425
13115TIP3   OH260835   4.720   1.380   1.595 -0.6763 -0.8267 -0.6169
13115TIP3    H160836   4.725   1.442   1.523 -0.6736 -0.8596 -0.6445
13115TIP3    H260837   4.720   1.435   1.674  1.6519 -0.8253 -0.5245
13116TIP3   OH260838   2.913   4.566  13.165  0.3837 -0.1133 -0.4925
13116TIP3    H160839   2.986   4.518  13.203 -0.0414 -0.9754 -0.7361
13116TIP3    H260840   2.835   4.525  13.204  0.0344  0.9023 -0.1032
13117TIP3   OH260841   6.110   4.490   5.607 -0.7088 -0.0815 -0.6336
13117TIP3    H160842   6.201   4.520   5.601 -0.7912  0.2186 -0.4036
13117TIP3    H260843   6.076   4.502   5.518 -0.8705  0.9446 -0.4501
13118TIP3   OH260844   4.521   4.277   5.977  0.5220  0.3620  0.6721
13118TIP3    H160845   4.536   4.187   5.947 -1.3359 -0.1366  1.1390
13118TIP3    H260846   4.552   4.331   5.905  0.3612 -0.6961 -0.2230
13119TIP3   OH260847   4.702   1.560   5.958  0.2928  0.0799  0.3458
13119TIP3    H160848   4.779   1.510   5.934  0.2744  1.1450 -2.2112
13119TIP3    H260849   4.642   1.495   5.996  1.5612 -1.1669  0.2821
13120TIP3   OH260850   6.597   4.835   5.800  0.4015 -0.2509 -0.2481
13120TIP3    H160851   6.541   4.759   5.817  1.4608 -1.0294 -0.1270
13120TIP3    H260852   6.541   4.910   5.817 -0.2150 -0.9998  1.2153
13121TIP3   OH260853   2.806   3.071  16.106 -0.1831  0.0009  0.4718
13121TIP3    H160854   2.768   2.999  16.156 -0.6299 -0.2706 -0.2370
13121TIP3    H260855   2.892   3.085  16.146 -1.2013  0.9753  2.4582
13122TIP3   OH260856   2.744   2.188  15.468  0.1588 -0.5246 -0.7742
13122TIP3    H160857   2.816   2.149  15.418  1.9633 -0.3776  1.5369
13122TIP3    H260858   2.755   2.282  15.457  0.2080 -0.5033 -0.5320
13123TIP3   OH260859   0.950   3.081   5.526 -0.0955 -0.1461  0.4366
13123TIP3    H160860   0.865   3.113   5.558 -0.5901 -1.4750  0.4989
13123TIP3    H260861   0.928   3.029   5.449  0.9123  1.4660 -0.9883
13124TIP3   OH260862   6.401   3.122  12.057  0.2515 -0.3147 -0.3939
13124TIP3    H160863   6.320   3.141  12.104  0.5627 -0.5792  0.2525
13124TIP3    H260864   6.446   3.207  12.052 -0.9066  0.2553 -2.4246
13125TIP3   OH260865   6.666   1.728   2.914 -0.0267  0.1038  0.5813
13125TIP3    H160866   6.701   1.719   3.003  0.1241  0.1227  0.5238
13125TIP3    H260867   6.587   1.781   2.924  1.0364  1.7887  0.4542
13126TIP3   OH260868   4.479   4.549   2.206  0.3645  0.1157 -0.0934
13126TIP3    H160869   4.436   4.605   2.141 -0.6724  0.1261  0.5730
13126TIP3    H260870   4.552   4.510   2.160  1.3123  2.2494 -0.5063
13127TIP3   OH260871   0.377   3.234   5.848 -0.4070  0.9579 -0.4166
13127TIP3    H160872   0.299   3.246   5.795  0.2836  2.0829 -1.2103
13127TIP3    H260873   0.346   3.240   5.939 -1.4517 -0.0749 -0.6761
13128TIP3   OH260874   4.283   1.959  13.065 -0.2512 -0.0056  0.0066
13128TIP3    H160875   4.348   2.029  13.065  0.2820 -0.4118  2.0510
13128TIP3    H260876   4.307   1.903  12.992  0.9666  0.5186 -0.0148
13129TIP3   OH260877   3.209   1.423  15.301  0.4133 -0.6739  0.4423
13129TIP3    H160878   3.132   1.377  15.336 -0.8683  1.8078  1.1691
13129TIP3    H260879   3.201   1.415  15.206 -0.7933 -0.4446  0.5081
13130TIP3   OH260880   3.226   5.810  15.388  0.7087 -0.4064 -0.5533
13130TIP3    H160881   3.245   5.814  15.294 -1.4403  0.3034 -1.0074
13130TIP3    H260882   3.171   5.732  15.399 -1.4174  1.0182 -0.4266
13131TIP3   OH260883   1.585   4.669  14.852 -0.8428 -0.1120  0.5057
13131TIP3    H160884   1.532   4.708  14.783 -0.7796 -0.7145  0.1158
13131TIP3    H260885   1.522   4.631  14.913 -0.9081  0.6669  0.9354
13132TIP3   OH260886   0.179   4.590  11.749  0.2524  0.5954 -0.3641
13132TIP3    H160887   0.111   4.543  11.702  0.8444 -1.6278  0.8572
13132TIP3    H260888   0.235   4.627  11.681  0.1926 -1.1741 -1.4358
13133TIP3   OH260889   6.114   0.952   0.217  0.3770 -0.1541 -0.5653
13133TIP3    H160890   6.143   1.012   0.149  2.3656 -1.0655 -0.5780
13133TIP3    H260891   6.168   0.974   0.293  0.4578 -1.2588 -0.2810
13134TIP3   OH260892   1.503   6.019  16.761 -0.1710  0.0585 -0.5015
13134TIP3    H160893   1.522   6.043  16.670  0.4267 -1.5624 -0.8327
13134TIP3    H260894   1.489   5.924  16.758 -1.0305  0.1151  0.9627
13135TIP3   OH260895   2.608   1.647  15.204 -0.2077 -0.1785 -0.1070
13135TIP3    H160896   2.684   1.669  15.257 -0.6578 -0.5765  0.7135
13135TIP3    H260897   2.642   1.643  15.114  0.6360  0.1037  0.1918
13136TIP3   OH260898   5.757   0.576  16.491 -0.2409  0.4924 -0.2103
13136TIP3    H160899   5.810   0.617  16.559  0.0075 -1.5528  0.9290
13136TIP3    H260900   5.805   0.590  16.410  0.6644  0.9763  0.4003
13137TIP3   OH260901   3.670   3.551  16.169 -0.1263  0.1331 -0.5689
13137TIP3    H160902   3.710   3.638  16.166  0.3976 -0.0920 -0.3038
13137TIP3    H260903   3.735   3.496  16.214  0.5786 -0.9434 -2.7444
13138TIP3   OH260904   4.115   2.323   5.309 -0.4187  0.4695  0.0123
13138TIP3    H160905   4.205   2.334   5.342 -0.7738 -0.3554  1.3438
13138TIP3    H260906   4.125   2.274   5.228  0.3294  0.1669  0.2760
13139TIP3   OH260907   4.033   3.762  13.085  0.1312  0.0697 -0.1861
13139TIP3    H160908   4.122   3.750  13.051  0.3027 -1.9147  0.7860
13139TIP3    H260909   4.035   3.848  13.126  0.9093  1.0351 -2.1495
13140TIP3   OH260910   3.238   5.079   5.334 -0.4587  0.1984 -0.0730
13140TIP3    H160911   3.155   5.052   5.293 -0.3839  1.4257 -1.0776
13140TIP3    H260912   3.211   5.119   5.416 -0.7747 -0.2999  0.0772
13141TIP3   OH260913   4.694   0.410  17.053 -0.1897 -0.7760  0.2401
13141TIP3    H160914   4.667   0.469  16.982 -0.8733  0.4815  1.4897
13141TIP3    H260915   4.683   0.322  17.016 -1.3834 -0.1843 -0.9206
13142TIP3   OH260916   3.937   4.709  11.077 -0.1693  0.7329 -0.1744
13142TIP3    H160917   4.000   4.777  11.101  0.0045 -0.0155  1.6494
13142TIP3    H260918   3.964   4.632  11.127 -2.5427  0.4073  0.7591
13143TIP3   OH260919   6.461   3.815   6.429  0.5658 -0.0925 -0.8742
13143TIP3    H160920   6.441   3.841   6.519 -0.1624 -0.4869 -0.9132
13143TIP3    H260921   6.459   3.897   6.380  0.2222  0.0324 -0.6573
13144TIP3   OH260922   4.700   5.970   5.395 -0.0630  0.7549  0.0395
13144TIP3    H160923   4.786   5.990   5.432 -0.0133  1.2050 -0.2992
13144TIP3    H260924   4.715   5.892   5.341  0.3393  1.3311 -0.7138
13145TIP3   OH260925   5.694   2.159   2.714  0.0644 -0.5494 -0.0256
13145TIP3    H160926   5.769   2.218   2.720  2.5954 -3.3106 -1.6101
13145TIP3    H260927   5.621   2.214   2.685  2.0459  1.8790 -0.6527
13146TIP3   OH260928   4.016   5.912   1.914  0.4675  0.0045  0.3100
13146TIP3    H160929   4.024   5.986   1.975  0.0778  0.3020  0.0081
13146TIP3    H260930   4.079   5.848   1.946  1.3181  0.7537  0.1768
13147TIP3   OH260931   3.731   4.805  11.276  0.7638  0.1633 -0.2094
13147TIP3    H160932   3.798   4.753  11.230  1.1047 -0.8886  1.4104
13147TIP3    H260933   3.778   4.883  11.306  1.0857 -0.2141  0.2746
13148TIP3   OH260934   4.105   0.098  17.065  0.0331  0.2655 -0.2187
13148TIP3    H160935   4.160   0.155  17.011  2.5108 -2.0820 -0.3767
13148TIP3    H260936   4.101   0.143  17.150  2.5526  0.4396 -0.1055
13149TIP3   OH260937   6.419   6.652  11.959  0.2176  0.6926 -0.7320
13149TIP3    H160938   6.471   6.702  12.022  0.8236  0.7259 -1.2515
13149TIP3    H260939   6.371   6.718  11.910 -2.1342  0.6073  1.2239
13150TIP3   OH260940   6.561   5.102   5.355 -0.4383  0.5272 -0.2166
13150TIP3    H160941   6.534   5.176   5.410 -1.2168 -0.5453  0.9036
13150TIP3    H260942   6.651   5.085   5.382 -0.2905  1.0026 -0.4043
13151TIP3   OH260943   0.837   4.788  17.131  1.0272  0.0793 -0.2042
13151TIP3    H160944   0.835   4.743  17.046 -0.1338  0.1437 -0.2292
13151TIP3    H260945   0.845   4.717  17.195  0.3601 -0.0982 -0.3042
13152TIP3   OH260946   4.877   6.212   0.578  0.0072  0.1150  0.3545
13152TIP3    H160947   4.875   6.251   0.491 -2.0680  0.7742  0.6576
13152TIP3    H260948   4.932   6.272   0.629  0.4815  0.2191 -0.2654
13153TIP3   OH260949   6.724   1.296  12.966 -0.0401 -0.6108 -0.1432
13153TIP3    H160950   6.662   1.285  13.038  0.7380 -0.5756  0.5554
13153TIP3    H260951   6.672   1.331  12.893 -0.7004  0.0371  0.6242
13154TIP3   OH260952   5.539   0.534  14.754  0.2511 -0.2679  0.1767
13154TIP3    H160953   5.454   0.532  14.797  0.7843 -1.9411  1.2509
13154TIP3    H260954   5.523   0.501  14.666 -0.4914  1.1945 -0.2688
13155TIP3   OH260955   5.066   0.530  17.292  0.0447  0.1285 -0.6897
13155TIP3    H160956   5.086   0.568  17.378 -1.2562  0.3826 -0.4671
13155TIP3    H260957   4.980   0.567  17.270 -0.9516 -2.0946 -0.8152
13156TIP3   OH260958   2.830   5.514  13.055 -0.3929 -0.3092  0.2279
13156TIP3    H160959   2.762   5.497  12.991 -0.6558  1.7013 -0.1071
13156TIP3    H260960   2.788   5.570  13.120  0.5697 -0.1741  0.7512
13157TIP3   OH260961   1.034   3.533   0.310 -0.1523 -0.4390  0.1934
13157TIP3    H160962   1.104   3.586   0.272 -0.4209 -0.3472 -0.1796
13157TIP3    H260963   0.955   3.585   0.298 -0.5998 -1.3917 -1.1956
13158TIP3   OH260964   6.211   2.649  13.876 -0.6683  0.1062 -0.1515
13158TIP3    H160965   6.253   2.594  13.811 -1.5866  1.2250 -1.7660
13158TIP3    H260966   6.118   2.635  13.863 -0.8747 -0.5389  1.7628
13159TIP3   OH260967   4.636   6.656   0.689 -0.1460 -0.6603 -0.1264
13159TIP3    H160968   4.573   6.602   0.737 -1.6442  0.4184 -0.7963
13159TIP3    H260969   4.719   6.644   0.736 -1.3596 -0.2870  2.2628
13160TIP3   OH260970   3.851   6.740  15.860  0.4945  0.4059  0.4445
13160TIP3    H160971   3.902   6.661  15.837  1.2820  1.0917 -0.2515
13160TIP3    H260972   3.782   6.708  15.918  1.4401 -0.6354  1.0444
13161TIP3   OH260973   5.327   4.202   3.634  0.0603  0.3745 -0.1657
13161TIP3    H160974   5.371   4.201   3.719 -0.1688  1.0979 -0.0325
13161TIP3    H260975   5.238   4.230   3.653 -0.2190 -0.2381 -0.5487
13162TIP3   OH260976   2.549   6.758   4.033  0.8636  0.1961 -0.2696
13162TIP3    H160977   2.499   6.681   4.058  0.0134  0.7044 -0.3696
13162TIP3    H260978   2.616   6.766   4.101  0.7321 -0.4201 -0.0624
13163TIP3   OH260979   0.342   0.379  13.809 -0.4357 -0.6629 -0.0300
13163TIP3    H160980   0.263   0.422  13.842  0.3794  0.3461  0.7005
13163TIP3    H260981   0.338   0.390  13.714 -0.7289  0.1784  0.0704
13164TIP3   OH260982   5.036   1.708  15.055  0.5532  0.2263  0.1367
13164TIP3    H160983   5.047   1.625  15.101  0.5988 -0.1647 -0.5568
13164TIP3    H260984   4.949   1.739  15.080 -0.0471 -0.7303 -0.6721
13165TIP3   OH260985   2.968   6.655   2.175 -0.2515 -0.6122  0.6085
13165TIP3    H160986   2.925   6.685   2.095 -1.3594 -3.3255  0.0701
13165TIP3    H260987   3.062   6.665   2.158 -0.5222  1.2478  0.0387
13166TIP3   OH260988   5.093   0.743  13.841 -0.1774  0.1426 -0.2366
13166TIP3    H160989   5.019   0.684  13.837 -0.6881  0.8239 -2.2537
13166TIP3    H260990   5.147   0.720  13.765  0.2287  1.4479 -0.3782
13167TIP3   OH260991   2.856   3.050  15.164 -0.0219 -0.3615  0.3643
13167TIP3    H160992   2.890   3.139  15.156 -1.0972 -0.0725 -1.8199
13167TIP3    H260993   2.928   2.994  15.133  0.0943 -0.1252  0.2051
13168TIP3   OH260994   6.472   3.369   5.430  0.5009 -0.5692  0.7878
13168TIP3    H160995   6.554   3.359   5.381 -0.7119 -1.5471 -1.1676
13168TIP3    H260996   6.443   3.279   5.447 -1.0400 -0.2882 -0.1577
13169TIP3   OH260997   3.468   0.050  13.632  0.3980 -0.0034  0.1726
13169TIP3    H160998   3.400   0.106  13.594  0.2692 -0.2181  0.0840
13169TIP3    H260999   3.550   0.089  13.602  0.3162  0.2917  0.3277
13170TIP3   OH261000   1.752   3.268   2.008  0.1501  0.0044 -0.8563
13170TIP3    H161001   1.797   3.233   1.931 -0.1532  3.2317 -2.7000
13170TIP3    H261002   1.660   3.247   1.993  0.0600  0.8320 -1.5636
13171TIP3   OH261003   6.146   6.391  15.738  0.0593 -0.1542 -0.7553
13171TIP3    H161004   6.181   6.409  15.825  1.3882  0.6241 -1.4091
13171TIP3    H261005   6.193   6.313  15.709  1.0025  0.6514 -1.4740
13172TIP3   OH261006   6.296   2.510  14.116  0.0004  0.3508  0.0029
13172TIP3    H161007   6.201   2.523  14.127 -0.0301 -0.1163  0.2931
13172TIP3    H261008   6.317   2.555  14.034 -0.2070  1.7794  0.6981
13173TIP3   OH261009   5.366   0.795  15.805 -0.3131 -0.1984 -0.4262
13173TIP3    H161010   5.410   0.837  15.879 -0.0987  1.9877 -1.6794
13173TIP3    H261011   5.295   0.746  15.844  0.6232 -0.2441  1.3228
13174TIP3   OH261012   1.238   4.615   1.980  0.3318  0.1854 -0.1655
13174TIP3    H161013   1.307   4.576   1.925  2.0152 -0.8179  2.4671
13174TIP3    H261014   1.177   4.543   1.996  1.0275 -0.1746  1.0003
13175TIP3   OH261015   0.849   1.540  12.582  0.1564 -0.0063  0.2756
13175TIP3    H161016   0.760   1.516  12.558  0.0786  0.6167 -0.0890
13175TIP3    H261017   0.900   1.460  12.570  0.0261  0.1418 -1.4984
13176TIP3   OH261018   6.056   2.943   6.057 -0.2542  0.0595 -0.2012
13176TIP3    H161019   5.985   2.902   6.008 -1.3244 -0.2951  1.5563
13176TIP3    H261020   6.133   2.932   6.001 -1.1936 -1.2561 -1.3148
13177TIP3   OH261021   0.115   3.501  16.450 -0.6861 -0.0128 -0.3044
13177TIP3    H161022   0.023   3.485  16.428 -0.8771  1.3912 -0.6386
13177TIP3    H261023   0.163   3.475  16.372 -1.0788  1.8348 -1.2332
13178TIP3   OH261024   6.764   4.601   4.367 -0.0943  0.2354 -0.0364
13178TIP3    H161025   6.799   4.663   4.303  0.4464  1.2437  1.2104
13178TIP3    H261026   6.838   4.545   4.390 -0.1268  0.2927  0.2037
13179TIP3   OH261027   2.794   6.417   1.493 -0.2204  0.2479 -0.5357
13179TIP3    H161028   2.888   6.413   1.476 -0.4576 -0.0890 -1.8607
13179TIP3    H261029   2.779   6.349   1.558  0.4451  0.2965 -0.3232
13180TIP3   OH261030   6.657   6.654   5.682  0.3052 -0.3210 -0.1035
13180TIP3    H161031   6.646   6.743   5.715 -0.2029 -0.1190 -0.7836
13180TIP3    H261032   6.656   6.599   5.761 -0.4116  0.1893  0.2616
13181TIP3   OH261033   0.841   1.003  16.908 -0.1026 -0.2428  0.0842
13181TIP3    H161034   0.789   1.071  16.951  0.6680 -1.0879  2.5003
13181TIP3    H261035   0.858   0.939  16.976  3.4955 -0.3647 -0.7317
13182TIP3   OH261036   1.742   3.749   3.602 -0.1047 -0.4473  0.2207
13182TIP3    H161037   1.798   3.777   3.675 -0.4443 -0.4671  0.4933
13182TIP3    H261038   1.802   3.734   3.530  0.3323 -1.2639  0.7446
13183TIP3   OH261039   2.843   0.410  11.856  0.1873 -0.0810  0.4758
13183TIP3    H161040   2.751   0.429  11.838 -0.0731  0.1049  1.8941
13183TIP3    H261041   2.883   0.402  11.769 -1.4835 -1.8207 -0.2061
13184TIP3   OH261042   0.611   2.756   1.181  0.1878 -0.3445 -0.0070
13184TIP3    H161043   0.567   2.836   1.152  1.6116  0.0495 -1.1975
13184TIP3    H261044   0.694   2.786   1.217  0.9047 -1.2868 -0.8015
13185TIP3   OH261045   4.383   4.473   3.389 -0.5542 -0.2121 -0.2438
13185TIP3    H161046   4.405   4.560   3.421 -0.2634  0.2441 -1.6240
13185TIP3    H261047   4.448   4.415   3.428 -2.0166 -0.2179  2.4510
13186TIP3   OH261048   0.125   1.222   1.760 -0.0362  0.3479 -0.0503
13186TIP3    H161049   0.164   1.201   1.845  0.1883  2.3064  0.3605
13186TIP3    H261050   0.047   1.166   1.757  0.9435 -1.1368  0.5872
13187TIP3   OH261051   4.803   2.837   2.584  0.1906 -0.0496  0.1949
13187TIP3    H161052   4.742   2.767   2.563 -1.1188  1.2671 -0.5692
13187TIP3    H261053   4.858   2.801   2.654 -1.9188 -1.0232  1.4327
13188TIP3   OH261054   5.358   2.842  16.056 -0.0832 -0.2599  0.5564
13188TIP3    H161055   5.382   2.753  16.082  0.2562 -0.5571 -0.7285
13188TIP3    H261056   5.276   2.859  16.102 -0.2942 -1.3375  0.6018
13189TIP3   OH261057   1.484   1.196  11.576  0.0793 -0.0895  0.6357
13189TIP3    H161058   1.429   1.200  11.498  1.1595  2.7819 -0.0892
13189TIP3    H261059   1.552   1.133  11.554  0.5501  0.9125 -0.8939
13190TIP3   OH261060   5.449   2.736   1.955 -0.1080 -0.3942 -0.0721
13190TIP3    H161061   5.494   2.668   1.904 -2.0990 -0.3820 -1.9375
13190TIP3    H261062   5.442   2.810   1.896 -3.5008 -0.7770 -0.3185
13191TIP3   OH261063   0.426   3.319   2.540  0.4260 -0.5913  0.1553
13191TIP3    H161064   0.505   3.293   2.492  0.7353 -1.3239  1.0422
13191TIP3    H261065   0.436   3.280   2.627 -0.9208 -0.7047  0.2844
13192TIP3   OH261066   1.087   0.607   0.721  0.1043  0.0111 -0.4265
13192TIP3    H161067   1.094   0.658   0.802 -1.6077  0.6990 -0.6597
13192TIP3    H261068   1.089   0.672   0.651 -1.2798 -0.2780 -0.7682
13193TIP3   OH261069   3.621   5.081  12.981  0.3182  0.1524 -0.6646
13193TIP3    H161070   3.690   5.120  13.035  1.3799  1.0022 -2.5274
13193TIP3    H261071   3.663   5.007  12.939 -0.2348  0.0146 -0.9851
13194TIP3   OH261072   4.760   3.009  15.978  0.5997  0.1153 -0.3401
13194TIP3    H161073   4.813   3.089  15.975  1.4804 -0.4151  0.6089
13194TIP3    H261074   4.670   3.041  15.980  0.8014  1.0339 -2.3876
13195TIP3   OH261075   0.066   0.156   4.444 -0.2696  0.4461  0.8706
13195TIP3    H161076   0.020   0.138   4.362 -0.8663 -0.4635  1.3896
13195TIP3    H261077   0.053   0.078   4.497  2.2519 -0.0507  0.9009
13196TIP3   OH261078   0.733   3.783  14.753 -0.1089 -0.1834 -0.2635
13196TIP3    H161079   0.666   3.778  14.685 -1.9543  0.3983  1.3897
13196TIP3    H261080   0.790   3.708  14.737 -1.2208 -0.7647 -1.6811
13197TIP3   OH261081   0.955   5.468   5.020 -0.5113  0.1908 -0.1272
13197TIP3    H161082   0.900   5.545   5.033  1.2228  1.1657  2.3350
13197TIP3    H261083   0.975   5.467   4.927  0.0896  3.2520 -0.1211
13198TIP3   OH261084   5.863   2.468   3.259  0.0176  0.1847 -0.3794
13198TIP3    H161085   5.863   2.500   3.168 -0.9091 -0.9117 -0.7884
13198TIP3    H261086   5.770   2.462   3.281  0.1981 -1.2672  0.0163
13199TIP3   OH261087   2.372   3.298   6.232 -0.4322  0.2426  0.4561
13199TIP3    H161088   2.437   3.268   6.168 -1.3268  0.9615 -0.8478
13199TIP3    H261089   2.334   3.218   6.268  1.7955 -0.2229  1.9737
13200TIP3   OH261090   1.239   2.927   2.826  0.3012  0.4731  0.6368
13200TIP3    H161091   1.202   2.991   2.765 -0.3990  0.0765  0.6281
13200TIP3    H261092   1.224   2.965   2.912  2.9572  1.9161  0.5488
13201TIP3   OH261093   1.594   5.831   4.444 -0.1297  0.3905  0.4181
13201TIP3    H161094   1.650   5.909   4.447  1.8255 -0.8776 -0.7499
13201TIP3    H261095   1.547   5.839   4.361  0.9047 -0.1559 -0.2487
13202TIP3   OH261096   3.836   5.276  13.397  0.2038  0.0157 -0.6847
13202TIP3    H161097   3.760   5.225  13.427  0.6094 -0.6127 -0.7104
13202TIP3    H261098   3.868   5.319  13.476  0.8826 -1.1311 -0.3066
13203TIP3   OH261099   0.257   4.579   4.280 -0.7308 -0.4705 -0.6150
13203TIP3    H161100   0.342   4.610   4.310 -0.3790 -1.9364 -0.0360
13203TIP3    H261101   0.219   4.654   4.234  0.5263  0.4524 -0.1908
13204TIP3   OH261102   1.099   3.176   6.716 -0.0043 -0.0292 -0.0382
13204TIP3    H161103   1.096   3.267   6.745 -1.6220  0.6389 -2.0766
13204TIP3    H261104   1.009   3.144   6.728 -0.0771 -0.5237 -1.7131
13205TIP3   OH261105   2.883   5.536  16.762 -0.5311  0.6147  0.2482
13205TIP3    H161106   2.830   5.534  16.683  1.4002  0.6882 -1.1345
13205TIP3    H261107   2.917   5.626  16.766 -0.7829  0.6748  1.3009
13206TIP3   OH261108   5.230   5.390  13.213 -0.1676 -0.4199 -0.0073
13206TIP3    H161109   5.272   5.450  13.151  1.4094  0.1551  1.5066
13206TIP3    H261110   5.174   5.447  13.266  0.8753 -0.3323  1.0475
13207TIP3   OH261111   5.383   3.047   2.431  0.6771  0.6419  0.3917
13207TIP3    H161112   5.291   3.028   2.409  0.1802  0.1826  2.6281
13207TIP3    H261113   5.396   3.137   2.401  0.5671 -0.3439 -2.9561
13208TIP3   OH261114   5.011   0.334   1.535 -0.2113 -0.3401  0.0758
13208TIP3    H161115   5.088   0.280   1.516  0.9028  0.5376  1.8282
13208TIP3    H261116   4.995   0.383   1.454  0.9852 -0.6691 -0.3748
13209TIP3   OH261117   4.885   2.046   5.611  0.7330  0.2625  0.0954
13209TIP3    H161118   4.819   2.111   5.586  0.9660  1.2284  1.8540
13209TIP3    H261119   4.959   2.065   5.554  0.7353  1.4636  0.4580
13210TIP3   OH261120   1.503   1.295  13.306  0.5741 -0.7737  0.6634
13210TIP3    H161121   1.558   1.217  13.303 -0.1318 -1.2779  0.5964
13210TIP3    H261122   1.449   1.289  13.227 -0.3728 -0.8849  1.3032
13211TIP3   OH261123   0.351   1.169  12.181 -0.2758  0.3495 -0.5059
13211TIP3    H161124   0.276   1.193  12.126 -0.4557  0.9949  0.0161
13211TIP3    H261125   0.320   1.094  12.231 -0.4425  0.3748 -0.5673
13212TIP3   OH261126   2.919   1.467   1.507 -0.3494  0.0035 -0.2237
13212TIP3    H161127   2.996   1.523   1.519 -0.2705  0.5221 -2.5646
13212TIP3    H261128   2.851   1.510   1.559  0.2210  1.1992 -0.4103
13213TIP3   OH261129   5.606   6.177  16.536 -0.6215 -0.6880 -0.1361
13213TIP3    H161130   5.624   6.112  16.604 -3.3038  0.1807  1.5641
13213TIP3    H261131   5.512   6.168  16.519 -0.5082  0.8674 -1.9180
13214TIP3   OH261132   0.817   1.913  14.577 -0.2553  0.2945 -0.1191
13214TIP3    H161133   0.737   1.866  14.553  0.5313 -1.2539  0.1893
13214TIP3    H261134   0.808   1.928  14.672 -0.7463  1.2936 -0.3059
13215TIP3   OH261135   4.015   5.089   6.332 -0.2907  0.5689  0.2969
13215TIP3    H161136   4.020   5.035   6.411 -0.0616 -1.5375 -1.0634
13215TIP3    H261137   3.924   5.079   6.302 -0.0601  0.3526 -0.3501
13216TIP3   OH261138   0.747   6.564  11.313  0.4642 -0.5480  0.3410
13216TIP3    H161139   0.821   6.523  11.268  0.9332 -1.4197  1.8312
13216TIP3    H261140   0.736   6.649  11.269  2.9787  0.0364  0.6563
13217TIP3   OH261141   1.398   0.977   0.327  0.4809  0.9206  0.1590
13217TIP3    H161142   1.415   1.017   0.242  1.1611 -0.1387 -0.2278
13217TIP3    H261143   1.306   0.952   0.324  0.2466  1.7765  0.1218
13218TIP3   OH261144   5.177   2.124   3.722 -0.3334 -0.1957 -0.0645
13218TIP3    H161145   5.164   2.178   3.800  0.2638 -0.1563  0.0130
13218TIP3    H261146   5.118   2.049   3.734 -1.0785  0.3707 -0.1149
13219TIP3   OH261147   0.301   6.522  17.011 -0.0036 -0.0845 -0.5093
13219TIP3    H161148   0.275   6.466  17.085 -3.3058  2.4557  0.4789
13219TIP3    H261149   0.391   6.549  17.033  0.0521 -1.4538  1.2056
13220TIP3   OH261150   6.227   4.775  15.206  0.3657 -0.6252  0.2388
13220TIP3    H161151   6.315   4.737  15.208  1.6597  2.0971 -0.2645
13220TIP3    H261152   6.177   4.717  15.148  1.8674 -2.1069  0.3430
13221TIP3   OH261153   0.291   3.114   0.983  0.3422  0.3555  0.1148
13221TIP3    H161154   0.244   3.144   0.905  0.6421 -2.4657 -1.2912
13221TIP3    H261155   0.383   3.114   0.957  0.5588  0.5208  0.8812
13222TIP3   OH261156   5.136   0.026   4.997 -0.3526  0.3318  0.5705
13222TIP3    H161157   5.119  -0.066   5.018 -1.5783  0.6572  1.0643
13222TIP3    H261158   5.091   0.075   5.065  0.6908  1.3023  0.5750
13223TIP3   OH261159   1.352   0.825   1.642 -0.2913 -0.0388  0.2479
13223TIP3    H161160   1.270   0.794   1.680 -0.0608  1.4919  2.1626
13223TIP3    H261161   1.326   0.898   1.586 -0.3845 -0.6622 -0.5328
13224TIP3   OH261162   5.710   6.647  14.575 -0.4177  0.9996 -0.4126
13224TIP3    H161163   5.726   6.726  14.627 -0.7036 -0.0952  1.4041
13224TIP3    H261164   5.650   6.595  14.628  2.1390 -1.8476 -0.0145
13225TIP3   OH261165   1.818   5.085  14.023  0.2962 -0.2909  0.5059
13225TIP3    H161166   1.855   5.057  13.939  1.0922 -2.8232  1.5798
13225TIP3    H261167   1.858   5.170  14.040 -0.2258  0.4765 -1.8497
13226TIP3   OH261168   0.442   1.596   5.565 -0.9879  0.0869 -0.2642
13226TIP3    H161169   0.371   1.619   5.624 -1.1615  0.2832 -0.5464
13226TIP3    H261170   0.519   1.640   5.601 -0.4940 -1.9011  1.3207
13227TIP3   OH261171   3.450   3.635   5.112 -0.0828  0.4029 -0.1166
13227TIP3    H161172   3.495   3.714   5.082 -2.3714  1.9324  0.2267
13227TIP3    H261173   3.402   3.604   5.035  0.5402 -0.4877 -0.1619
13228TIP3   OH261174   5.234   6.492   2.843 -0.3014 -0.7668 -0.4537
13228TIP3    H161175   5.183   6.546   2.904  1.6132  0.2056  0.3617
13228TIP3    H261176   5.322   6.528   2.847  0.0584 -1.0728 -3.3583
13229TIP3   OH261177   0.565   0.294   4.727 -0.0453  0.8554 -0.1781
13229TIP3    H161178   0.634   0.230   4.708 -0.5191  0.5922 -1.0918
13229TIP3    H261179   0.588   0.371   4.676 -0.1929  0.9291 -0.1361
13230TIP3   OH261180   6.186   1.672   0.275 -0.1166 -0.2708 -0.3142
13230TIP3    H161181   6.150   1.760   0.264  1.3755  0.4234  0.0604
13230TIP3    H261182   6.227   1.674   0.362  0.3120 -1.1989 -0.4830
13231TIP3   OH261183   6.731   2.742   5.883 -0.3554 -0.0248 -0.2398
13231TIP3    H161184   6.817   2.775   5.911 -0.6973 -0.3678  1.2907
13231TIP3    H261185   6.673   2.762   5.956 -1.8130  1.0089 -1.6265
13232TIP3   OH261186   1.473   1.596  16.541  0.1723 -0.3277 -0.0094
13232TIP3    H161187   1.511   1.546  16.468  2.1060 -0.3108  0.9249
13232TIP3    H261188   1.400   1.643  16.501 -0.5601 -2.4174 -1.3287
13233TIP3   OH261189   4.166   3.204  12.529 -0.7510  0.4833  0.1873
13233TIP3    H161190   4.205   3.277  12.576  1.5622 -1.7736  2.0584
13233TIP3    H261191   4.139   3.143  12.598  0.2585 -1.7638 -1.2862
13234TIP3   OH261192   0.143   4.111   1.711 -0.1332  0.0206  0.1854
13234TIP3    H161193   0.231   4.125   1.674 -0.5412  0.7572 -0.5381
13234TIP3    H261194   0.159   4.085   1.802  0.8560 -0.5962 -0.1467
13235TIP3   OH261195   5.960   2.654  14.434 -0.4345  0.7590 -0.1923
13235TIP3    H161196   5.939   2.603  14.512  2.9705  0.5053  0.7025
13235TIP3    H261197   6.004   2.732  14.467  1.4100  0.4933 -1.8138
13236TIP3   OH261198   5.816   4.706  14.698 -0.0679 -0.2885 -0.6260
13236TIP3    H161199   5.737   4.697  14.751 -0.5158  0.0258 -1.2250
13236TIP3    H261200   5.843   4.616  14.681 -1.3152 -0.4588 -1.8861
13237TIP3   OH261201   1.620   5.766  12.765  0.7934  0.3104 -1.0681
13237TIP3    H161202   1.625   5.671  12.775 -0.7924  0.2668 -0.4715
13237TIP3    H261203   1.663   5.800  12.844 -1.0738  0.0256  0.1491
13238TIP3   OH261204   2.206   2.869  17.179  0.5958 -0.2651  0.3830
13238TIP3    H161205   2.258   2.916  17.244  0.0132 -0.5287  1.0537
13238TIP3    H261206   2.139   2.824  17.230 -1.2508  1.2496 -0.5474
13239TIP3   OH261207   6.659   2.747  13.886 -1.2179 -0.4478 -0.1349
13239TIP3    H161208   6.590   2.784  13.831 -2.0335 -0.1122  1.0624
13239TIP3    H261209   6.721   2.819  13.898 -1.1740 -0.4416 -0.3952
13240TIP3   OH261210   6.701   4.752  13.240 -0.4450  0.2527  0.1147
13240TIP3    H161211   6.788   4.773  13.204  0.2495 -0.0856  1.5286
13240TIP3    H261212   6.653   4.717  13.165  1.6522 -2.4909 -0.1260
13241TIP3   OH261213   0.407   6.460   1.744  0.1927  0.1062  1.0913
13241TIP3    H161214   0.312   6.471   1.735  0.5046  1.1304 -1.7159
13241TIP3    H261215   0.426   6.376   1.702  0.7058  0.8026 -0.1191
13242TIP3   OH261216   2.225   2.951  11.886 -0.0753 -0.0689  0.0510
13242TIP3    H161217   2.239   3.033  11.839  0.5012 -0.3889 -0.3499
13242TIP3    H261218   2.292   2.951  11.954 -0.7385  0.2684  0.7229
13243TIP3   OH261219   4.676   0.701  14.634 -0.1987  0.0479  0.0529
13243TIP3    H161220   4.730   0.624  14.650 -0.0978 -0.4347 -2.3423
13243TIP3    H261221   4.592   0.667  14.603 -1.9782  0.7944  3.4960
13244TIP3   OH261222   3.368   4.881  12.689  0.0674  0.1740 -0.3665
13244TIP3    H161223   3.424   4.804  12.683  1.1057  0.9796 -1.4803
13244TIP3    H261224   3.280   4.848  12.671  0.3156 -0.9431  0.4055
13245TIP3   OH261225   0.170   4.043  14.835 -0.6632 -0.0449 -0.0917
13245TIP3    H161226   0.228   3.983  14.882  0.3324  1.2010  0.3261
13245TIP3    H261227   0.113   4.080  14.902 -0.1207  0.7553 -0.0659
13246TIP3   OH261228   2.428   0.605  12.870 -0.0048 -0.1958  0.1723
13246TIP3    H161229   2.422   0.533  12.808  1.7745 -1.5121  1.4251
13246TIP3    H261230   2.514   0.644  12.854  0.3440 -0.3432  1.5458
13247TIP3   OH261231   0.006   3.059   4.416 -0.0565 -0.3575  0.5062
13247TIP3    H161232   0.094   3.097   4.409 -0.5924  1.0678  1.1605
13247TIP3    H261233   0.022   2.972   4.454  1.0726 -0.0732  0.7466
13248TIP3   OH261234   3.330   1.924  16.221  0.0067  0.0879  0.4646
13248TIP3    H161235   3.253   1.868  16.214  1.3801 -1.9291  0.7518
13248TIP3    H261236   3.368   1.924  16.133 -0.9644  2.1721 -0.0306
13249TIP3   OH261237   5.872   6.317   2.075 -0.2684 -0.1208  0.1304
13249TIP3    H161238   5.813   6.296   2.147 -1.6252  1.5724 -0.4256
13249TIP3    H261239   5.927   6.388   2.108  2.0537 -2.1350  0.8904
13250TIP3   OH261240   0.669   0.218   0.052 -0.3388 -0.2481  0.3739
13250TIP3    H161241   0.612   0.240   0.126 -0.4727  0.1775  0.1455
13250TIP3    H261242   0.620   0.151   0.003 -1.1747  0.9212 -0.4548
13251TIP3   OH261243   1.321   3.068  12.602  0.7441 -0.0353  0.3056
13251TIP3    H161244   1.374   3.082  12.680 -0.4349  0.0382  1.1091
13251TIP3    H261245   1.268   3.147  12.594  1.0529  0.0810 -0.7358
13252TIP3   OH261246   2.707   4.585   0.165 -0.1168 -0.2857  0.0249
13252TIP3    H161247   2.695   4.626   0.251  0.9701 -1.8086  0.9471
13252TIP3    H261248   2.697   4.492   0.182 -0.7676 -0.5593 -1.6975
13253TIP3   OH261249   2.131   5.396  16.060  0.8182  0.3168 -0.2199
13253TIP3    H161250   2.179   5.430  16.135  1.8654 -0.1429 -0.6663
13253TIP3    H261251   2.058   5.457  16.048 -0.0727 -0.2341  1.8929
13254TIP3   OH261252   0.804   2.042  11.858 -0.1118  0.4875  0.2396
13254TIP3    H161253   0.888   1.998  11.874 -0.1112 -0.5334 -2.1995
13254TIP3    H261254   0.741   1.989  11.907  0.5769  1.2478  2.0743
13255TIP3   OH261255   2.433   1.373  14.894  0.3556  0.0486  0.1110
13255TIP3    H161256   2.411   1.379  14.801  0.2246 -1.2907  0.0381
13255TIP3    H261257   2.354   1.400  14.940  0.7353  1.7139 -0.1343
13256TIP3   OH261258   3.526   6.693   0.764 -0.0134  0.0840 -0.2110
13256TIP3    H161259   3.554   6.602   0.771  0.4088  0.1573 -0.8323
13256TIP3    H261260   3.576   6.728   0.690 -0.0619  0.8611  0.1104
13257TIP3   OH261261   6.756   0.531  15.850  0.1310 -0.6102  0.6401
13257TIP3    H161262   6.715   0.512  15.765  0.3805 -1.0831  0.6235
13257TIP3    H261263   6.739   0.453  15.902 -1.4545  0.3178  1.5838
13258TIP3   OH261264   3.492   4.056   4.173  0.0622 -0.0758 -0.1571
13258TIP3    H161265   3.467   3.987   4.112  0.9756 -2.0878  1.6057
13258TIP3    H261266   3.538   4.120   4.120 -0.5864 -0.9449 -1.8293
13259TIP3   OH261267   4.233   3.635   3.760  0.5851  0.0682 -0.3524
13259TIP3    H161268   4.243   3.719   3.804  1.5816 -0.0260 -0.3754
13259TIP3    H261269   4.142   3.635   3.729 -0.3059 -0.0455  2.0577
13260TIP3   OH261270   0.742   0.561   4.938  0.2239 -0.2568  0.1758
13260TIP3    H161271   0.771   0.480   4.979  2.7820 -0.2989 -1.4334
13260TIP3    H261272   0.729   0.622   5.010 -0.1115 -1.6233  1.2984
13261TIP3   OH261273   4.880   0.859   0.985 -0.4474  0.3901  0.2787
13261TIP3    H161274   4.795   0.819   1.002  0.9530 -2.6304  0.8009
13261TIP3    H261275   4.905   0.901   1.067 -0.7841 -0.0712  0.6195
13262TIP3   OH261276   4.087   5.188  16.724  0.0870 -0.1853 -0.3682
13262TIP3    H161277   4.154   5.172  16.658 -1.4686 -1.3383 -1.7825
13262TIP3    H261278   4.135   5.201  16.805  2.0069 -1.4091 -1.2296
13263TIP3   OH261279   5.835   1.779   0.392  0.1979 -0.4189  0.8669
13263TIP3    H161280   5.779   1.830   0.452  1.2503  0.7761  0.8779
13263TIP3    H261281   5.808   1.688   0.406 -1.3279  0.0558  1.2992
13264TIP3   OH261282   5.528   2.431   3.769  0.1238 -0.6179  0.0988
13264TIP3    H161283   5.504   2.435   3.677  0.7802  0.6736 -0.0263
13264TIP3    H261284   5.507   2.517   3.804  0.3359 -0.9325  1.0484
13265TIP3   OH261285   6.604   2.263   4.596 -0.4249 -0.2002  0.0612
13265TIP3    H161286   6.675   2.244   4.657 -1.1987  0.2143  1.1246
13265TIP3    H261287   6.595   2.184   4.543  0.7485 -0.2903 -0.0135
13266TIP3   OH261288   4.107   1.975  15.520 -0.7812  0.0780  0.2024
13266TIP3    H161289   4.050   1.933  15.456  0.1503  0.5406 -0.9672
13266TIP3    H261290   4.077   1.942  15.605 -1.4772 -1.2298 -0.5288
13267TIP3   OH261291   0.035   1.131   5.110 -0.8843  0.0018 -0.0492
13267TIP3    H161292   0.021   1.080   5.189 -2.0866  2.1151  1.1809
13267TIP3    H261293   0.027   1.067   5.039  0.3782 -1.9871  1.4721
13268TIP3   OH261294   4.761   0.717  11.878  0.1003  0.3079 -0.1537
13268TIP3    H161295   4.712   0.672  11.809 -1.0877  1.1823  0.0709
13268TIP3    H261296   4.755   0.658  11.954  0.7401 -0.2940 -0.5555
13269TIP3   OH261297   2.403   0.033   1.190  0.0498 -0.4605 -0.0302
13269TIP3    H161298   2.392  -0.060   1.210  1.8216 -0.3574  1.6601
13269TIP3    H261299   2.472   0.035   1.123 -1.0616 -0.3990 -1.2239
13270TIP3   OH261300   5.372   2.977   5.737 -0.1731  0.3395 -0.3823
13270TIP3    H161301   5.283   2.944   5.735  0.1117 -0.5883  1.0741
13270TIP3    H261302   5.425   2.903   5.767  0.8600  1.3089  0.2826
13271TIP3   OH261303   4.765   4.935   4.084 -0.0804 -0.6352 -0.0472
13271TIP3    H161304   4.825   4.931   4.159 -0.9268  0.4512  0.7215
13271TIP3    H261305   4.777   5.023   4.048 -0.4941 -0.7636 -0.5060
13272TIP3   OH261306   1.433   0.644   0.043 -0.0750 -0.2965  0.2836
13272TIP3    H161307   1.418   0.634   0.137 -1.6372  0.7562  0.1689
13272TIP3    H261308   1.506   0.706   0.037  0.6931 -1.1247  0.7903
13273TIP3   OH261309   4.918   0.199  17.308  0.1594  0.0785  0.3879
13273TIP3    H161310   4.863   0.130  17.271  0.4108 -0.0052  0.1640
13273TIP3    H261311   4.991   0.207  17.247 -0.0493  0.7967  0.2218
13274TIP3   OH261312   3.301   0.768  11.989  0.1620 -0.1535  0.5649
13274TIP3    H161313   3.309   0.761  12.084 -0.5371  1.4376  0.7691
13274TIP3    H261314   3.208   0.783  11.974  0.4899  1.2618 -0.2340
13275TIP3   OH261315   1.549   5.949   1.812 -0.2813  0.1046  1.0003
13275TIP3    H161316   1.628   5.903   1.840 -0.3143 -0.7472 -0.2261
13275TIP3    H261317   1.497   5.959   1.893  0.1035 -1.2786  1.4460
13276TIP3   OH261318   4.353   3.929   3.818 -0.2372  0.3707 -0.3565
13276TIP3    H161319   4.361   3.928   3.913 -0.5549 -2.7220 -0.2736
13276TIP3    H261320   4.441   3.945   3.786  0.0255  0.5564  0.4488
13277TIP3   OH261321   5.680   6.708   6.206  0.2654 -0.1273 -0.3597
13277TIP3    H161322   5.611   6.718   6.272  0.4980 -0.9865  0.0363
13277TIP3    H261323   5.707   6.797   6.186 -0.9668  0.2264 -0.5335
13278TIP3   OH261324   3.068   2.972  14.781  0.6105 -0.0450  0.1554
13278TIP3    H161325   3.094   2.910  14.849 -0.3184  1.4286  1.9548
13278TIP3    H261326   2.979   2.998  14.804  0.0978  0.2214 -1.8859
13279TIP3   OH261327   2.744   3.379   5.066  0.1629  0.2175  0.9501
13279TIP3    H161328   2.713   3.367   5.155 -3.8288 -0.4105 -0.3233
13279TIP3    H261329   2.722   3.470   5.045 -2.6033 -0.6391 -0.4465
13280TIP3   OH261330   1.086   2.503   3.107  0.3188 -0.0814  0.7144
13280TIP3    H161331   1.148   2.447   3.155 -2.2935 -1.5235  2.6322
13280TIP3    H261332   1.129   2.519   3.022  2.2769 -2.8831  1.0490
13281TIP3   OH261333   3.563   1.683   1.775  0.1894 -0.3603 -0.5818
13281TIP3    H161334   3.565   1.713   1.684  2.1270  2.1614  0.1598
13281TIP3    H261335   3.534   1.759   1.825  1.7824 -0.7838  1.1225
13282TIP3   OH261336   1.923   5.719   3.516 -0.6522 -0.4812 -0.0844
13282TIP3    H161337   1.992   5.656   3.494  0.3094  1.1890 -2.2461
13282TIP3    H261338   1.860   5.669   3.566  0.3099 -3.0486 -1.2634
13283TIP3   OH261339   5.542   6.142  14.186 -0.1233 -0.2448 -0.5107
13283TIP3    H161340   5.500   6.069  14.140  0.1396 -0.6802 -0.0726
13283TIP3    H261341   5.623   6.158  14.137 -0.1332 -0.3093 -0.5487
13284TIP3   OH261342   3.971   3.164   5.238 -0.2095 -0.0918  0.5407
13284TIP3    H161343   3.960   3.111   5.160 -0.4923  1.6651 -0.6538
13284TIP3    H261344   3.938   3.250   5.215  0.8217  0.8229  2.1959
13285TIP3   OH261345   4.608   4.867   4.837  0.2496 -0.1054 -0.7356
13285TIP3    H161346   4.653   4.798   4.886 -0.2235 -1.0890 -1.6567
13285TIP3    H261347   4.656   4.873   4.754  1.0416  1.5427 -0.2145
13286TIP3   OH261348   2.342   5.228  15.354 -0.4756  0.1103  0.1497
13286TIP3    H161349   2.307   5.209  15.442 -1.0730 -0.3937 -0.1905
13286TIP3    H261350   2.424   5.274  15.371 -1.2470  1.2293  0.9715
13287TIP3   OH261351   1.346   5.433   5.407 -0.2091  0.3877 -0.2604
13287TIP3    H161352   1.408   5.382   5.355  0.0049  0.4141 -0.0335
13287TIP3    H261353   1.385   5.520   5.413 -0.0482  0.2872  0.2485
13288TIP3   OH261354   6.698   1.006  15.621 -0.2449  0.3054  0.0702
13288TIP3    H161355   6.715   0.942  15.690 -0.2454  0.8367  0.5657
13288TIP3    H261356   6.614   1.044  15.644  0.3773  1.4401  0.5197
13289TIP3   OH261357   3.020   1.354   0.805  0.4625  0.7949  0.6286
13289TIP3    H161358   3.034   1.322   0.894 -1.4223 -0.0252  0.6804
13289TIP3    H261359   3.001   1.447   0.816 -1.2726  0.4137  1.3143
13290TIP3   OH261360   4.143   3.626   1.844  0.0058  0.1341 -0.0944
13290TIP3    H161361   4.082   3.641   1.917 -0.1878 -0.3272 -0.1597
13290TIP3    H261362   4.092   3.647   1.766  0.2180  0.6412 -0.1036
13291TIP3   OH261363   0.260   1.580  17.029 -0.0486  0.1057 -0.1649
13291TIP3    H161364   0.302   1.500  17.060 -1.3045 -0.9011 -0.9297
13291TIP3    H261365   0.171   1.576  17.066 -0.6650  0.2660 -1.5549
13292TIP3   OH261366   0.448   4.347   1.049 -0.2291  0.1354  0.4119
13292TIP3    H161367   0.447   4.294   0.969 -0.7674 -1.9660  1.7488
13292TIP3    H261368   0.364   4.329   1.090 -0.4178  2.0545  0.9487
13293TIP3   OH261369   6.388   2.620  16.836  0.5843  0.2363 -0.3668
13293TIP3    H161370   6.388   2.540  16.784 -1.6500  0.8116 -1.3832
13293TIP3    H261371   6.450   2.678  16.792  0.4478 -0.1063 -1.0149
13294TIP3   OH261372   0.991   3.887   4.877  0.0596  0.3574 -0.0022
13294TIP3    H161373   0.994   3.877   4.972 -1.7737  1.3358  0.1895
13294TIP3    H261374   1.056   3.955   4.858  0.2350  0.3493  0.5628
13295TIP3   OH261375   2.870   5.949  13.232 -0.1936  0.1277  0.6304
13295TIP3    H161376   2.804   5.972  13.297 -0.3322 -0.1893  0.6059
13295TIP3    H261377   2.834   5.981  13.149 -0.2042  0.1752  0.6537
13296TIP3   OH261378   6.518   3.627  11.517  0.1141 -0.2316  0.0685
13296TIP3    H161379   6.545   3.637  11.608 -1.4364 -0.6405  0.6127
13296TIP3    H261380   6.560   3.700  11.471  0.2820  0.4516  1.2644
13297TIP3   OH261381   3.456   0.892   1.388 -0.0491  0.2164 -0.3761
13297TIP3    H161382   3.432   0.803   1.415 -0.7892  0.7152  0.6862
13297TIP3    H261383   3.428   0.897   1.297  1.0933 -1.0200 -0.8224
13298TIP3   OH261384   0.216   1.387  15.746  0.7841  0.3183  0.1761
13298TIP3    H161385   0.138   1.417  15.698  0.5390 -0.9544 -0.2636
13298TIP3    H261386   0.273   1.463  15.749  0.0506  0.9205 -0.6119
13299TIP3   OH261387   6.089   5.933  11.654  0.3869  0.5016 -0.4607
13299TIP3    H161388   6.016   5.921  11.593 -0.3098  0.3683  0.3813
13299TIP3    H261389   6.057   5.898  11.737  0.0857  3.6403  0.8533
13300TIP3   OH261390   4.400   4.856   2.919  0.5796  0.2886 -0.2593
13300TIP3    H161391   4.343   4.815   2.854 -1.7862  2.8586  0.0104
13300TIP3    H261392   4.465   4.904   2.867  0.9673 -0.5948 -0.6139
13301TIP3   OH261393   5.742   5.955  16.983  0.0568  1.0209  0.3872
13301TIP3    H161394   5.661   5.969  17.031  0.0469 -0.3738  0.8070
13301TIP3    H261395   5.810   5.950  17.051  0.3736  1.2849  0.0995
13302TIP3   OH261396   0.321   4.114  15.464  0.3982  0.0399 -0.9355
13302TIP3    H161397   0.266   4.036  15.458 -0.7932  0.6736  0.8571
13302TIP3    H261398   0.260   4.185  15.485  1.7182  1.0258 -0.2766
13303TIP3   OH261399   4.512   1.537  16.981  0.4216 -0.0807 -0.1329
13303TIP3    H161400   4.439   1.570  17.034  0.0472 -0.9454 -0.0877
13303TIP3    H261401   4.483   1.547  16.891  0.0463 -0.8323 -0.1062
13304TIP3   OH261402   6.491   0.466  13.947 -0.1016  0.4131 -0.0928
13304TIP3    H161403   6.407   0.501  13.917 -1.0804 -1.2997  0.5036
13304TIP3    H261404   6.502   0.384  13.898  0.1908 -0.4221  1.3072
13305TIP3   OH261405   1.690   1.832   2.203 -0.1814  0.4061 -0.2460
13305TIP3    H161406   1.659   1.840   2.293 -0.1136  0.5615 -0.2366
13305TIP3    H261407   1.613   1.848   2.149 -0.1769  0.5159 -0.2189
13306TIP3   OH261408   2.255   2.489   0.832  0.0783 -0.4225 -0.1890
13306TIP3    H161409   2.330   2.478   0.773 -0.0149 -1.5794 -0.1118
13306TIP3    H261410   2.210   2.567   0.798 -0.4254 -1.5115 -2.1682
13307TIP3   OH261411   0.642   0.066  14.848 -0.6552  0.3713 -0.2953
13307TIP3    H161412   0.652   0.160  14.865 -1.1376  0.3313  0.2491
13307TIP3    H261413   0.558   0.059  14.802 -0.7424  0.1931 -0.1147
13308TIP3   OH261414   3.538   5.100  14.803  0.0444 -0.0606 -0.5073
13308TIP3    H161415   3.454   5.097  14.849 -0.2614 -0.2981 -1.0697
13308TIP3    H261416   3.592   5.159  14.854 -0.0937 -0.7768  0.4915
13309TIP3   OH261417   5.903   0.919   5.216  0.0042 -0.3849 -0.4797
13309TIP3    H161418   5.993   0.910   5.248 -0.5725 -1.4319  0.9412
13309TIP3    H261419   5.892   1.013   5.201  0.8458 -0.0657  0.8003
13310TIP3   OH261420   5.758   4.434  16.708  0.1849  0.1131 -0.3632
13310TIP3    H161421   5.819   4.506  16.688  0.2061 -0.1772 -1.4086
13310TIP3    H261422   5.706   4.424  16.628 -1.4482  0.5471  0.6157
13311TIP3   OH261423   4.435   4.443   1.922 -0.3500 -0.2354 -0.3065
13311TIP3    H161424   4.504   4.487   1.872 -2.2294  0.3816 -2.5475
13311TIP3    H261425   4.435   4.353   1.890 -1.2996  0.0639 -1.2358
13312TIP3   OH261426   6.571   6.727   1.819 -0.3846 -0.0736 -0.1905
13312TIP3    H161427   6.626   6.704   1.894  1.1728 -1.2041 -1.5867
13312TIP3    H261428   6.499   6.664   1.822  0.6752 -1.3431 -0.6631
13313TIP3   OH261429   1.388   6.641  16.322  0.1771 -0.4154 -0.1747
13313TIP3    H161430   1.410   6.654  16.415 -0.4814  1.1252 -0.2107
13313TIP3    H261431   1.300   6.604  16.324  0.1087 -0.2524 -0.1935
13314TIP3   OH261432   6.183   5.426   4.900  0.4837 -0.1781  0.1131
13314TIP3    H161433   6.091   5.400   4.904  0.7671 -1.1352  0.7332
13314TIP3    H261434   6.207   5.445   4.991  0.6703  0.9249 -0.1568
13315TIP3   OH261435   3.521   0.451   4.087  0.1192 -0.3114  0.2483
13315TIP3    H161436   3.437   0.465   4.042  0.4858  0.0897 -0.3214
13315TIP3    H261437   3.568   0.533   4.077 -0.2906  0.2607  2.4959
13316TIP3   OH261438   1.421   6.517   2.468 -0.7119 -0.0319 -0.4828
13316TIP3    H161439   1.348   6.577   2.482 -0.4967 -0.1051  1.2450
13316TIP3    H261440   1.463   6.547   2.388  0.0684  2.8760  0.9014
13317TIP3   OH261441   1.633   0.699  14.998 -0.3159 -0.4892 -0.2417
13317TIP3    H161442   1.617   0.656  14.914 -1.5063  1.0139 -0.8245
13317TIP3    H261443   1.571   0.658  15.058 -2.1122  0.9249 -1.0118
13318TIP3   OH261444   3.841   2.597   3.413  0.6898  0.3609 -0.6518
13318TIP3    H161445   3.789   2.598   3.494 -2.7047 -0.5885 -2.6238
13318TIP3    H261446   3.838   2.687   3.382  1.9169  0.7065  0.1492
13319TIP3   OH261447   6.704   4.452  13.912  0.2651 -0.6175 -0.5909
13319TIP3    H161448   6.690   4.381  13.849  0.8800 -1.7410  0.5098
13319TIP3    H261449   6.704   4.409  13.998  1.1499  0.6420  0.0726
13320TIP3   OH261450   2.958   1.514   2.366  0.4828  0.1848 -0.0942
13320TIP3    H161451   2.985   1.552   2.282 -0.3979  2.5223  0.5804
13320TIP3    H261452   2.888   1.453   2.343 -0.1777  1.2461 -1.0508
13321TIP3   OH261453   0.645   2.261  11.981 -0.4400 -0.0753 -0.3169
13321TIP3    H161454   0.645   2.260  12.076 -0.3177  0.9230 -0.2930
13321TIP3    H261455   0.716   2.202  11.956 -0.3481 -0.1900  0.2122
13322TIP3   OH261456   5.562   5.355   3.542 -0.3518  0.1311 -0.9606
13322TIP3    H161457   5.511   5.301   3.603  1.4531 -0.5950  0.0088
13322TIP3    H261458   5.543   5.445   3.568  0.5885 -0.1564  0.9422
13323TIP3   OH261459   3.517   5.136  12.393  0.3265  0.4313  0.3124
13323TIP3    H161460   3.521   5.041  12.382 -0.2979  0.5887 -1.8248
13323TIP3    H261461   3.584   5.155  12.458  0.3449 -1.4830  0.9318
13324TIP3   OH261462   4.091   6.383   0.044 -0.4285  0.6820  0.1770
13324TIP3    H161463   4.102   6.339  -0.040 -0.3366  0.5429  0.2631
13324TIP3    H261464   4.179   6.407   0.071 -0.4511  0.6553  0.2735
13325TIP3   OH261465   5.497   4.863   1.660  0.1490  0.1482 -0.1830
13325TIP3    H161466   5.541   4.829   1.737  0.3567 -0.1524 -0.4305
13325TIP3    H261467   5.558   4.925   1.621 -0.1878  0.7342  0.2099
13326TIP3   OH261468   5.620   1.271  13.707 -0.2571  0.3569  0.6035
13326TIP3    H161469   5.585   1.273  13.617 -0.0275  2.0368  0.5099
13326TIP3    H261470   5.560   1.215  13.755 -1.1133  0.4434 -0.3327
13327TIP3   OH261471   5.318   1.411   5.984 -0.2772 -0.0380 -0.1363
13327TIP3    H161472   5.360   1.486   6.027  1.3998 -1.5708  1.0480
13327TIP3    H261473   5.236   1.400   6.032  0.5688 -0.3752  1.2955
13328TIP3   OH261474   3.749   6.015  16.994 -0.2370 -0.1586  0.2835
13328TIP3    H161475   3.673   6.050  17.041 -0.6094 -1.4428  0.7045
13328TIP3    H261476   3.754   5.923  17.023  1.0880 -0.2709 -0.2371
13329TIP3   OH261477   1.897   6.237  12.481 -0.0217 -0.1588  0.4407
13329TIP3    H161478   1.929   6.154  12.517  2.1989  0.3055 -0.2934
13329TIP3    H261479   1.928   6.303  12.544 -1.4445  0.1615  0.8231
13330TIP3   OH261480   2.742   1.163  15.188 -0.2303 -0.4132  0.0408
13330TIP3    H161481   2.741   1.107  15.110 -0.9137 -1.1789  0.5782
13330TIP3    H261482   2.696   1.112  15.254  2.5903 -0.9442  1.7613
13331TIP3   OH261483   5.606   2.101   3.472 -0.1484  0.1197 -0.1677
13331TIP3    H161484   5.513   2.077   3.465  0.2271 -1.2392 -0.9331
13331TIP3    H261485   5.635   2.058   3.553 -0.1294  0.3420 -0.0567
13332TIP3   OH261486   4.637   6.269   4.242  0.3034 -0.0394 -0.4550
13332TIP3    H161487   4.578   6.279   4.317  0.9478 -2.8554  0.5232
13332TIP3    H261488   4.722   6.250   4.280  2.3348  4.7229 -1.8028
13333TIP3   OH261489   3.532   3.932  12.760  0.2427  0.3559  0.0542
13333TIP3    H161490   3.568   3.939  12.848  1.7941 -2.2901 -0.2750
13333TIP3    H261491   3.455   3.876  12.770 -0.0586  0.7248 -0.1719
13334TIP3   OH261492   0.157   5.627   4.775  0.0246 -0.7005 -0.1539
13334TIP3    H161493   0.124   5.614   4.686 -2.0082 -1.8366  0.7073
13334TIP3    H261494   0.151   5.541   4.816  1.0567 -0.2205  1.0547
13335TIP3   OH261495   6.144   1.179  13.694 -0.3931 -0.3865  0.3398
13335TIP3    H161496   6.111   1.252  13.746  0.5644 -0.1485  0.6476
13335TIP3    H261497   6.239   1.184  13.705 -0.2614 -1.1222 -0.3883
13336TIP3   OH261498   3.085   2.263   0.568  0.2057  0.0417  0.3406
13336TIP3    H161499   3.012   2.215   0.606 -0.2646 -0.8066 -1.5072
13336TIP3    H261500   3.163   2.221   0.603 -0.1408  0.7528  2.0869
13337TIP3   OH261501   6.314   2.866   1.568 -0.4609 -0.5818 -0.2759
13337TIP3    H161502   6.370   2.890   1.642 -1.5032  0.2904  0.2424
13337TIP3    H261503   6.361   2.900   1.491 -1.5492  2.7136  0.3565
13338TIP3   OH261504   2.541   1.646   2.917 -0.1014 -0.4632 -0.1101
13338TIP3    H161505   2.606   1.650   2.846  0.1389  0.8284  0.1530
13338TIP3    H261506   2.459   1.669   2.874  0.2485  1.5703  0.2270
13339TIP3   OH261507   6.429   4.593   5.010 -0.2813 -0.1620 -0.2904
13339TIP3    H161508   6.418   4.660   4.942 -0.4288 -0.1250 -0.2303
13339TIP3    H261509   6.513   4.615   5.050 -0.5959  0.3412  0.1137
13340TIP3   OH261510   5.323   6.286   1.326 -0.0299 -0.0895  0.1004
13340TIP3    H161511   5.264   6.215   1.297 -0.6404  0.0698  0.9140
13340TIP3    H261512   5.392   6.288   1.260 -1.9569  1.0195 -2.0130
13341TIP3   OH261513   5.222   0.676  12.865 -0.4959 -0.2469  0.4277
13341TIP3    H161514   5.245   0.640  12.779 -2.0167 -0.6380  0.1437
13341TIP3    H261515   5.163   0.611  12.902 -1.0167  0.6118  1.1415
13342TIP3   OH261516   2.738   6.027  13.012  0.0258 -0.0550 -0.1852
13342TIP3    H161517   2.717   6.108  12.967 -0.0161  0.2547  0.3848
13342TIP3    H261518   2.663   5.969  12.994 -0.4531  0.4050  0.2946
13343TIP3   OH261519   2.127   1.692  13.776 -0.1564  0.2392  0.6672
13343TIP3    H161520   2.090   1.776  13.749 -0.3704 -0.3940 -1.1404
13343TIP3    H261521   2.202   1.679  13.719 -0.4502 -1.0498  0.5390
13344TIP3   OH261522   5.618   6.150  14.517 -0.7485  0.2314 -0.3995
13344TIP3    H161523   5.580   6.176  14.433 -1.9566 -0.4413 -0.0850
13344TIP3    H261524   5.565   6.196  14.582  0.4159  1.0531  0.0209
13345TIP3   OH261525   4.349   5.470   2.828  0.8003  0.7261 -0.0318
13345TIP3    H161526   4.439   5.439   2.835  0.8044  0.9303  1.0371
13345TIP3    H261527   4.297   5.390   2.823  1.0133  0.6023 -0.2919
13346TIP3   OH261528   6.627   1.218  15.903 -0.4902  0.0004  0.2783
13346TIP3    H161529   6.561   1.207  15.835 -1.2324  2.4380  0.4887
13346TIP3    H261530   6.701   1.165  15.874 -1.1423  0.1981 -1.9322
13347TIP3   OH261531   1.631   4.145   2.798 -0.3454 -0.0376  0.0985
13347TIP3    H161532   1.598   4.094   2.872  1.4950  0.8131  1.6071
13347TIP3    H261533   1.707   4.096   2.767 -1.3590 -0.6107 -1.5624
13348TIP3   OH261534   0.675   5.910  15.912 -0.2763  0.2705 -0.3735
13348TIP3    H161535   0.602   5.964  15.943 -0.1583  0.6028 -0.6725
13348TIP3    H261536   0.698   5.856  15.988 -2.6603 -1.8869 -1.0355
13349TIP3   OH261537   2.790   4.853  15.589 -0.2732  0.0638 -0.6144
13349TIP3    H161538   2.709   4.853  15.640 -1.4635 -0.2314 -2.4466
13349TIP3    H261539   2.767   4.813  15.506  2.0212 -0.9866 -0.8238
13350TIP3   OH261540   2.072   0.678   6.340 -0.1528  0.2568  1.2474
13350TIP3    H161541   2.158   0.637   6.337 -0.3601 -0.2673  2.2170
13350TIP3    H261542   2.091   0.772   6.340  0.3101  0.2499 -1.2737
13351TIP3   OH261543   2.036   2.262   2.531  0.1580 -0.5642 -0.1310
13351TIP3    H161544   1.948   2.288   2.559 -0.0549 -1.4660  0.0765
13351TIP3    H261545   2.093   2.329   2.569 -0.3267 -0.6500  0.7973
13352TIP3   OH261546   6.625   2.167  15.508 -0.2923  0.6787 -0.3397
13352TIP3    H161547   6.611   2.118  15.589 -0.1584  2.0852  0.5483
13352TIP3    H261548   6.591   2.255  15.526  0.6438  1.2937 -1.4775
13353TIP3   OH261549   6.673   1.210  15.027 -0.3671  0.2107 -0.0410
13353TIP3    H161550   6.742   1.268  15.060  0.3791 -1.0743  0.7399
13353TIP3    H261551   6.591   1.254  15.051  0.1710  0.3019  1.7186
13354TIP3   OH261552   3.474   0.099  15.912 -0.4498 -0.4985  0.0972
13354TIP3    H161553   3.526   0.035  15.864 -3.3949 -1.1128 -2.6269
13354TIP3    H261554   3.432   0.049  15.982  0.5701 -0.5214  0.7219
13355TIP3   OH261555   2.970   3.759  12.594  0.1939  0.2953  0.3647
13355TIP3    H161556   2.952   3.853  12.599 -0.3936  0.2040  0.0453
13355TIP3    H261557   3.019   3.740  12.674 -0.4485  0.7090  0.8687
13356TIP3   OH261558   4.665   4.775   5.276 -0.0601 -0.3134 -0.1154
13356TIP3    H161559   4.599   4.708   5.257  1.5946 -1.7535 -0.9930
13356TIP3    H261560   4.647   4.845   5.214 -2.4307  0.6209  1.4502
13357TIP3   OH261561   3.229   2.431  12.200 -0.1416  0.0639 -0.2593
13357TIP3    H161562   3.286   2.361  12.169  0.9529 -0.0946  1.9582
13357TIP3    H261563   3.287   2.492  12.245 -1.3511  1.3945 -0.4299
13358TIP3   OH261564   2.801   0.168   5.422 -0.1749 -0.5710  0.6483
13358TIP3    H161565   2.813   0.216   5.504  0.4509 -0.1972  0.3497
13358TIP3    H261566   2.773   0.235   5.359 -0.9217 -0.9063  0.6196
13359TIP3   OH261567   3.239   0.670   2.280  0.3157 -0.6659  0.6398
13359TIP3    H161568   3.181   0.733   2.324  0.2596  0.6001 -1.1282
13359TIP3    H261569   3.193   0.586   2.288 -0.7930 -0.0536  1.0198
13360TIP3   OH261570   6.071   4.686   2.654  0.6576 -0.1890 -0.1647
13360TIP3    H161571   6.020   4.605   2.660 -1.2078  0.9042 -0.5495
13360TIP3    H261572   6.042   4.738   2.729 -0.0265  1.1069 -1.2990
13361TIP3   OH261573   6.363   3.315   3.227 -0.7237 -0.2942  0.2805
13361TIP3    H161574   6.353   3.341   3.318  0.5052 -0.6168  0.5204
13361TIP3    H261575   6.442   3.360   3.197 -0.4655 -1.0970 -0.2785
13362TIP3   OH261576   4.914   4.323   4.557  0.3592 -0.5455  0.0077
13362TIP3    H161577   4.864   4.350   4.479 -1.6720  0.9504  1.7084
13362TIP3    H261578   4.850   4.277   4.611  1.8625 -1.9991  0.6248
13363TIP3   OH261579   3.832   0.145  14.970 -0.0952 -0.2163 -0.1397
13363TIP3    H161580   3.899   0.155  15.037 -0.1218  0.4734 -0.2106
13363TIP3    H261581   3.806   0.053  14.975 -0.3501 -0.0855  1.0294
13364TIP3   OH261582   6.133   4.120  11.032  0.0252 -0.3401  0.2994
13364TIP3    H161583   6.096   4.051  10.976 -0.2573  0.0662 -0.0236
13364TIP3    H261584   6.178   4.178  10.971  0.7075 -0.5218  0.6310
13365TIP3   OH261585   2.862   3.735   3.732 -0.1314 -0.2878  0.2353
13365TIP3    H161586   2.769   3.722   3.752  0.5091 -0.9921  3.2125
13365TIP3    H261587   2.903   3.650   3.750  1.0400 -0.2662 -1.9263
13366TIP3   OH261588   1.958   3.741   4.097 -0.5298  0.4219  0.4107
13366TIP3    H161589   1.968   3.646   4.110  1.3579  0.2811 -1.3801
13366TIP3    H261590   2.038   3.778   4.134 -0.7078  1.1802  0.0432
13367TIP3   OH261591   1.839   5.442   2.534  0.4781 -0.2518  0.0178
13367TIP3    H161592   1.859   5.481   2.620  0.2813  1.3537 -0.6420
13367TIP3    H261593   1.764   5.491   2.502 -0.3481 -1.7820 -0.4981
13368TIP3   OH261594   1.486   0.711  12.336  0.7312  0.4084 -0.5734
13368TIP3    H161595   1.496   0.785  12.276 -1.0387  1.4472  0.3013
13368TIP3    H261596   1.429   0.745  12.405  1.2054 -1.3039  0.7236
13369TIP3   OH261597   6.549   5.624  14.038  0.4692 -0.7221 -0.2585
13369TIP3    H161598   6.556   5.595  14.129 -0.0626  0.1686  0.0840
13369TIP3    H261599   6.482   5.568  14.000 -0.9549  0.3652  0.5475
13370TIP3   OH261600   1.364   1.611  17.301 -0.0644 -0.3562  0.1699
13370TIP3    H161601   1.418   1.532  17.309  0.6468  0.1821  0.8729
13370TIP3    H261602   1.385   1.645  17.213  0.0441 -0.6531  0.0796
13371TIP3   OH261603   3.264   5.070   0.729  0.1361 -0.1650 -0.7786
13371TIP3    H161604   3.328   5.023   0.782 -2.6089 -0.8277  2.3596
13371TIP3    H261605   3.295   5.161   0.729 -0.5430  0.3426  3.9401
13372TIP3   OH261606   4.622   1.102   4.113 -0.1295 -0.2022 -0.5767
13372TIP3    H161607   4.547   1.058   4.072 -0.7634  1.0824 -0.8681
13372TIP3    H261608   4.696   1.044   4.096 -1.2434 -2.1998  0.8643
13373TIP3   OH261609   5.966   3.739  15.203 -0.5918 -0.3820 -0.2634
13373TIP3    H161610   5.979   3.764  15.111  1.7176  1.5014  0.4861
13373TIP3    H261611   5.909   3.807  15.239  0.8497  0.5532  0.3414
13374TIP3   OH261612   2.468   3.567  15.633 -0.9573  1.1558  0.2763
13374TIP3    H161613   2.451   3.638  15.571 -1.0149 -1.0617 -2.4486
13374TIP3    H261614   2.385   3.556  15.680 -1.0366  2.6428  0.5293
13375TIP3   OH261615   2.287   0.668   1.727 -0.1047  0.0424  0.2560
13375TIP3    H161616   2.275   0.580   1.762 -1.2480 -0.1793 -0.6397
13375TIP3    H261617   2.371   0.664   1.679  0.2088 -0.3405  0.8265
13376TIP3   OH261618   4.672   2.283  11.411  0.1949 -0.3486 -0.6407
13376TIP3    H161619   4.754   2.313  11.372  1.2730  1.0480  2.3973
13376TIP3    H261620   4.698   2.217  11.475 -1.0288  0.0458  0.3099
13377TIP3   OH261621   3.166   6.186  17.077 -0.0603  0.4588  1.0079
13377TIP3    H161622   3.170   6.204  17.170  2.3304 -0.6561  1.2029
13377TIP3    H261623   3.105   6.112  17.069 -2.0807  2.0085  1.3447
13378TIP3   OH261624   6.503   3.295   4.022  0.3607 -0.4795 -0.2195
13378TIP3    H161625   6.548   3.265   4.101  0.0849 -2.8807 -0.8883
13378TIP3    H261626   6.540   3.242   3.952 -1.6359 -0.6743 -1.1903
13379TIP3   OH261627   2.082   2.033   2.384 -0.4986 -0.6088  0.4934
13379TIP3    H161628   2.092   1.956   2.441  1.0554 -1.0749 -0.3534
13379TIP3    H261629   2.096   2.108   2.441 -2.4580 -0.8895  1.4252
13380TIP3   OH261630   2.818   6.049  17.180 -0.5442  0.0551  0.0447
13380TIP3    H161631   2.854   6.054  17.269  0.2219 -2.2396 -0.0699
13380TIP3    H261632   2.742   5.991  17.188 -1.6771  1.3990 -0.4983
13381TIP3   OH261633   4.913   1.835   4.129  0.2833 -0.4189 -0.0571
13381TIP3    H161634   4.836   1.871   4.174 -0.5944  0.2505 -1.9735
13381TIP3    H261635   4.984   1.894   4.152 -0.0762 -0.2707  0.6899
13382TIP3   OH261636   2.297   0.940  15.522  0.4784 -0.9258 -0.3071
13382TIP3    H161637   2.385   0.926  15.558  0.0006 -0.8462  0.9439
13382TIP3    H261638   2.251   0.990  15.589 -0.0865  0.3543 -1.5852
13383TIP3   OH261639   6.538   0.493  12.020 -0.1140  0.6127  0.5045
13383TIP3    H161640   6.591   0.519  12.096  2.4362 -3.9286  0.6009
13383TIP3    H261641   6.470   0.436  12.057  0.6313 -0.9558 -0.4608
13384TIP3   OH261642   4.740   5.637   3.836  0.0889  0.0213  0.1206
13384TIP3    H161643   4.799   5.586   3.780 -0.2226  0.2781 -0.4462
13384TIP3    H261644   4.720   5.715   3.784  0.2091  0.5104  0.8002
13385TIP3   OH261645   3.615   2.901   1.552  0.2050  0.4469 -0.4348
13385TIP3    H161646   3.648   2.944   1.631 -2.1543  1.2865  0.1682
13385TIP3    H261647   3.543   2.957   1.523  0.4026 -0.3683 -2.6497
13386TIP3   OH261648   4.653   3.682   1.582  0.1703 -0.3313 -0.0488
13386TIP3    H161649   4.695   3.689   1.667  1.1456 -1.6029 -0.3802
13386TIP3    H261650   4.682   3.596   1.549 -1.9146 -0.8269 -0.7236
13387TIP3   OH261651   4.679   5.447   3.341  0.2989  0.4071 -0.1470
13387TIP3    H161652   4.707   5.527   3.296  1.1352 -0.0585 -0.4839
13387TIP3    H261653   4.584   5.452   3.342  0.3596  2.3841  1.6215
13388TIP3   OH261654   0.532   4.690   1.562 -0.0215  0.3875 -0.3468
13388TIP3    H161655   0.602   4.642   1.606 -0.9473 -1.1123 -0.4234
13388TIP3    H261656   0.577   4.755   1.508  1.2956 -0.4285 -0.2774
13389TIP3   OH261657   3.260   3.904   3.087  0.0688 -0.4052  0.1272
13389TIP3    H161658   3.238   3.854   3.008  1.1205  0.4498 -0.7385
13389TIP3    H261659   3.318   3.845   3.136 -2.2415 -1.7818  1.3448
13390TIP3   OH261660   2.535   0.816   4.757 -0.4145 -0.0513  0.0442
13390TIP3    H161661   2.488   0.733   4.757 -0.3913 -0.0648 -0.6214
13390TIP3    H261662   2.551   0.836   4.665 -1.6661  1.4031  0.0988
13391TIP3   OH261663   5.159   3.126   3.838 -0.2439  0.2411 -0.0587
13391TIP3    H161664   5.074   3.149   3.877 -0.1442  0.1413  0.2150
13391TIP3    H261665   5.211   3.092   3.911  0.8113  2.3688  0.2638
13392TIP3   OH261666   4.544   0.944   0.689  0.0851 -0.1846 -0.0813
13392TIP3    H161667   4.525   1.010   0.623  0.2643 -0.7509 -0.7130
13392TIP3    H261668   4.557   0.993   0.770  1.9941  0.7555 -0.8785
13393TIP3   OH261669   4.731   5.206  15.610  0.4976 -0.0451  0.5404
13393TIP3    H161670   4.811   5.252  15.584  0.5736 -0.5411 -0.1343
13393TIP3    H261671   4.669   5.276  15.632  0.1058  0.4829 -1.9212
13394TIP3   OH261672   6.317   3.115   5.199 -0.0045  1.0209 -0.7783
13394TIP3    H161673   6.327   3.040   5.259 -2.6600  0.8196 -0.4640
13394TIP3    H261674   6.359   3.086   5.118 -1.2567 -0.9931 -0.7745
13395TIP3   OH261675   1.113   5.440  13.234 -0.1734 -0.1209  0.1717
13395TIP3    H161676   1.152   5.354  13.222  1.4926  0.9330 -3.9416
13395TIP3    H261677   1.024   5.431  13.199 -0.2911 -0.3356  0.5214
13396TIP3   OH261678   1.805   3.894  16.468  0.3349  0.2453  0.3246
13396TIP3    H161679   1.858   3.969  16.496 -0.8176  0.6747  1.4124
13396TIP3    H261680   1.767   3.922  16.385  2.3306 -0.3483 -0.8684
13397TIP3   OH261681   5.689   4.088   6.567 -0.2654  0.6705 -0.0568
13397TIP3    H161682   5.678   4.022   6.636 -1.8601  1.4185  0.4554
13397TIP3    H261683   5.630   4.159   6.592  1.4615  2.3437 -0.5631
13398TIP3   OH261684   1.528   0.555  11.170  0.2068  0.2899  0.0426
13398TIP3    H161685   1.498   0.606  11.095  0.1338  0.1382 -0.0341
13398TIP3    H261686   1.476   0.474  11.165 -1.4179  1.1889  1.5324
13399TIP3   OH261687   3.512   2.292  15.331  0.3630 -0.1021 -0.9609
13399TIP3    H161688   3.448   2.295  15.402  0.5199  0.2727 -0.8353
13399TIP3    H261689   3.579   2.356  15.356 -0.1957  0.9248 -2.0302
13400TIP3   OH261690   4.217   5.582   3.585  0.1593 -0.4630 -0.4195
13400TIP3    H161691   4.215   5.605   3.492 -1.1573 -0.5646 -0.4423
13400TIP3    H261692   4.287   5.517   3.592  0.5623 -0.1391 -1.2558
13401TIP3   OH261693   0.627   3.060   0.092 -0.3371 -0.3585 -0.2528
13401TIP3    H161694   0.718   3.070   0.066 -0.3480  0.3185 -0.0369
13401TIP3    H261695   0.616   2.965   0.103  0.1485 -0.5083 -0.9497
13402TIP3   OH261696   6.726   1.362  16.180 -0.2087 -0.3980 -0.5452
13402TIP3    H161697   6.711   1.269  16.194 -0.2141 -0.2230  0.7024
13402TIP3    H261698   6.819   1.369  16.158 -0.2480 -0.7097 -0.8081
13403TIP3   OH261699   3.180   2.530   5.177 -0.0835  0.0476  0.1573
13403TIP3    H161700   3.111   2.469   5.203 -0.2604 -0.7235 -1.8978
13403TIP3    H261701   3.179   2.598   5.244 -1.3174 -1.1139  1.3818
13404TIP3   OH261702   0.088   1.646  12.487 -0.5003  0.0050 -0.6391
13404TIP3    H161703   0.090   1.575  12.551 -0.9048  0.5103 -0.0554
13404TIP3    H261704   0.179   1.676  12.481 -0.2423 -0.8408 -1.2247
13405TIP3   OH261705   4.006   5.347  12.501 -0.1324 -0.3414  0.2086
13405TIP3    H161706   3.929   5.323  12.553  1.1304 -0.9483  1.9143
13405TIP3    H261707   4.000   5.293  12.422 -1.7777  0.1136 -0.0091
13406TIP3   OH261708   3.375   1.146   2.087 -0.0993 -0.0619  0.1440
13406TIP3    H161709   3.400   1.075   2.147  1.4992 -0.3053 -0.7411
13406TIP3    H261710   3.297   1.185   2.127  1.7647  0.8294  3.2545
13407TIP3   OH261711   5.842   5.002   5.996  0.2158  0.2344 -0.4501
13407TIP3    H161712   5.841   5.084   5.947  0.0650  0.6841  0.2956
13407TIP3    H261713   5.803   5.024   6.080  2.1109 -0.0849  0.5675
13408TIP3   OH261714   3.312   3.652  12.591  0.2567  0.6408 -0.2023
13408TIP3    H161715   3.256   3.575  12.581 -0.0939  1.1002 -2.2579
13408TIP3    H261716   3.349   3.643  12.678  1.1928 -2.5074 -0.7793
13409TIP3   OH261717   4.887   4.618   0.258  0.0187  0.5464  0.4973
13409TIP3    H161718   4.838   4.646   0.180 -0.8843 -0.6556  0.5987
13409TIP3    H261719   4.861   4.681   0.326 -1.5099 -0.1194  0.5735
13410TIP3   OH261720   4.633   3.423   4.034  0.5170 -0.3387 -0.0752
13410TIP3    H161721   4.626   3.395   4.126  0.8323  0.7331  0.2871
13410TIP3    H261722   4.612   3.344   3.984 -0.6945 -0.6793  0.9181
13411TIP3   OH261723   2.006   0.548  11.571  0.2331 -0.6566 -0.1781
13411TIP3    H161724   1.979   0.528  11.661 -0.5905  0.3297 -0.1887
13411TIP3    H261725   1.924   0.565  11.525  0.6687 -0.9089 -1.0575
13412TIP3   OH261726   2.712   1.938  16.647 -0.2474  0.3237  0.1004
13412TIP3    H161727   2.619   1.958  16.632 -0.3343  0.4860  0.8054
13412TIP3    H261728   2.712   1.845  16.669 -0.1100  0.0641 -0.9416
13413TIP3   OH261729   3.958   5.027  15.977 -0.1184  0.5720  0.5365
13413TIP3    H161730   4.051   5.026  15.956 -0.2958  2.2274 -0.5638
13413TIP3    H261731   3.954   5.055  16.068  0.4506  0.8119  0.4903
13414TIP3   OH261732   1.970   0.412  17.378  0.0466 -0.3302  0.5162
13414TIP3    H161733   1.942   0.334  17.330 -0.0147 -0.7649  1.2468
13414TIP3    H261734   1.914   0.414  17.456  1.1950 -0.5126  1.3726
13415TIP3   OH261735   6.058   2.916  13.833  0.0848 -0.8321 -0.2442
13415TIP3    H161736   6.008   2.885  13.909  0.1077  0.7396  0.4502
13415TIP3    H261737   6.124   2.975  13.869  1.2194 -1.3823 -1.3424
13416TIP3   OH261738   3.058   0.181  14.654  0.1058  0.1581 -0.0609
13416TIP3    H161739   2.996   0.113  14.680  1.0112  0.1769  2.4724
13416TIP3    H261740   3.004   0.255  14.628 -0.9012 -1.4503 -2.8807
13417TIP3   OH261741   2.212   2.008  16.974 -0.0761  0.0731  0.1220
13417TIP3    H161742   2.243   1.928  17.016 -1.3781 -0.4125  0.2004
13417TIP3    H261743   2.125   1.985  16.941 -0.6115  1.5640  0.4531
13418TIP3   OH261744   6.722   4.582   2.310 -0.0654  0.5616  0.0301
13418TIP3    H161745   6.805   4.625   2.288 -0.1880  0.2398 -1.1512
13418TIP3    H261746   6.741   4.488   2.301 -0.1258  0.3935  1.4022
13419TIP3   OH261747   0.479   5.553   6.283  0.1408 -0.2012  0.2125
13419TIP3    H161748   0.439   5.470   6.259 -1.1204  0.3157  0.4764
13419TIP3    H261749   0.491   5.548   6.378  1.7348 -0.7712  0.0212
13420TIP3   OH261750   3.751   0.556   3.458 -0.3041  0.4511  0.8820
13420TIP3    H161751   3.747   0.589   3.548 -1.1894 -0.3610  1.1589
13420TIP3    H261752   3.829   0.598   3.421 -2.1432  4.1057  0.6665
13421TIP3   OH261753   0.443   3.811   3.043  0.4938 -0.0642  0.1637
13421TIP3    H161754   0.474   3.802   2.954  0.5251 -0.5581  0.2248
13421TIP3    H261755   0.365   3.756   3.048 -0.8914  1.7491 -0.2153
13422TIP3   OH261756   0.504   1.782  17.142 -0.2196  0.0679 -1.0047
13422TIP3    H161757   0.509   1.736  17.058 -0.0631 -0.3276 -0.7801
13422TIP3    H261758   0.410   1.794  17.157 -0.2228  1.1867 -1.7984
13423TIP3   OH261759   5.361   3.254   1.348 -0.0936 -0.4316 -0.3446
13423TIP3    H161760   5.436   3.253   1.408 -0.1459 -0.0466 -0.2705
13423TIP3    H261761   5.362   3.167   1.307  0.9594 -0.1064 -1.0507
13424TIP3   OH261762   1.469   2.871   3.992 -0.1845  0.0693  0.2906
13424TIP3    H161763   1.505   2.793   3.951 -0.1878 -1.2356  2.6021
13424TIP3    H261764   1.442   2.926   3.919 -2.4305 -3.0949 -1.4909
13425TIP3   OH261765   0.766   4.012   1.610  0.2618 -0.4026 -0.2884
13425TIP3    H161766   0.820   3.940   1.579  1.7052  0.9757 -1.1270
13425TIP3    H261767   0.678   3.990   1.579  0.5445 -2.0892  0.0290
13426TIP3   OH261768   1.587   1.303  15.961 -0.0383 -0.1405 -0.4477
13426TIP3    H161769   1.586   1.398  15.951 -0.1367 -0.2211 -1.2463
13426TIP3    H261770   1.676   1.277  15.937  0.4162 -0.1299  1.0891
13427TIP3   OH261771   4.515   1.926   3.095 -0.3418  0.7011 -0.6529
13427TIP3    H161772   4.597   1.924   3.047  0.0017 -2.6792 -0.1398
13427TIP3    H261773   4.539   1.949   3.185  0.2602 -1.1856 -0.2891
13428TIP3   OH261774   4.855   4.114   2.389 -0.3370  0.0295 -0.0448
13428TIP3    H161775   4.770   4.139   2.424  0.1537  2.0974 -0.1963
13428TIP3    H261776   4.892   4.195   2.356  3.3104  0.0449  3.3640
13429TIP3   OH261777   4.019   2.619  16.181  0.3174  0.3924 -0.0720
13429TIP3    H161778   4.035   2.711  16.202 -1.8635  1.1080 -1.2853
13429TIP3    H261779   3.924   2.609  16.187  0.5703 -2.1125  1.1747
13430TIP3   OH261780   5.875   3.989   6.083 -0.6980 -0.1410  0.0580
13430TIP3    H161781   5.879   4.027   6.170 -1.7101  3.4494 -1.2677
13430TIP3    H261782   5.948   3.927   6.080 -0.4615 -0.1874  3.2854
13431TIP3   OH261783   5.607   3.814   1.806 -0.6160 -0.3181 -0.1455
13431TIP3    H161784   5.567   3.901   1.805  0.2671  0.1932 -3.8915
13431TIP3    H261785   5.568   3.768   1.732 -0.8656 -3.1207  1.5829
13432TIP3   OH261786   1.510   6.559  17.119  0.4233  0.1160 -0.0925
13432TIP3    H161787   1.576   6.511  17.069  0.0257  1.6712 -2.2646
13432TIP3    H261788   1.457   6.491  17.161  1.3309 -1.2664 -1.0975
13433TIP3   OH261789   5.411   0.358   6.543 -0.1415  0.3394 -0.4335
13433TIP3    H161790   5.366   0.275   6.562 -0.4678  0.4843 -0.5550
13433TIP3    H261791   5.484   0.334   6.486  1.4662 -0.2498  1.7528
13434TIP3   OH261792   0.029   5.657  14.207  0.1384 -0.2818 -0.0311
13434TIP3    H161793   0.101   5.631  14.150  0.6780 -2.2155  1.4645
13434TIP3    H261794  -0.049   5.618  14.167 -0.0931  1.3767 -1.3559
13435TIP3   OH261795   4.157   1.043  11.630  0.1001  0.1264 -0.7034
13435TIP3    H161796   4.106   1.121  11.651 -1.9033 -1.4141  0.5505
13435TIP3    H261797   4.133   1.022  11.540 -0.0763  0.4471 -0.7308
13436TIP3   OH261798   0.864   4.848  15.032  0.2747 -0.5835 -0.1875
13436TIP3    H161799   0.769   4.841  15.033  0.2563 -0.4865 -0.6650
13436TIP3    H261800   0.894   4.792  15.104 -0.0365 -2.5281 -1.4699
13437TIP3   OH261801   0.573   4.531  12.063  0.0443 -0.5436  0.1611
13437TIP3    H161802   0.486   4.545  12.027  0.5074 -0.9887 -1.1795
13437TIP3    H261803   0.560   4.469  12.134 -0.6435 -1.1731 -0.4985
13438TIP3   OH261804   5.053   1.451   6.158 -0.2884  0.3489  0.1646
13438TIP3    H161805   5.035   1.449   6.252 -2.5222 -0.6357 -0.2338
13438TIP3    H261806   5.045   1.543   6.134  1.2955  0.7620  1.0674
13439TIP3   OH261807   4.151   0.878  13.788 -0.0205  0.1613  0.1738
13439TIP3    H161808   4.122   0.926  13.710  1.5104 -0.8887 -1.1050
13439TIP3    H261809   4.212   0.937  13.831  0.5706  0.0382 -0.4746
13440TIP3   OH261810   4.524   0.853   3.275 -0.0938  0.5788 -0.3687
13440TIP3    H161811   4.592   0.812   3.328  0.0442 -0.4283 -1.2936
13440TIP3    H261812   4.527   0.806   3.191 -1.6692  0.7703 -0.5568
13441TIP3   OH261813   2.158   2.916  14.613  0.8982 -0.0493 -0.0104
13441TIP3    H161814   2.147   2.827  14.580  0.4402  0.3069 -0.8699
13441TIP3    H261815   2.078   2.934  14.662  0.9419 -0.0695  0.0683
13442TIP3   OH261816   5.778   2.123  15.537 -0.3018  0.1103  0.3983
13442TIP3    H161817   5.758   2.125  15.444  0.8382 -0.5872  0.1229
13442TIP3    H261818   5.702   2.081  15.577 -0.3343 -0.5712 -0.3570
13443TIP3   OH261819   0.304   2.755   3.201  0.1034  0.0284 -0.5725
13443TIP3    H161820   0.280   2.776   3.111  2.7516  0.1440 -1.3216
13443TIP3    H261821   0.355   2.830   3.231  1.8389 -1.2776 -0.0878
13444TIP3   OH261822   4.242   1.927   0.235 -0.1141 -0.5512  0.1125
13444TIP3    H161823   4.335   1.946   0.252 -0.0944 -1.3249  1.0082
13444TIP3    H261824   4.221   1.858   0.298 -1.5299  0.1904  0.4796
13445TIP3   OH261825   3.185   6.458  13.249 -0.1092 -0.5086  0.3785
13445TIP3    H161826   3.272   6.418  13.246 -0.2750 -0.8208 -0.9543
13445TIP3    H261827   3.193   6.530  13.312  1.6188  0.5725 -0.9898
13446TIP3   OH261828   1.853   1.660  15.945 -0.7209  0.0421  0.2190
13446TIP3    H161829   1.899   1.589  15.900  1.3453 -0.8301  3.4045
13446TIP3    H261830   1.907   1.738  15.930  0.7764 -0.5376  2.1359
13447TIP3   OH261831   3.169   3.291  13.503  0.0858 -0.3573 -0.0271
13447TIP3    H161832   3.196   3.375  13.466 -1.0751 -0.2674 -0.7141
13447TIP3    H261833   3.227   3.227  13.462 -0.3857 -0.1157 -1.0973
13448TIP3   OH261834   4.096   0.328   6.278  0.0835  0.2578  0.5203
13448TIP3    H161835   4.102   0.365   6.190  0.9168  2.0864  1.2981
13448TIP3    H261836   4.173   0.272   6.287  1.1550  1.7284  0.7864
13449TIP3   OH261837   0.892   5.502  16.784 -0.0984  0.5957  0.2023
13449TIP3    H161838   0.850   5.567  16.840 -1.5048 -1.3513  1.5401
13449TIP3    H261839   0.950   5.453  16.843 -1.7058 -1.5819  0.0925
13450TIP3   OH261840   1.632   0.230  10.521 -0.0107 -0.1331 -0.3756
13450TIP3    H161841   1.554   0.280  10.544 -0.3349 -1.4014  1.5247
13450TIP3    H261842   1.702   0.295  10.514 -0.5506  0.6809  1.3528
13451TIP3   OH261843   0.918   1.143  17.264 -0.1738 -0.4737 -0.0150
13451TIP3    H161844   1.004   1.134  17.224 -0.0740 -0.1603  0.1254
13451TIP3    H261845   0.862   1.175  17.194 -0.1304 -0.4877 -0.0558
13452TIP3   OH261846   5.084   2.936   5.727 -0.5468 -0.1310  0.3364
13452TIP3    H161847   5.074   2.854   5.775 -1.4983 -0.0514  0.3084
13452TIP3    H261848   5.008   2.988   5.754  0.7161  1.2523  1.3410
13453TIP3   OH261849   1.899   1.182   1.368  0.4057 -0.2068 -0.1725
13453TIP3    H161850   1.851   1.265   1.360 -1.4836 -1.3594 -1.9172
13453TIP3    H261851   1.903   1.166   1.462 -1.0379  0.9077  0.1214
13454TIP3   OH261852   2.010   4.534   0.063  0.0894  0.0685  0.5011
13454TIP3    H161853   1.930   4.491   0.094 -0.2278  1.0538  1.0947
13454TIP3    H261854   2.081   4.476   0.090 -0.2365  0.5393  2.4659
13455TIP3   OH261855   0.101   6.103   4.052  0.6194  0.2558  0.8149
13455TIP3    H161856   0.042   6.079   3.981  1.6384 -0.5987  0.2388
13455TIP3    H261857   0.147   6.181   4.021  1.3660 -0.3600  0.3460
13456TIP3   OH261858   4.762   4.978   5.450 -0.0509  0.2070 -0.1808
13456TIP3    H161859   4.717   4.995   5.533 -0.9562  0.4378 -0.6994
13456TIP3    H261860   4.701   4.922   5.401  1.7018 -2.3941  0.4138
13457TIP3   OH261861   6.646   0.653  10.703 -0.0175 -0.0410 -0.0163
13457TIP3    H161862   6.684   0.681  10.620  0.4217 -1.5895 -0.3830
13457TIP3    H261863   6.573   0.713  10.718  0.1176  0.4891 -1.3377
13458TIP3   OH261864   0.828   3.917   4.361  0.4692 -0.3242  0.7493
13458TIP3    H161865   0.913   3.940   4.322  1.0795 -0.9824  1.6327
13458TIP3    H261866   0.803   3.837   4.317 -0.5328  0.7434 -0.6961
13459TIP3   OH261867   0.685   0.805  15.249  0.1643  0.5984 -0.2602
13459TIP3    H161868   0.697   0.754  15.170  0.1589 -0.8242  0.6164
13459TIP3    H261869   0.591   0.824  15.252  0.1440  0.5320 -0.5168
13460TIP3   OH261870   3.750   2.772   4.943 -0.1268  0.5464  0.1882
13460TIP3    H161871   3.834   2.777   4.899 -0.0515  2.1870  0.4692
13460TIP3    H261872   3.767   2.801   5.032 -1.0389  1.2101  0.1654
13461TIP3   OH261873   0.764   3.575   0.666  0.0689  0.3264  0.5177
13461TIP3    H161874   0.723   3.661   0.652  1.2167  0.8321  0.1534
13461TIP3    H261875   0.706   3.514   0.619  0.5220  1.2223 -1.3076
13462TIP3   OH261876   3.478   2.706  15.630 -0.4362 -0.0974  0.1780
13462TIP3    H161877   3.568   2.735  15.646 -0.4500  0.4528 -0.6806
13462TIP3    H261878   3.432   2.786  15.605 -0.7461 -0.6585 -1.1321
13463TIP3   OH261879   4.446   0.212   4.497  0.5154 -0.2976 -0.3403
13463TIP3    H161880   4.539   0.230   4.484  0.6261  0.0550  0.8813
13463TIP3    H261881   4.430   0.132   4.447  1.3399 -0.0493 -1.0190
13464TIP3   OH261882   1.821   2.048   1.157  0.2089  0.4590 -0.2091
13464TIP3    H161883   1.824   2.121   1.220  0.4761 -0.6181  1.0625
13464TIP3    H261884   1.847   2.088   1.074 -1.0705  2.1371  0.1267
13465TIP3   OH261885   0.949   5.046  17.132  0.4334 -0.3413  0.0057
13465TIP3    H161886   0.991   5.038  17.046 -0.8392  0.3481 -0.7101
13465TIP3    H261887   0.931   4.956  17.158 -0.2892 -0.5210 -1.0396
13466TIP3   OH261888   6.440   0.279  11.379 -0.4565 -0.2312  0.5147
13466TIP3    H161889   6.513   0.265  11.318 -0.5495 -0.0175  0.3550
13466TIP3    H261890   6.477   0.256  11.464  0.0747  0.7558  0.5621
13467TIP3   OH261891   4.639   2.678  13.054  0.7697 -0.0171 -0.6391
13467TIP3    H161892   4.601   2.766  13.051  2.3452  0.7514  0.5462
13467TIP3    H261893   4.643   2.657  13.147 -3.0875 -3.0208 -0.9006
13468TIP3   OH261894   5.046   0.608   0.031 -0.3055  1.0557  0.0517
13468TIP3    H161895   4.982   0.605   0.102  0.2775  1.9422  0.6338
13468TIP3    H261896   5.060   0.702   0.015 -0.7284  0.8754 -1.5201
13469TIP3   OH261897   0.826   3.047  11.197  0.0768 -0.3519 -0.2035
13469TIP3    H161898   0.839   2.993  11.119 -0.7932 -0.6827 -0.1300
13469TIP3    H261899   0.908   3.040  11.245  0.5466 -0.3027 -0.9960
13470TIP3   OH261900   0.546   2.030   5.530 -0.1477  0.2884 -0.2071
13470TIP3    H161901   0.522   1.955   5.475 -0.4530  0.5343 -0.4162
13470TIP3    H261902   0.577   1.991   5.612  1.0612 -0.1093 -0.8286
13471TIP3   OH261903   5.718   2.751   4.290  0.0398 -0.3388  0.4319
13471TIP3    H161904   5.653   2.816   4.316  0.4298 -0.6402  2.3003
13471TIP3    H261905   5.670   2.669   4.289 -0.8995  0.0581 -3.6664
13472TIP3   OH261906   3.131   4.719   3.790 -0.7472 -0.8044 -0.2276
13472TIP3    H161907   3.110   4.799   3.838 -1.5745  0.2456 -2.2500
13472TIP3    H261908   3.227   4.716   3.790 -0.6919  0.6138 -0.7951
13473TIP3   OH261909   1.254   0.818   2.570 -0.0888  0.0091  0.4808
13473TIP3    H161910   1.280   0.872   2.644  0.1168 -0.8368  1.0478
13473TIP3    H261911   1.326   0.756   2.559  0.5414  0.9990 -1.3475
13474TIP3   OH261912   6.129   3.870  12.271  0.1500 -0.0224 -0.0542
13474TIP3    H161913   6.173   3.881  12.187  2.1097 -0.6953  0.8297
13474TIP3    H261914   6.069   3.944  12.276  0.9575  0.7808 -1.4495
13475TIP3   OH261915   5.639   5.473   5.350  0.7655  0.2409 -0.4580
13475TIP3    H161916   5.599   5.557   5.325  0.5181  1.4388  3.4057
13475TIP3    H261917   5.578   5.434   5.412  2.1484 -1.5284 -0.1176
13476TIP3   OH261918   3.061   6.599   0.116 -0.2703  0.9497  0.4280
13476TIP3    H161919   3.080   6.690   0.097 -0.9510  0.8143 -1.0553
13476TIP3    H261920   3.032   6.562   0.033 -0.1728 -0.5843  1.0281
13477TIP3   OH261921   0.339   0.936  14.527 -0.0651 -0.0383 -0.3100
13477TIP3    H161922   0.390   0.856  14.518 -1.8255 -1.1676 -0.7603
13477TIP3    H261923   0.282   0.920  14.602  0.4544  1.3494  0.4278
13478TIP3   OH261924   2.906   2.088   4.040 -0.1915  0.1110 -0.1596
13478TIP3    H161925   2.970   2.114   4.106 -0.0748 -0.1234 -0.1779
13478TIP3    H261926   2.954   2.089   3.958 -0.8872  2.5710 -0.6036
13479TIP3   OH261927   3.647   1.095   3.693 -0.0830 -0.2645 -0.1338
13479TIP3    H161928   3.713   1.149   3.649  0.0857 -0.7304 -0.4622
13479TIP3    H261929   3.616   1.035   3.625  1.8334 -2.5561  0.9077
13480TIP3   OH261930   1.248   4.785   4.757  0.5375 -0.1660 -0.0362
13480TIP3    H161931   1.340   4.801   4.775  0.3483  0.5854  0.3034
13480TIP3    H261932   1.215   4.743   4.836  0.7556 -1.1367 -0.4525
13481TIP3   OH261933   5.888   3.981  17.121  0.1388  0.0338  0.0334
13481TIP3    H161934   5.797   4.001  17.098 -0.1328 -1.1603 -0.0075
13481TIP3    H261935   5.936   3.990  17.038 -0.3388 -1.4405 -0.4363
13482TIP3   OH261936   4.858   4.680   3.280 -0.2575  0.4962  0.1752
13482TIP3    H161937   4.870   4.657   3.188  0.5667  0.7411  0.2163
13482TIP3    H261938   4.947   4.689   3.315 -0.5535  0.2156  1.0433
13483TIP3   OH261939   6.258   1.303  15.887  0.7050  0.7257 -0.0468
13483TIP3    H161940   6.168   1.269  15.890  0.7445  0.4366 -1.6148
13483TIP3    H261941   6.295   1.265  15.808  1.0100  3.8025 -1.5163
13484TIP3   OH261942   0.200   6.589  11.338 -0.0343  0.3444  0.4226
13484TIP3    H161943   0.187   6.610  11.431 -1.0558  0.1598  0.3298
13484TIP3    H261944   0.238   6.669  11.301  1.1004  0.1650  1.1328
13485TIP3   OH261945   4.902   3.801   0.661 -0.0568  0.4982 -0.2189
13485TIP3    H161946   4.930   3.883   0.619  1.1745  0.6588  0.8469
13485TIP3    H261947   4.979   3.774   0.712 -1.2791 -0.0137  1.4185
13486TIP3   OH261948   5.155   5.156   1.250  0.0053 -0.2942  0.4484
13486TIP3    H161949   5.236   5.201   1.227  0.1000  0.1199  1.5463
13486TIP3    H261950   5.086   5.219   1.230  0.0536 -0.1261  0.8004
13487TIP3   OH261951   1.515   1.932  15.368 -1.1491  0.3902  0.4675
13487TIP3    H161952   1.437   1.898  15.412 -0.6603 -1.1793  0.1956
13487TIP3    H261953   1.516   1.888  15.283 -2.5604  4.0248 -1.6352
13488TIP3   OH261954   3.780   4.278  14.009 -0.0472 -0.1060 -0.4833
13488TIP3    H161955   3.837   4.312  13.939  2.5196  0.8125  1.8509
13488TIP3    H261956   3.710   4.343  14.017  1.8377  1.9724  0.3264
13489TIP3   OH261957   1.641   5.493   6.328 -0.2347  0.0387  0.4742
13489TIP3    H161958   1.721   5.546   6.331  0.8857 -1.5096 -0.8747
13489TIP3    H261959   1.666   5.410   6.368 -1.3160 -0.2929  0.4805
13490TIP3   OH261960   5.094   1.137  11.477 -0.3469 -0.0531 -0.6527
13490TIP3    H161961   5.044   1.161  11.555 -0.1743  1.0600 -0.8739
13490TIP3    H261962   5.027   1.117  11.411 -0.4998  0.4204 -0.6427
13491TIP3   OH261963   0.547   4.618  13.877  0.1846 -0.4572 -0.1766
13491TIP3    H161964   0.579   4.677  13.945 -1.5418 -0.2316  0.5009
13491TIP3    H261965   0.502   4.676  13.815  1.3680 -0.7126 -1.3158
13492TIP3   OH261966   4.652   0.944  16.958 -0.3724 -0.2219  0.5821
13492TIP3    H161967   4.698   1.028  16.949  0.5471 -0.7664  0.1107
13492TIP3    H261968   4.616   0.928  16.870 -1.3507  0.1243  0.9078
13493TIP3   OH261969   3.641   5.816   3.838 -0.2966 -0.0364  0.5295
13493TIP3    H161970   3.566   5.867   3.868 -0.7378 -0.1801 -0.2821
13493TIP3    H261971   3.705   5.882   3.810  0.1413  0.0968  1.7964
13494TIP3   OH261972   3.944   5.522   6.495 -0.3930  0.2925  0.3561
13494TIP3    H161973   3.901   5.605   6.475 -1.0864 -0.3283 -0.8384
13494TIP3    H261974   3.901   5.491   6.575  0.5231  1.5034  1.3674
13495TIP3   OH261975   4.329   1.520  13.916 -0.0227 -0.7134  0.1542
13495TIP3    H161976   4.360   1.584  13.980 -1.2206  0.2415 -0.1892
13495TIP3    H261977   4.407   1.468  13.894  0.3818 -1.1858  2.4787
13496TIP3   OH261978   0.180   0.369  14.582  0.2559 -0.1108 -0.6201
13496TIP3    H161979   0.201   0.310  14.655  0.1519  0.4740 -0.1049
13496TIP3    H261980   0.223   0.330  14.506  0.0061 -0.9633 -0.3337
13497TIP3   OH261981   6.045   1.988  13.408 -0.2044  0.3228  0.1630
13497TIP3    H161982   6.106   2.009  13.479  1.1040 -0.5553 -0.6525
13497TIP3    H261983   5.993   1.915  13.442 -0.4260  0.7099  0.6620
13498TIP3   OH261984   1.639   0.295  15.142  0.0030 -0.0174 -0.4640
13498TIP3    H161985   1.563   0.295  15.083 -0.2907 -0.1106 -0.0928
13498TIP3    H261986   1.604   0.261  15.225  0.6599 -0.9720 -0.5630
13499TIP3   OH261987   0.693   2.826  14.598  0.1992  0.0900  0.4662
13499TIP3    H161988   0.717   2.767  14.527  1.0424 -1.1504  1.7377
13499TIP3    H261989   0.712   2.914  14.564  1.5893 -0.5481 -0.4679
13500TIP3   OH261990   4.197   4.091  12.345 -0.2745  0.4645 -0.0647
13500TIP3    H161991   4.213   4.117  12.254 -0.1259  2.0526  0.3904
13500TIP3    H261992   4.142   4.014  12.338  0.2735  0.1732 -1.5158
13501TIP3   OH261993   1.188   6.402  14.331  0.0383 -0.0167 -0.2950
13501TIP3    H161994   1.129   6.449  14.271  0.4268  1.1343  0.2028
13501TIP3    H261995   1.144   6.407  14.416 -0.7774 -2.1159 -0.5301
13502TIP3   OH261996   1.937   0.419  16.327  0.0281  0.1047 -0.4789
13502TIP3    H161997   1.954   0.510  16.351 -1.3154 -0.0841  1.4559
13502TIP3    H261998   1.974   0.368  16.399  0.0320 -0.8329 -1.1315
13503TIP3   OH261999   2.266   3.994  16.539 -0.2393  0.2301  0.0744
13503TIP3    H162000   2.192   4.051  16.517 -2.0263 -2.4120 -1.2315
13503TIP3    H262001   2.251   3.969  16.630 -0.1255  0.8378  0.2649
13504TIP3   OH262002   5.790   5.232   2.863  0.4123 -0.0558 -0.1275
13504TIP3    H162003   5.730   5.269   2.799  0.9423  2.3979  0.7131
13504TIP3    H262004   5.876   5.266   2.838  0.8710 -0.4001  0.9340
13505TIP3   OH262005   3.928   3.452  16.862  0.1546  0.0225  0.1226
13505TIP3    H162006   3.874   3.531  16.863 -1.3284 -0.9635  0.2708
13505TIP3    H262007   3.921   3.417  16.951 -0.4662 -1.0835 -0.3425
13506TIP3   OH262008   4.548   6.743  16.485  0.0720  0.2928  0.3433
13506TIP3    H162009   4.643   6.755  16.497  0.0883 -1.0815  1.8626
13506TIP3    H262010   4.535   6.649  16.492 -1.1086  0.1357 -2.5507
13507TIP3   OH262011   3.391   6.510  16.784 -0.6623  0.2193  0.2787
13507TIP3    H162012   3.386   6.565  16.863 -2.6936 -0.0204  0.3796
13507TIP3    H262013   3.377   6.421  16.816 -0.1865 -0.0384 -0.2140
13508TIP3   OH262014   5.034   1.651  15.836  0.3733  0.1542  0.0882
13508TIP3    H162015   5.076   1.697  15.763  1.3118  0.6077  0.8853
13508TIP3    H262016   5.099   1.654  15.907 -0.2710 -0.8011  0.7544
13509TIP3   OH262017   5.462   6.445  14.309 -0.1476 -0.1096 -0.1330
13509TIP3    H162018   5.488   6.502  14.236  0.5668  0.7024  0.7305
13509TIP3    H262019   5.453   6.359  14.270 -0.2482  0.4022 -1.2775
13510TIP3   OH262020   3.655   3.023  13.701  0.7586  0.3784 -0.3792
13510TIP3    H162021   3.639   3.079  13.777 -0.8418  0.7657 -0.9614
13510TIP3    H262022   3.586   2.957  13.706  1.8273 -0.7771 -0.4304
13511TIP3   OH262023   2.289   3.810  17.154 -0.4351 -0.3484 -0.2010
13511TIP3    H162024   2.216   3.763  17.114 -1.2668  1.3629 -0.8201
13511TIP3    H262025   2.251   3.892  17.185  1.1403  0.4394 -0.2036
13512TIP3   OH262026   3.050   4.072   0.909 -0.0835  0.2767  0.0874
13512TIP3    H162027   3.019   3.992   0.865 -0.1786  0.0388  0.5849
13512TIP3    H262028   2.972   4.126   0.918 -0.3770 -0.3247  1.3458
13513TIP3   OH262029   5.063   6.745  11.108 -0.0910 -0.2736  0.2240
13513TIP3    H162030   5.063   6.784  11.020  0.3260 -1.1095 -0.1580
13513TIP3    H262031   5.026   6.657  11.095 -3.2460  0.7228  1.4416
13514TIP3   OH262032   5.606   4.226   1.646  0.2095  0.1023  0.9151
13514TIP3    H162033   5.518   4.265   1.647  0.1854  0.0828  2.1445
13514TIP3    H262034   5.609   4.173   1.726  1.5555  0.6044  1.2279
13515TIP3   OH262035   3.112   2.871   3.955  0.2339 -0.6699  0.7396
13515TIP3    H162036   3.072   2.926   4.023  0.4426  0.0146  0.3154
13515TIP3    H262037   3.125   2.786   3.998  2.1117  0.2733  2.1448
13516TIP3   OH262038   0.919   5.699   0.622  0.6950  0.4560  0.2145
13516TIP3    H162039   0.865   5.769   0.659  1.0389  0.3876  0.8541
13516TIP3    H262040   0.883   5.619   0.659  0.7281  0.3433  0.0058
13517TIP3   OH262041   2.098   4.719   4.573  0.4560  0.4298  0.0344
13517TIP3    H162042   2.086   4.664   4.651  1.0130  0.0776 -0.1214
13517TIP3    H262043   2.184   4.693   4.538  0.5893  1.1793 -0.2217
13518TIP3   OH262044   5.636   5.642   1.593  0.9787  0.5449  0.1485
13518TIP3    H162045   5.603   5.600   1.513  0.6707  1.8494 -0.4437
13518TIP3    H262046   5.724   5.606   1.604  0.3164 -1.1042  0.3389
13519TIP3   OH262047   1.470   5.879  11.065  0.0376 -0.1003  0.2626
13519TIP3    H162048   1.455   5.973  11.072  0.3249  0.1104 -1.4530
13519TIP3    H262049   1.445   5.858  10.975  1.1761 -1.4316  0.2268
13520TIP3   OH262050   0.540   4.363  15.137  0.0313  0.5592  0.0009
13520TIP3    H162051   0.595   4.430  15.178  0.0244  1.1638 -0.9638
13520TIP3    H262052   0.537   4.387  15.045 -0.6628 -0.2998 -0.2114
13521TIP3   OH262053   4.837   3.821  11.645  0.4110  0.4892  0.4600
13521TIP3    H162054   4.766   3.803  11.584  0.5828  3.6009 -0.8200
13521TIP3    H262055   4.794   3.840  11.728 -0.7143  4.7665 -0.8377
13522TIP3   OH262056   2.998   1.020  11.683 -0.1200 -0.0103 -0.0437
13522TIP3    H162057   3.054   1.059  11.750 -1.0018 -0.4956  1.0213
13522TIP3    H262058   2.912   1.059  11.698 -0.5402 -0.8208 -0.2711
13523TIP3   OH262059   0.751   2.353   4.012 -0.2093 -0.2611  0.4301
13523TIP3    H162060   0.692   2.280   4.028  0.2154 -0.0145  4.2080
13523TIP3    H262061   0.697   2.431   4.022 -0.4123  0.0555 -2.3907
13524TIP3   OH262062   0.481   6.438   6.552  0.2679  0.2671  0.6364
13524TIP3    H162063   0.547   6.390   6.602  1.1964  1.3467  0.4792
13524TIP3    H262064   0.520   6.524   6.537 -0.3262  0.2382 -1.2446
13525TIP3   OH262065   5.127   5.113  11.241 -0.0113  0.0953 -0.4672
13525TIP3    H162066   5.059   5.047  11.251 -0.0981  0.4539  2.0186
13525TIP3    H262067   5.178   5.085  11.165 -1.0167 -1.9161 -0.4480
13526TIP3   OH262068   6.257   4.322   4.859  0.5171  0.1494 -0.4327
13526TIP3    H162069   6.299   4.365   4.784  1.7874 -2.1048 -1.1139
13526TIP3    H262070   6.325   4.319   4.927 -1.0044  3.3402  1.4519
13527TIP3   OH262071   5.437   5.825   4.195 -0.4233 -0.4511  0.2211
13527TIP3    H162072   5.469   5.913   4.174 -0.0704 -0.6065  0.1040
13527TIP3    H262073   5.497   5.793   4.262  0.0962 -1.0150 -0.4967
13528TIP3   OH262074   3.418   0.282  13.858  0.0886 -0.4013  0.0511
13528TIP3    H162075   3.364   0.289  13.779 -1.0840  0.4287  0.8937
13528TIP3    H262076   3.388   0.203  13.901 -0.1143 -0.2006  0.2771
13529TIP3   OH262077   4.025   3.209  13.704 -0.4326  0.2537 -0.0935
13529TIP3    H162078   3.950   3.155  13.679 -1.5899  1.0452  1.4699
13529TIP3    H262079   4.092   3.147  13.732 -2.4417 -0.5035  3.6827
13530TIP3   OH262080   1.110   3.915   5.423  0.2820  0.5017 -0.8045
13530TIP3    H162081   1.016   3.899   5.432  0.1681  0.8094 -1.3782
13530TIP3    H262082   1.150   3.831   5.446 -0.0800  0.6190  0.2980
13531TIP3   OH262083   1.864   5.524  17.138  0.3772  0.1600  0.4894
13531TIP3    H162084   1.912   5.542  17.219  1.1874 -0.5339  0.1825
13531TIP3    H262085   1.827   5.437  17.151  0.1586  0.2207  0.2757
13532TIP3   OH262086   5.294   5.210  10.814 -0.2432 -0.5467 -0.3179
13532TIP3    H162087   5.370   5.175  10.767  0.3536  0.0327  0.1977
13532TIP3    H262088   5.242   5.253  10.746 -0.2143 -1.0991 -0.7043
13533TIP3   OH262089   2.293   4.949  15.229 -0.1233  0.9651 -0.1045
13533TIP3    H162090   2.225   4.943  15.296  0.0205 -0.9991 -0.0799
13533TIP3    H262091   2.340   5.029  15.250 -0.1773  0.4842  2.0892
13534TIP3   OH262092   3.138   2.687  12.499 -0.0802 -0.2156 -0.0738
13534TIP3    H162093   3.154   2.715  12.589 -1.0455 -0.5200  0.1985
13534TIP3    H262094   3.047   2.658  12.498 -0.4624  0.9180 -1.4381
13535TIP3   OH262095   1.585   4.545  15.811 -0.0956 -0.4502  0.7227
13535TIP3    H162096   1.631   4.464  15.831  1.4388  0.5526  1.4017
13535TIP3    H262097   1.625   4.610  15.868  0.0887  1.2144 -1.2108
13536TIP3   OH262098   0.345   1.125  11.614 -0.5159 -0.3296 -0.0496
13536TIP3    H162099   0.334   1.160  11.525  0.2020  0.9968  0.3563
13536TIP3    H262100   0.318   1.197  11.671 -1.4421 -1.3499  0.8134
13537TIP3   OH262101   5.771   6.058  13.793 -0.3888  0.1454  0.6914
13537TIP3    H162102   5.839   6.069  13.726  1.5526 -1.6575  2.2454
13537TIP3    H262103   5.807   6.100  13.871 -1.0509 -0.8005  1.5381
13538TIP3   OH262104   6.591   2.298  16.228  0.1658  0.0811 -0.0777
13538TIP3    H162105   6.615   2.383  16.192  1.5042 -0.3449 -0.2310
13538TIP3    H262106   6.646   2.235  16.181 -0.2648 -0.7917  0.5590
13539TIP3   OH262107   2.662   1.678  11.940  0.1954  0.3806 -1.0300
13539TIP3    H162108   2.656   1.750  11.876  2.2360  0.7952 -0.8444
13539TIP3    H262109   2.656   1.722  12.025  0.7030  0.2611 -0.9265
13540TIP3   OH262110   6.174   2.626   2.353  0.5557  1.0914  0.0723
13540TIP3    H162111   6.215   2.551   2.311  1.5571  1.1142  0.9744
13540TIP3    H262112   6.086   2.629   2.316  0.6614 -0.2377 -0.3271
13541TIP3   OH262113   0.435   5.439   5.503  0.1281 -0.4288  0.1633
13541TIP3    H162114   0.394   5.354   5.518  0.3657 -0.2715  1.8537
13541TIP3    H262115   0.528   5.425   5.523 -0.1717  0.7096  2.7085
13542TIP3   OH262116   5.096   5.566   1.784 -0.1100  0.1344 -0.0619
13542TIP3    H162117   5.054   5.652   1.785  0.0242  0.2658 -2.1027
13542TIP3    H262118   5.040   5.512   1.840 -2.2453  0.6798 -1.5412
13543TIP3   OH262119   5.799   2.713   5.388  0.1075 -0.4269 -0.7479
13543TIP3    H162120   5.792   2.692   5.481 -3.5798  0.5585 -0.6342
13543TIP3    H262121   5.838   2.801   5.386  3.0559 -1.6262 -0.4392
13544TIP3   OH262122   1.157   1.126  13.842  0.3014  0.0059 -0.2196
13544TIP3    H162123   1.152   1.075  13.762  2.1439 -2.6683  1.2185
13544TIP3    H262124   1.251   1.135  13.859  0.0093  2.5576  0.4577
13545TIP3   OH262125   1.959   3.907  13.973  0.4282  0.6035 -0.4341
13545TIP3    H162126   1.984   3.827  14.020  0.9690  0.8539 -0.2845
13545TIP3    H262127   2.004   3.900  13.889  0.0596  0.5083 -0.6261
13546TIP3   OH262128   1.795   5.704   3.263 -0.2627 -0.1651 -0.2072
13546TIP3    H162129   1.718   5.734   3.312 -0.5361 -1.7108  0.3711
13546TIP3    H262130   1.864   5.696   3.328 -0.3940 -1.4242 -0.1959
13547TIP3   OH262131   2.700   0.207  10.704  0.5501 -0.2121 -0.4487
13547TIP3    H162132   2.752   0.259  10.765 -1.2288 -0.0886  1.0472
13547TIP3    H262133   2.756   0.132  10.683  1.0140 -0.5896  1.8576
13548TIP3   OH262134   0.106   2.431  12.857  0.1095 -0.4381 -0.3797
13548TIP3    H162135   0.192   2.458  12.824  0.6180 -0.1481  1.1210
13548TIP3    H262136   0.063   2.513  12.883  0.4203 -0.7853  1.2869
13549TIP3   OH262137   0.655   3.600  15.882 -0.3644 -0.1928  0.1082
13549TIP3    H162138   0.566   3.620  15.853 -0.4685  1.1758  1.2438
13549TIP3    H262139   0.704   3.681  15.865  0.8802 -1.1602 -1.1881
13550TIP3   OH262140   1.653   5.721  12.054 -0.2488 -0.0616 -0.8516
13550TIP3    H162141   1.743   5.714  12.024 -0.5748 -0.5506 -1.7533
13550TIP3    H262142   1.601   5.677  11.986 -1.0071 -1.2748  0.4407
13551TIP3   OH262143   1.119   2.520  14.445  0.4421  0.1494 -0.0262
13551TIP3    H162144   1.144   2.502  14.355 -0.8151 -0.8099 -0.2007
13551TIP3    H262145   1.112   2.434  14.487 -0.6024  0.4792  0.5237
13552TIP3   OH262146   1.317   0.040  11.525  0.5220  0.2482 -0.0348
13552TIP3    H162147   1.363   0.052  11.608 -0.4949  0.7470  0.4644
13552TIP3    H262148   1.384   0.058  11.459  0.7102  2.4360  0.6776
13553TIP3   OH262149   0.189   3.880  11.755  0.5524  0.1392 -0.4218
13553TIP3    H162150   0.272   3.834  11.769 -0.0160 -0.7088  0.2274
13553TIP3    H262151   0.212   3.972  11.762  1.5183 -0.0633 -0.6679
13554TIP3   OH262152   1.605   1.844  13.491  0.3956 -0.0156  0.2499
13554TIP3    H162153   1.578   1.759  13.523 -0.9123 -0.3239 -1.5401
13554TIP3    H262154   1.578   1.906  13.559  0.2157 -0.8799  0.9760
13555TIP3   OH262155   0.230   0.021   5.106  0.4773 -0.1802  0.1912
13555TIP3    H162156   0.319   0.022   5.139  0.7961 -0.2150 -0.6391
13555TIP3    H262157   0.223  -0.062   5.059 -0.5574 -1.0078  1.7140
13556TIP3   OH262158   5.378   3.813  15.323 -0.6068  0.0588  0.7273
13556TIP3    H162159   5.401   3.849  15.237 -0.1461  0.4437  1.0028
13556TIP3    H262160   5.449   3.751  15.343 -0.5112  0.2508  0.9918
13557TIP3   OH262161   0.537   1.875   3.226  0.4185 -0.7092  0.0772
13557TIP3    H162162   0.569   1.965   3.229 -2.7044  0.5695 -0.4514
13557TIP3    H262163   0.563   1.843   3.139  2.6328 -0.8275  0.7449
13558TIP3   OH262164   5.132   0.313  11.667 -0.1960 -0.1894 -0.8880
13558TIP3    H162165   5.219   0.339  11.698  0.5414 -1.5562 -1.7195
13558TIP3    H262166   5.095   0.264  11.740  0.3265 -0.8353 -1.0458
13559TIP3   OH262167   6.345   2.525   5.098 -0.6970  0.0428 -0.2034
13559TIP3    H162168   6.345   2.436   5.062  2.0994 -0.5145  0.8613
13559TIP3    H262169   6.361   2.581   5.022  0.2254 -0.6515 -0.5459
13560TIP3   OH262170   0.166   6.007   4.736 -0.1945  0.3785  0.0082
13560TIP3    H162171   0.204   5.964   4.813 -0.3075  0.4795  0.1203
13560TIP3    H262172   0.236   6.064   4.704 -0.8160  1.9003  1.2373
13561TIP3   OH262173   0.324   6.302   2.385 -0.3435  0.5688  0.0936
13561TIP3    H162174   0.252   6.244   2.409  1.1351 -1.4013  0.0036
13561TIP3    H262175   0.358   6.266   2.303  0.5225  1.6520 -0.0507
13562TIP3   OH262176   3.890   0.925   3.473 -0.1293 -0.1826 -0.4464
13562TIP3    H162177   3.869   1.018   3.468 -0.6372 -0.1865  1.0611
13562TIP3    H262178   3.979   0.918   3.439 -0.5165  0.6681 -1.6749
13563TIP3   OH262179   5.333   2.721   2.488  0.4481 -0.5889 -0.3522
13563TIP3    H162180   5.308   2.784   2.556  0.5763  1.3509 -2.0293
13563TIP3    H262181   5.379   2.773   2.422 -0.0629 -2.3171 -2.1691
13564TIP3   OH262182   0.523   0.560   5.236  0.1525 -0.0740  0.4688
13564TIP3    H162183   0.514   0.605   5.152  0.0476 -2.4239 -0.8892
13564TIP3    H262184   0.532   0.467   5.212  0.4448 -0.7932  3.0572
13565TIP3   OH262185   0.895   4.626   4.697 -0.7445 -0.1511  0.0920
13565TIP3    H162186   0.909   4.629   4.792 -0.5366 -1.9990  0.1621
13565TIP3    H262187   0.983   4.636   4.660 -0.6316 -0.8255  0.1602
13566TIP3   OH262188   4.956   3.194   0.156 -0.1483  0.0958  0.0469
13566TIP3    H162189   4.938   3.286   0.137  1.7835  0.4964 -0.0854
13566TIP3    H262190   5.024   3.169   0.094  1.1183 -0.6865  1.6699
13567TIP3   OH262191   1.752   5.063   4.369  0.8954 -0.2627 -0.2219
13567TIP3    H162192   1.658   5.076   4.355  0.6287 -0.8690  0.8400
13567TIP3    H262193   1.777   4.997   4.305  0.1154 -1.6447  0.8367
13568TIP3   OH262194   3.067   5.183  16.163  0.4513  0.7008 -0.1055
13568TIP3    H162195   3.105   5.099  16.190  0.0217  0.5030 -0.0946
13568TIP3    H262196   2.973   5.173  16.182  0.4018  1.1956 -0.0753
13569TIP3   OH262197   0.760   5.299  17.000  0.2893 -0.1707 -0.3084
13569TIP3    H162198   0.850   5.273  17.021  0.1077 -0.7675 -0.2500
13569TIP3    H262199   0.765   5.334  16.911  1.1093  2.5717  0.7235
13570TIP3   OH262200   2.231   4.801  16.197 -0.1412 -0.2082  0.5342
13570TIP3    H162201   2.147   4.787  16.241 -0.4698  2.1583  0.7836
13570TIP3    H262202   2.257   4.714  16.166 -2.1914 -1.1486  1.2953
13571TIP3   OH262203   5.386   5.148  14.541  0.1091 -0.3028 -0.1943
13571TIP3    H162204   5.334   5.100  14.605 -0.1855  1.0489  0.6296
13571TIP3    H262205   5.351   5.121  14.456 -0.7963 -0.6962  0.2966
13572TIP3   OH262206   3.768   6.566  10.898  0.5053 -0.5847  0.3428
13572TIP3    H162207   3.707   6.518  10.953 -0.4595  0.8372  0.5693
13572TIP3    H262208   3.735   6.554  10.809  1.0574 -1.4412  0.2434
13573TIP3   OH262209   3.755   0.114  16.580  0.3281  0.0664 -0.7137
13573TIP3    H162210   3.733   0.197  16.623  0.5058  0.6056 -1.6309
13573TIP3    H262211   3.788   0.140  16.494  0.8547 -0.9344 -0.8304
13574TIP3   OH262212   0.850   3.381   3.858  0.5377 -0.2005  0.0404
13574TIP3    H162213   0.942   3.356   3.861  1.3600  2.4604 -0.0255
13574TIP3    H262214   0.820   3.370   3.948  1.2092 -0.1536  0.2769
13575TIP3   OH262215   1.788   6.001  15.184 -0.1603  0.1872 -0.1229
13575TIP3    H162216   1.881   6.024  15.195  0.1258  0.3206 -2.3158
13575TIP3    H262217   1.740   6.069  15.231  0.8098 -0.9304  2.7156
13576TIP3   OH262218   0.672   0.444   0.530 -0.2137 -0.3799  0.0917
13576TIP3    H162219   0.629   0.519   0.489  0.5166  0.3965  0.6990
13576TIP3    H262220   0.673   0.466   0.624  2.7507  0.3309 -0.0115
13577TIP3   OH262221   6.158   4.854  17.212  0.0034  0.3703  0.1561
13577TIP3    H162222   6.065   4.876  17.208 -0.0158  0.5302  1.1859
13577TIP3    H262223   6.199   4.913  17.149 -0.6390 -0.0550 -0.6973
13578TIP3   OH262224   0.748   2.381  17.413 -0.7181  0.3094 -0.6190
13578TIP3    H162225   0.768   2.291  17.386 -0.2296  0.3336 -0.3438
13578TIP3    H262226   0.732   2.374  17.507 -2.1110  0.2764 -0.8223
13579TIP3   OH262227   1.436   3.997  15.347 -0.8205  0.1755  0.0136
13579TIP3    H162228   1.522   4.039  15.355 -0.8575  0.6002 -1.4813
13579TIP3    H262229   1.432   3.969  15.255 -1.0575 -2.5676  0.7653
13580TIP3   OH262230   2.509   4.339   3.476  0.1384  0.3767 -0.1584
13580TIP3    H162231   2.567   4.415   3.468  0.6797  0.2943  2.1607
13580TIP3    H262232   2.568   4.263   3.477 -0.2164  0.0964 -0.3512
13581TIP3   OH262233   0.608   1.093  11.357  0.1379 -0.2475  0.0678
13581TIP3    H162234   0.678   1.152  11.386  0.5193 -1.0223  0.7352
13581TIP3    H262235   0.652   1.011  11.336 -0.5327 -0.6652  0.2408
13582TIP3   OH262236   4.689   5.085   3.632  0.0686  0.2673  0.8147
13582TIP3    H162237   4.657   5.128   3.711 -1.6435 -1.3729  1.0753
13582TIP3    H262238   4.719   4.999   3.662 -2.2180 -1.0883 -0.4684
13583TIP3   OH262239   5.969   1.118  12.393  0.1963  0.0309  0.1074
13583TIP3    H162240   5.897   1.147  12.449  0.5430 -1.0074  1.1433
13583TIP3    H262241   6.025   1.195  12.383  0.6304  0.0229  2.0437
13584TIP3   OH262242   6.292   4.016  14.842 -0.4642 -0.2861  0.1918
13584TIP3    H162243   6.296   3.983  14.753 -0.6141 -2.5693  0.9686
13584TIP3    H262244   6.380   4.049  14.860 -0.5116  0.4622 -0.8561
13585TIP3   OH262245   1.304   0.996   4.347  0.2170  0.5983  0.2079
13585TIP3    H162246   1.346   1.044   4.419 -0.2648 -0.2302  1.0644
13585TIP3    H262247   1.364   1.008   4.273  0.4084  1.9930  0.5532
13586TIP3   OH262248   1.881   5.735   4.284  0.4532 -0.3649  0.5849
13586TIP3    H162249   1.955   5.704   4.232  0.7357  0.7530  0.2992
13586TIP3    H262250   1.850   5.813   4.238 -0.2954 -0.2611  1.2354
13587TIP3   OH262251   2.619   3.024   5.571  0.0638 -0.2218  0.0194
13587TIP3    H162252   2.605   3.100   5.627 -0.2227 -0.8455  0.8161
13587TIP3    H262253   2.610   2.949   5.630  2.5967 -0.8361 -0.2555
13588TIP3   OH262254   3.711   3.878   6.172 -0.2117 -0.6228  0.2415
13588TIP3    H162255   3.731   3.971   6.167  3.2097 -1.2631 -0.7699
13588TIP3    H262256   3.652   3.870   6.247  0.1660  2.2171  0.9633
13589TIP3   OH262257   1.193   4.305   0.503  0.2437  0.2995  0.1555
13589TIP3    H162258   1.199   4.245   0.429  3.2939 -0.0381  0.5712
13589TIP3    H262259   1.188   4.248   0.580  0.4023  0.6123  0.3997
13590TIP3   OH262260   6.055   4.726  12.484 -0.3174  0.1577  0.1508
13590TIP3    H162261   6.145   4.739  12.454 -0.6433 -1.5644 -1.7849
13590TIP3    H262262   6.063   4.664  12.557  0.0087 -1.2015 -0.9914
13591TIP3   OH262263   1.860   3.611  13.840  0.6199 -0.1527  0.3755
13591TIP3    H162264   1.859   3.518  13.818  1.0104  0.1707 -1.1572
13591TIP3    H262265   1.887   3.615  13.932 -2.1212 -1.6714  1.3472
13592TIP3   OH262266   1.770   0.968   3.127 -0.5195 -0.3035 -0.3349
13592TIP3    H162267   1.795   1.050   3.169 -1.5283  0.8238 -1.8231
13592TIP3    H262268   1.824   0.902   3.170 -0.6486  0.9133  1.8592
13593TIP3   OH262269   6.410   2.353   0.024  0.0626 -0.0897  0.6908
13593TIP3    H162270   6.405   2.447   0.042 -1.0885 -0.3763  1.9848
13593TIP3    H262271   6.321   2.321   0.039  0.0684 -1.1579 -1.2060
13594TIP3   OH262272   2.381   0.502   1.244 -0.3465  0.2104 -0.0052
13594TIP3    H162273   2.297   0.537   1.272 -0.3367  1.0671 -0.9768
13594TIP3    H262274   2.366   0.409   1.233 -1.5131  0.5210 -1.3142
13595TIP3   OH262275   2.334   0.263   3.553 -0.0136 -0.4590 -0.4624
13595TIP3    H162276   2.270   0.305   3.611 -0.4811  0.8311 -1.8203
13595TIP3    H262277   2.411   0.319   3.559 -0.7915  0.9984 -2.6246
13596TIP3   OH262278   2.813   1.628   1.180  0.0192 -0.1587  0.5845
13596TIP3    H162279   2.768   1.581   1.250 -1.4594  1.0320  0.4866
13596TIP3    H262280   2.905   1.629   1.207 -0.7355  2.0963  3.6711
13597TIP3   OH262281   3.023   6.306  12.245 -0.2820 -0.1337  0.1472
13597TIP3    H162282   3.094   6.279  12.304  0.0047  0.9987  0.3332
13597TIP3    H262283   2.959   6.235  12.252  1.4318 -1.9211 -1.1129
13598TIP3   OH262284   0.676   3.890  12.155  0.1557 -0.4507  0.6657
13598TIP3    H162285   0.659   3.836  12.078  1.2401  0.9172 -0.6011
13598TIP3    H262286   0.637   3.975  12.133  2.0102  0.4991  0.8292
13599TIP3   OH262287   2.790   3.675   2.443  0.3750  0.6540  0.1694
13599TIP3    H162288   2.779   3.706   2.533 -3.8161  0.6581 -0.1562
13599TIP3    H262289   2.744   3.591   2.441  3.5743 -1.2315 -1.2054
13600TIP3   OH262290   1.227   6.629  10.986 -0.5318 -0.6227 -0.2164
13600TIP3    H162291   1.228   6.699  11.051 -2.1164 -1.1346  0.4080
13600TIP3    H262292   1.253   6.671  10.904  1.4677  0.0470  0.6919
13601TIP3   OH262293   2.530   1.080  12.701 -0.2081  0.5439  0.4719
13601TIP3    H162294   2.445   1.039  12.714 -0.1368  0.3080  0.2184
13601TIP3    H262295   2.585   1.044  12.771 -0.3555  0.8133  0.7285
13602TIP3   OH262296   4.574   5.760  16.581 -0.4139  0.4301 -0.6296
13602TIP3    H162297   4.655   5.768  16.631 -0.0622 -1.6994 -0.7581
13602TIP3    H262298   4.506   5.788  16.642 -0.1438 -3.2439  1.7089
13603TIP3   OH262299   5.393   4.949   3.860  0.6527  0.1956 -0.0373
13603TIP3    H162300   5.352   4.936   3.775  0.9479 -0.9706 -0.0103
13603TIP3    H262301   5.477   4.904   3.853  0.5480 -0.1754  0.9680
13604TIP3   OH262302   1.456   0.630  16.322  0.1714  0.3929 -0.4751
13604TIP3    H162303   1.362   0.650  16.324  0.2118  0.6789 -1.0419
13604TIP3    H262304   1.472   0.600  16.232  0.1336 -2.2068  0.3186
13605TIP3   OH262305   2.593   2.263   1.518 -0.3509  0.2646  0.0489
13605TIP3    H162306   2.658   2.334   1.514 -0.9490  0.8240  0.0101
13605TIP3    H262307   2.606   2.214   1.437  0.4082  0.0187  0.3099
13606TIP3   OH262308   0.453   3.886  14.985 -0.4428  0.2366  0.5240
13606TIP3    H162309   0.451   3.953  15.054 -0.8166  1.1392 -0.3353
13606TIP3    H262310   0.545   3.884  14.957 -0.2923 -0.1230  1.0282
13607TIP3   OH262311   2.933   6.027  12.760 -0.3332 -0.2746 -0.1016
13607TIP3    H162312   2.871   6.005  12.830  1.7216 -0.3940  1.8222
13607TIP3    H262313   2.967   5.942  12.731 -0.3275 -0.1665 -0.4098
13608TIP3   OH262314   0.638   2.412  13.278  0.0997  0.4461 -0.3400
13608TIP3    H162315   0.604   2.323  13.269  1.9239 -0.1950 -1.3842
13608TIP3    H262316   0.723   2.410  13.234  1.5892  1.9087  2.2444
13609TIP3   OH262317   2.503   0.199   4.346 -0.0600 -0.4289  0.2200
13609TIP3    H162318   2.451   0.243   4.280 -1.3612 -2.0326  0.1341
13609TIP3    H262319   2.594   0.209   4.316 -0.4650  0.5387 -0.7379
13610TIP3   OH262320   3.990   3.918  12.245  0.1646 -0.7078 -0.0891
13610TIP3    H162321   3.911   3.959  12.279  0.8974  0.7672 -0.0590
13610TIP3    H262322   3.981   3.825  12.268  0.2161  0.0051  3.4536
13611TIP3   OH262323   1.822   5.606  11.162  0.0658 -0.2941  0.1787
13611TIP3    H162324   1.903   5.655  11.146 -0.5893  0.1008 -2.5181
13611TIP3    H262325   1.842   5.517  11.134  0.0925 -0.6297  1.2586
13612TIP3   OH262326   5.731   6.416  14.297 -0.7286 -0.5547 -0.0983
13612TIP3    H162327   5.717   6.414  14.202 -1.4249 -1.2361  0.0044
13612TIP3    H262328   5.642   6.416  14.333 -0.4738  0.3519  0.5515
13613TIP3   OH262329   3.443   5.209   1.867 -0.2406  0.1558  0.2569
13613TIP3    H162330   3.471   5.134   1.918 -0.6960 -1.6107 -1.9368
13613TIP3    H262331   3.363   5.180   1.823  0.0365  1.6147 -1.3054
13614TIP3   OH262332   6.555   5.625  16.726  0.6992  0.1665 -0.0247
13614TIP3    H162333   6.563   5.580  16.642 -0.4499 -1.0182  0.4648
13614TIP3    H262334   6.644   5.653  16.748  0.9189  1.1085 -1.9432
13615TIP3   OH262335   3.080   2.615   0.881  0.0546  0.0052  0.1868
13615TIP3    H162336   2.998   2.582   0.843 -0.9475  2.7456 -0.2727
13615TIP3    H262337   3.056   2.648   0.967  0.7493  0.4955  0.2062
13616TIP3   OH262338   2.570   0.064  13.219  0.2570  0.4590  0.5739
13616TIP3    H162339   2.492   0.092  13.266 -0.8861 -0.9852 -0.3814
13616TIP3    H262340   2.641   0.115  13.258 -1.2071  2.1436  1.1379
13617TIP3   OH262341   0.162   2.439   0.529  0.3506  0.0654 -0.3317
13617TIP3    H162342   0.249   2.449   0.568  0.0379  1.1894  0.0857
13617TIP3    H262343   0.118   2.521   0.546 -0.0547  0.3444 -2.4506
13618TIP3   OH262344   0.899   0.464   1.715  0.1380 -0.2209  0.7113
13618TIP3    H162345   0.982   0.491   1.675 -0.0236  0.0387  0.5534
13618TIP3    H262346   0.847   0.431   1.642 -0.3532  0.7328  0.6208
13619TIP3   OH262347   0.467   2.638  13.253 -0.6915  0.0409  0.1096
13619TIP3    H162348   0.494   2.678  13.171  0.9475  0.1697  0.6612
13619TIP3    H262349   0.520   2.558  13.260 -2.2610 -1.0387  0.1080
13620TIP3   OH262350   0.668   4.744   4.087 -0.6819  0.4525 -0.1306
13620TIP3    H162351   0.720   4.804   4.032 -2.2958  1.6218 -0.4700
13620TIP3    H262352   0.601   4.710   4.027 -2.1679  1.3613  0.9540
13621TIP3   OH262353   3.131   2.153   5.864  0.0709 -0.1149  0.3310
13621TIP3    H162354   3.088   2.201   5.935 -1.1141 -0.5760 -0.0577
13621TIP3    H262355   3.223   2.178   5.872 -0.1343  0.3530  1.6246
13622TIP3   OH262356   5.260   2.810   3.595 -0.1065  0.1311  0.3361
13622TIP3    H162357   5.289   2.847   3.512  1.5369 -0.8987  0.4052
13622TIP3    H262358   5.340   2.805   3.648 -0.8748 -0.5046  1.4739
13623TIP3   OH262359   5.635   2.596  15.508  0.2030  0.9661 -0.4842
13623TIP3    H162360   5.589   2.678  15.492  0.0200  0.7971 -0.8317
13623TIP3    H262361   5.615   2.541  15.432 -1.6944 -0.3154  0.8478
13624TIP3   OH262362   3.626   2.036  12.091 -0.1597  0.6992  0.4176
13624TIP3    H162363   3.555   1.977  12.067  0.3378  0.3000 -0.1065
13624TIP3    H262364   3.699   1.979  12.116  0.1058  1.0944  0.5737
13625TIP3   OH262365   5.973   1.567   5.557  0.0804 -1.0625 -0.1568
13625TIP3    H162366   6.041   1.612   5.507 -1.3949  1.5866  0.0469
13625TIP3    H262367   5.935   1.505   5.495  1.3189 -1.1500 -0.8648
13626TIP3   OH262368   4.098   1.949  12.820 -0.0730  0.1575 -0.0067
13626TIP3    H162369   4.025   2.006  12.795  0.1995  0.6536  0.3156
13626TIP3    H262370   4.161   2.008  12.862  1.1439 -0.0173 -1.5248
13627TIP3   OH262371   6.112   0.507   3.760 -0.4109  0.3046  0.0770
13627TIP3    H162372   6.060   0.513   3.680  0.7798  2.4688 -0.6055
13627TIP3    H262373   6.093   0.588   3.808  1.3347  0.5564  0.4163
13628TIP3   OH262374   0.851   3.125   5.910  0.1421  0.5629 -0.2059
13628TIP3    H162375   0.914   3.055   5.896 -0.0549  0.4810 -0.7108
13628TIP3    H262376   0.832   3.158   5.822  1.1079  2.0368  0.1090
13629TIP3   OH262377   2.235   1.475   4.100  0.7641  0.2987  0.7321
13629TIP3    H162378   2.305   1.541   4.102  1.8648 -0.8017 -0.3105
13629TIP3    H262379   2.276   1.396   4.135 -0.6945  0.2593  2.4771
13630TIP3   OH262380   3.959   1.837   0.365  0.7434  0.3013 -0.4771
13630TIP3    H162381   3.965   1.817   0.272  1.3695 -0.0936 -0.3594
13630TIP3    H262382   3.959   1.751   0.408  2.2062  0.4912 -0.0254
13631TIP3   OH262383   2.024   6.728   4.937 -0.7621  0.3037  0.1520
13631TIP3    H162384   2.024   6.654   4.876 -0.3883  0.3223  0.1292
13631TIP3    H262385   2.112   6.764   4.932 -0.1746 -0.7518  1.9718
13632TIP3   OH262386   0.351   1.033   4.715  0.3626 -0.5819 -0.0607
13632TIP3    H162387   0.445   1.048   4.722  0.4484 -1.2151  0.2617
13632TIP3    H262388   0.329   1.055   4.625  0.6719  0.3372  0.0820
13633TIP3   OH262389   5.428   2.798   4.975 -0.3463 -0.5752  0.5504
13633TIP3    H162390   5.353   2.811   5.034 -0.3192 -0.7089  0.6148
13633TIP3    H262391   5.493   2.752   5.029  0.2048  0.4861  0.8243
13634TIP3   OH262392   6.218   1.398   0.284  0.2011  0.4336  0.1097
13634TIP3    H162393   6.180   1.346   0.213  0.7632 -0.2524  0.2951
13634TIP3    H262394   6.204   1.489   0.258  1.9481  0.2395 -1.7692
13635TIP3   OH262395   0.607   1.169  12.286 -0.3705 -0.0316 -0.5571
13635TIP3    H162396   0.653   1.211  12.214 -0.5992 -0.0026 -0.6888
13635TIP3    H262397   0.516   1.162  12.256 -0.4388 -0.1490 -0.3306
13636TIP3   OH262398   1.899   0.335   5.282 -0.2024  0.3940 -0.3357
13636TIP3    H162399   1.875   0.394   5.211 -2.5609 -0.2520 -0.1480
13636TIP3    H262400   1.991   0.355   5.300 -0.1924  2.1229 -2.0410
13637TIP3   OH262401   3.946   4.227  14.504 -0.2905 -0.2724 -0.3123
13637TIP3    H162402   3.889   4.222  14.427 -1.4064  0.4611  0.4361
13637TIP3    H262403   3.886   4.233  14.578  0.7282  1.8448  0.4170
13638TIP3   OH262404   1.128   3.680   2.985  0.5753 -1.0768 -0.4512
13638TIP3    H162405   1.152   3.744   2.918 -1.2146  0.2618  0.0871
13638TIP3    H262406   1.060   3.626   2.943  0.3976 -1.0849 -0.1588
13639TIP3   OH262407   2.881   2.001   2.723 -0.0335  0.9036  0.1445
13639TIP3    H162408   2.849   2.088   2.746 -4.4803 -0.1390 -1.2154
13639TIP3    H262409   2.899   1.959   2.807 -1.1611  2.0127  0.9748
13640TIP3   OH262410   6.672   5.409   6.811 -0.7632  0.1625  0.1896
13640TIP3    H162411   6.721   5.410   6.729  0.6184 -0.5843  0.9567
13640TIP3    H262412   6.600   5.348   6.795 -1.1988  0.9300 -0.8263
13641TIP3   OH262413   0.324   1.107  15.359 -0.3758 -0.2394 -0.2539
13641TIP3    H162414   0.365   1.185  15.321 -0.9353  0.0414 -0.2817
13641TIP3    H262415   0.245   1.139  15.402 -0.4069 -0.7359  0.0752
13642TIP3   OH262416   3.718   5.750  17.075  0.1694 -0.3038  0.4713
13642TIP3    H162417   3.675   5.664  17.074  0.5646 -0.5577  1.9327
13642TIP3    H262418   3.810   5.730  17.057  0.2852 -0.2171  0.9487
13643TIP3   OH262419   0.956   0.093  16.438 -0.3759  1.0266 -0.4082
13643TIP3    H162420   1.008   0.156  16.487 -0.3200  0.1228  0.7403
13643TIP3    H262421   0.884   0.145  16.402 -0.2935  1.7689  0.4452
13644TIP3   OH262422   3.816   0.194   1.070  0.0238 -1.0375 -0.4976
13644TIP3    H162423   3.828   0.289   1.069  0.1047 -1.0512 -0.8893
13644TIP3    H262424   3.743   0.178   1.011 -0.6417 -1.1357  0.3322
13645TIP3   OH262425   6.096   4.134  16.500 -0.0302  0.3064 -0.0107
13645TIP3    H162426   6.126   4.173  16.582  1.1347  0.1125 -0.3333
13645TIP3    H262427   6.004   4.159  16.495  0.1642  1.2957  0.7914
13646TIP3   OH262428   1.226   0.975  16.935  0.3929  0.6493  0.7083
13646TIP3    H162429   1.179   1.039  16.882 -1.4531 -1.0555  0.1554
13646TIP3    H262430   1.195   0.991  17.024 -1.3885 -0.4913  0.3409
13647TIP3   OH262431   2.634   4.181   4.492 -0.4400  0.2340  0.0041
13647TIP3    H162432   2.667   4.184   4.581 -1.0974 -3.0600  0.4938
13647TIP3    H262433   2.654   4.267   4.455  2.0523  0.8605  2.5166
13648TIP3   OH262434   4.265   1.664  17.098  0.0273 -0.1407  0.5648
13648TIP3    H162435   4.203   1.637  17.031  1.4883 -2.0005 -0.1339
13648TIP3    H262436   4.221   1.645  17.181 -0.7431 -0.4388  0.0970
13649TIP3   OH262437   4.836   5.184  12.598 -0.5109  0.2527  0.2769
13649TIP3    H162438   4.873   5.228  12.674 -1.2518  1.3454  0.0297
13649TIP3    H262439   4.903   5.120  12.572  0.8477  1.5828  0.3436
13650TIP3   OH262440   1.304   1.995   4.002 -0.6193  0.1230 -0.5659
13650TIP3    H162441   1.273   1.983   4.092  1.0282 -1.9126 -0.1842
13650TIP3    H262442   1.227   2.025   3.954 -1.4059  1.8251  1.6068
13651TIP3   OH262443   0.183   5.715  11.803 -0.9390  0.1927 -0.0548
13651TIP3    H162444   0.113   5.766  11.845  0.4054  1.4852  0.6972
13651TIP3    H262445   0.153   5.705  11.712 -2.5133 -0.0766  0.4504
13652TIP3   OH262446   1.709   2.166   2.013 -0.5017  0.2018  0.1704
13652TIP3    H162447   1.704   2.246   2.066 -1.3278  1.1299 -1.2289
13652TIP3    H262448   1.779   2.183   1.950 -0.1537 -0.5106  0.3539
13653TIP3   OH262449   6.685   4.577  14.576 -0.4132  0.1628  0.0303
13653TIP3    H162450   6.639   4.641  14.522  1.6867  0.4864 -1.4534
13653TIP3    H262451   6.718   4.627  14.650 -0.2701  0.4534 -0.2278
13654TIP3   OH262452   3.893   3.168   1.147 -0.9119 -0.6550  0.3986
13654TIP3    H162453   3.958   3.117   1.195 -0.0345 -0.1382 -0.1917
13654TIP3    H262454   3.833   3.201   1.214  1.1932  1.3927  1.4237
13655TIP3   OH262455   1.801   2.747  11.879 -0.1869  0.1461  0.1062
13655TIP3    H162456   1.892   2.761  11.852 -0.9825 -1.0518 -4.0356
13655TIP3    H262457   1.807   2.705  11.964  3.0231  1.4964  0.6833
13656TIP3   OH262458   3.294   3.869  16.445 -0.1809 -0.4511 -0.1591
13656TIP3    H162459   3.363   3.882  16.509  0.0051 -1.3438 -0.1680
13656TIP3    H262460   3.269   3.958  16.418  2.5074 -0.0971 -1.8442
13657TIP3   OH262461   4.100   0.512   0.343 -0.7811  0.1222  0.4647
13657TIP3    H162462   4.153   0.485   0.418 -1.3627  0.4651  1.0038
13657TIP3    H262463   4.020   0.460   0.350 -1.4894  1.2403  0.9528
13658TIP3   OH262464   0.358   5.125  14.611  0.2604  0.1410  0.2358
13658TIP3    H162465   0.426   5.182  14.574  1.9129 -1.3959  0.7522
13658TIP3    H262466   0.350   5.154  14.702 -0.8303  1.2331 -0.1815
13659TIP3   OH262467   1.815   4.688  13.966  0.4027 -0.2911  0.2894
13659TIP3    H162468   1.758   4.761  13.991 -0.0265 -0.6672  0.4241
13659TIP3    H262469   1.796   4.619  14.029  0.5272 -0.6540 -0.0615
13660TIP3   OH262470   6.276   2.120   0.571 -0.0370 -0.2138 -0.4164
13660TIP3    H162471   6.290   2.198   0.626  0.8602 -0.3338 -0.4679
13660TIP3    H262472   6.185   2.128   0.542  0.0784  0.8935 -0.5341
13661TIP3   OH262473   4.606   1.657   4.457  0.1581 -0.0370  0.2349
13661TIP3    H162474   4.570   1.716   4.524 -2.2790  1.3165 -2.0774
13661TIP3    H262475   4.584   1.569   4.487 -0.2535  0.4919  1.5271
13662TIP3   OH262476   6.063   4.517  13.576 -0.4285  0.2264 -0.9589
13662TIP3    H162477   6.126   4.539  13.645  0.2234  0.3707 -1.5869
13662TIP3    H262478   6.098   4.559  13.497  0.7866 -2.7557 -2.1869
13663TIP3   OH262479   6.574   0.759  14.759  0.1683 -0.5213  0.5477
13663TIP3    H162480   6.628   0.837  14.748  1.6754 -1.7144 -0.9551
13663TIP3    H262481   6.610   0.695  14.698 -3.0162 -1.3855 -0.6622
13664TIP3   OH262482   6.449   1.357   5.631  0.4126  0.4170  0.0327
13664TIP3    H162483   6.510   1.386   5.699  0.3895  2.2659 -0.6691
13664TIP3    H262484   6.502   1.347   5.552 -0.2241  2.9140 -0.8115
13665TIP3   OH262485   5.163   5.429   6.154  0.5919  0.3158 -0.0105
13665TIP3    H162486   5.243   5.451   6.107  1.3170  0.2712  1.1624
13665TIP3    H262487   5.105   5.503   6.140  1.5829  1.2658  0.7490
13666TIP3   OH262488   6.157   5.039  15.507 -0.1680  0.3969 -0.2836
13666TIP3    H162489   6.064   5.022  15.521 -0.1922  0.5458 -0.2583
13666TIP3    H262490   6.189   5.068  15.592  0.0436 -0.2741 -0.1314
13667TIP3   OH262491   3.971   2.841   0.116 -0.5281  0.9518  0.2361
13667TIP3    H162492   3.892   2.804   0.076 -0.8575  2.8117 -0.9318
13667TIP3    H262493   3.939   2.888   0.192 -0.4249  0.9247  0.2957
13668TIP3   OH262494   1.373   3.684   2.754 -0.0124  0.0181 -0.1239
13668TIP3    H162495   1.387   3.609   2.697 -1.4875  0.2608 -0.8565
13668TIP3    H262496   1.375   3.760   2.696  0.7512  0.4937  0.4993
13669TIP3   OH262497   6.534   3.566  15.622 -1.2471 -0.0112  0.1647
13669TIP3    H162498   6.556   3.476  15.598  0.1474  0.4252 -0.2557
13669TIP3    H262499   6.468   3.557  15.691 -2.0582 -1.3273 -0.7409
13670TIP3   OH262500   6.026   1.012  15.391 -0.2828 -0.0952 -0.1060
13670TIP3    H162501   5.955   1.044  15.334  0.2998  0.1445 -0.7037
13670TIP3    H262502   5.983   0.999  15.476 -1.7260 -2.6703 -1.1265
13671TIP3   OH262503   3.663   4.155  14.545  0.0487  0.2937 -0.0927
13671TIP3    H162504   3.586   4.163  14.601 -0.4485 -0.2034 -0.6901
13671TIP3    H262505   3.660   4.064  14.513  2.0763 -0.4299  1.5873
13672TIP3   OH262506   5.382   2.252  16.408 -0.5088 -0.0481  0.3849
13672TIP3    H162507   5.314   2.190  16.381 -0.7030  0.4477 -0.2897
13672TIP3    H262508   5.335   2.321  16.453 -0.1224 -1.2111  2.7342
13673TIP3   OH262509   4.612   6.333  11.072  0.8889  1.0000  0.2780
13673TIP3    H162510   4.558   6.395  11.023  2.2284  1.3773 -0.7568
13673TIP3    H262511   4.571   6.248  11.057 -0.4869  1.4874  1.0455
13674TIP3   OH262512   4.599   5.029   2.766 -0.5795 -0.0690 -0.4752
13674TIP3    H162513   4.562   5.112   2.797 -2.6682 -1.7121  1.8530
13674TIP3    H262514   4.672   5.012   2.826  1.0666  0.8982 -2.1198
13675TIP3   OH262515   3.941   3.886   3.124  0.2209 -0.0047  0.7384
13675TIP3    H162516   3.996   3.811   3.146 -0.7996 -1.3641 -1.0145
13675TIP3    H262517   3.932   3.934   3.206  1.5211 -1.3778  1.7525
13676TIP3   OH262518   1.988   5.040  13.732 -0.3370 -0.1051 -0.4520
13676TIP3    H162519   2.067   5.039  13.787 -0.5996 -0.0085 -0.0712
13676TIP3    H262520   2.011   5.098  13.659 -0.3034  0.5067  0.0375
13677TIP3   OH262521   6.721   1.477  14.582 -0.2929 -0.1343  0.4133
13677TIP3    H162522   6.744   1.516  14.498  2.6771 -1.2097  0.6117
13677TIP3    H262523   6.757   1.537  14.647 -1.1979 -0.1001  0.9013
13678TIP3   OH262524   3.242   5.921  12.681  0.1070  0.1467 -0.6570
13678TIP3    H162525   3.249   5.862  12.606 -2.0349  0.3253 -1.0411
13678TIP3    H262526   3.260   6.008  12.645 -1.9084  0.3626 -1.2170
13679TIP3   OH262527   3.352   2.673   5.979 -0.6633  0.7253 -0.2425
13679TIP3    H162528   3.360   2.735   6.052 -1.5847  1.1861 -0.5118
13679TIP3    H262529   3.345   2.729   5.902  1.2716  0.2385 -0.8180
13680TIP3   OH262530   1.850   1.686  12.334  0.1792  0.3524 -0.0129
13680TIP3    H162531   1.925   1.729  12.375 -0.1538  1.6185 -0.6966
13680TIP3    H262532   1.795   1.658  12.407  0.8079  0.3344  0.4595
13681TIP3   OH262533   4.293   3.425  16.693 -0.5686 -0.2908 -0.0171
13681TIP3    H162534   4.353   3.361  16.656 -0.5819  0.6870 -1.8572
13681TIP3    H262535   4.286   3.401  16.785  1.6762 -1.1834 -0.0063
13682TIP3   OH262536   6.523   4.076  13.470  0.0594  0.5580  0.2501
13682TIP3    H162537   6.607   4.031  13.470 -0.7915 -1.0822  0.1365
13682TIP3    H262538   6.479   4.047  13.550 -0.4127  1.3904  0.3040
13683TIP3   OH262539   2.408   1.663   1.780 -0.2421 -0.0717 -0.6016
13683TIP3    H162540   2.416   1.640   1.873  0.5774  2.3220 -0.0300
13683TIP3    H262541   2.345   1.735   1.779 -0.4035 -0.2097 -1.9660
13684TIP3   OH262542   2.681   0.283   5.716  0.0555  0.1028 -0.4846
13684TIP3    H162543   2.769   0.284   5.753 -1.4462 -1.8953  3.8786
13684TIP3    H262544   2.659   0.375   5.703  1.7083  0.8487  1.4594
13685TIP3   OH262545   4.017   5.020  13.265 -0.0248 -0.0347  0.1728
13685TIP3    H162546   4.058   4.964  13.199  1.2817  0.7691  0.2646
13685TIP3    H262547   3.946   5.064  13.218  0.1542 -0.3325 -0.3873
13686TIP3   OH262548   0.956   3.083  11.722 -0.4323  0.2786 -0.4035
13686TIP3    H162549   0.878   3.028  11.723 -0.3902  0.1761 -1.4400
13686TIP3    H262550   0.922   3.173  11.715 -0.4979  0.3925  1.1771
13687TIP3   OH262551   4.462   0.006   6.457 -0.0741 -0.1021  0.3326
13687TIP3    H162552   4.531  -0.060   6.451  0.7893  0.8578 -0.6515
13687TIP3    H262553   4.486   0.059   6.533  0.1639  0.0994  0.1190
13688TIP3   OH262554   5.113   3.696   3.799  1.0641  0.0626  0.0903
13688TIP3    H162555   5.171   3.674   3.726  1.3926 -2.0310  0.9243
13688TIP3    H262556   5.060   3.618   3.813 -1.3156  1.5630  0.0192
13689TIP3   OH262557   6.733   0.312  11.845  0.4284  0.2774  0.5489
13689TIP3    H162558   6.724   0.311  11.940 -0.4686  0.3957  0.4686
13689TIP3    H262559   6.696   0.396  11.818  2.0344  0.9220  0.2184
13690TIP3   OH262560   3.370   4.116   0.479  0.1472 -0.3524 -0.3741
13690TIP3    H162561   3.421   4.187   0.441  0.8304 -0.5267  0.1869
13690TIP3    H262562   3.374   4.045   0.414 -0.2290 -0.0063 -0.7739
13691TIP3   OH262563   1.474   5.647   3.672  0.5036  0.1441 -0.1892
13691TIP3    H162564   1.482   5.741   3.654 -0.3463  0.2982  0.1831
13691TIP3    H262565   1.429   5.642   3.757  2.2184 -0.5873  0.7257
13692TIP3   OH262566   4.847   3.095   2.526  0.3349  0.6645  0.4589
13692TIP3    H162567   4.856   3.087   2.431  2.3208  1.1737  0.5568
13692TIP3    H262568   4.838   3.005   2.557 -0.4343  0.5016 -0.2026
13693TIP3   OH262569   5.339   0.665   2.913 -0.3593  0.0223 -0.0958
13693TIP3    H162570   5.360   0.724   2.986  0.0595 -0.3713  0.1115
13693TIP3    H262571   5.394   0.588   2.929  0.3217  0.2492 -1.2448
13694TIP3   OH262572   3.977   4.381  13.207  0.2394  0.4495  0.6076
13694TIP3    H162573   3.936   4.323  13.271  0.5805  1.1863  1.5074
13694TIP3    H262574   3.979   4.329  13.126 -0.6211 -0.3233  1.0580
13695TIP3   OH262575   2.387   0.264   3.272  0.3034  0.2702 -0.6456
13695TIP3    H162576   2.378   0.243   3.365  0.2790 -1.1444 -0.9461
13695TIP3    H262577   2.326   0.337   3.258 -0.9483 -0.5833  0.1107
13696TIP3   OH262578   6.610   1.864  12.580 -0.1581  0.1027  0.2482
13696TIP3    H162579   6.697   1.844  12.613  0.5766  1.3000 -0.8362
13696TIP3    H262580   6.612   1.959  12.563 -1.8650  0.2662  0.7399
13697TIP3   OH262581   6.147   2.979   6.387 -0.1608 -0.0637 -0.6751
13697TIP3    H162582   6.114   3.066   6.411 -0.0043  0.0763 -0.9592
13697TIP3    H262583   6.097   2.956   6.308 -0.3740 -0.3366 -0.4600
13698TIP3   OH262584   4.851   3.619   4.940  0.1412 -0.4873 -0.5618
13698TIP3    H162585   4.835   3.707   4.973 -0.7352 -0.4432 -1.0898
13698TIP3    H262586   4.936   3.625   4.896 -0.0156  0.1424 -0.7812
13699TIP3   OH262587   3.514   5.770   2.086  0.0386 -0.0395  0.7424
13699TIP3    H162588   3.474   5.810   2.163 -1.5403 -0.8196  0.3613
13699TIP3    H262589   3.572   5.702   2.121  0.0869  0.2793  1.2741
13700TIP3   OH262590   2.753   0.300  16.745  0.4463  0.1681 -0.1636
13700TIP3    H162591   2.690   0.369  16.727 -0.8279 -0.4040  1.8629
13700TIP3    H262592   2.730   0.229  16.685  0.6297  0.7954 -0.9951
13701TIP3   OH262593   2.721   1.006  16.468  0.4879 -0.0204  0.2788
13701TIP3    H162594   2.699   0.995  16.560  2.0792 -1.3461  0.5498
13701TIP3    H262595   2.651   1.061  16.433  0.6242  1.7979  2.5856
13702TIP3   OH262596   2.313   1.101  13.801  0.0336 -0.3472  0.1652
13702TIP3    H162597   2.243   1.060  13.751  1.3968 -1.0130 -1.2905
13702TIP3    H262598   2.280   1.188  13.821 -0.3856  0.1758 -2.4432
13703TIP3   OH262599   6.404   5.942  12.525  0.4853  0.1344 -0.6365
13703TIP3    H162600   6.327   5.919  12.474  0.1435 -0.9927  0.3522
13703TIP3    H262601   6.385   6.030  12.558  0.2622  0.4448 -1.5752
13704TIP3   OH262602   5.052   6.311   3.389 -0.5433 -0.4470 -0.3231
13704TIP3    H162603   5.084   6.250   3.456 -1.3063 -1.1042 -0.5357
13704TIP3    H262604   4.961   6.285   3.375 -1.6721  2.1720  1.2411
13705TIP3   OH262605   5.382   3.475  13.983  0.0568 -0.3997 -0.7006
13705TIP3    H162606   5.409   3.509  14.068 -0.4350  1.7153 -1.3230
13705TIP3    H262607   5.318   3.407  14.003  0.6438 -0.6077  0.6118
13706TIP3   OH262608   6.368   5.507   0.126  0.0732 -0.0181  0.0603
13706TIP3    H162609   6.300   5.524   0.192 -0.0539 -1.4959  0.3367
13706TIP3    H262610   6.340   5.426   0.083  2.9743 -2.2690  2.0532
13707TIP3   OH262611   1.073   4.118  14.541 -0.0226  0.2203  0.3086
13707TIP3    H162612   1.149   4.099  14.596  0.8007 -0.3792 -0.9809
13707TIP3    H262613   1.089   4.206  14.507  0.6502 -0.3035 -0.7895
13708TIP3   OH262614   5.126   4.494   4.644  0.1579 -0.3597  0.5747
13708TIP3    H162615   5.166   4.571   4.604  1.0650  0.2829  2.5930
13708TIP3    H262616   5.036   4.495   4.612  0.0950  1.6596  0.6854
13709TIP3   OH262617   2.165   5.967   6.579 -0.4847  0.3798  0.4528
13709TIP3    H162618   2.259   5.955   6.570 -0.6586 -1.3762  0.5980
13709TIP3    H262619   2.153   6.061   6.591  1.1971  0.6807 -0.0622
13710TIP3   OH262620   5.897   4.810  17.315  0.0429  0.3338  0.3991
13710TIP3    H162621   5.872   4.789  17.225  1.2382  1.0380 -0.1306
13710TIP3    H262622   5.836   4.760  17.370  0.8583 -2.1290 -0.7860
13711TIP3   OH262623   2.394   1.916  13.957  0.5703 -0.5414 -0.2370
13711TIP3    H162624   2.460   1.854  13.987 -0.7788 -2.3043 -0.7455
13711TIP3    H262625   2.410   1.926  13.863  0.7138 -0.1818 -0.1781
13712TIP3   OH262626   3.625   1.410  13.686 -0.4525  0.6002 -0.1377
13712TIP3    H162627   3.566   1.365  13.626  0.4495 -1.7553  0.6182
13712TIP3    H262628   3.702   1.430  13.633 -0.5485  0.5147 -0.3107
13713TIP3   OH262629   2.148   4.898  13.404 -0.1824  0.3045 -0.0838
13713TIP3    H162630   2.202   4.849  13.342 -1.1975  0.2440 -0.9625
13713TIP3    H262631   2.183   4.876  13.490  1.4390  0.5958 -0.6364
13714TIP3   OH262632   1.558   3.657  12.277 -0.6893 -0.6031  0.7500
13714TIP3    H162633   1.565   3.690  12.367  0.0331 -0.3200  0.5903
13714TIP3    H262634   1.519   3.730  12.228  0.5972 -0.0851  0.4668
13715TIP3   OH262635   3.430   5.309  14.035 -0.7716 -0.1523  0.3292
13715TIP3    H162636   3.476   5.229  14.057  1.0034  0.4478 -0.9687
13715TIP3    H262637   3.399   5.295  13.945  1.0137  1.1688 -0.5524
13716TIP3   OH262638   5.584   6.032  12.137 -0.2222 -0.8310 -0.9655
13716TIP3    H162639   5.507   6.006  12.187  1.9247 -1.4474  2.3319
13716TIP3    H262640   5.577   6.127  12.130 -1.9206 -0.9856 -2.0544
13717TIP3   OH262641   1.118   2.094   0.854  0.8584 -0.2968 -0.0118
13717TIP3    H162642   1.066   2.016   0.872  0.8721  0.3372  3.5047
13717TIP3    H262643   1.207   2.061   0.842  0.8554 -0.8841  1.3854
13718TIP3   OH262644   3.975   1.252  11.767  0.6597  0.1291 -0.4862
13718TIP3    H162645   3.913   1.303  11.715  0.2600 -0.6950 -0.8408
13718TIP3    H262646   4.044   1.314  11.790  1.3194  0.3369 -2.7560
13719TIP3   OH262647   3.798   5.355   5.684  0.1707  0.7840 -0.9332
13719TIP3    H162648   3.779   5.315   5.769  3.2913  1.0288  0.0113
13719TIP3    H262649   3.788   5.449   5.699  2.4741  0.9770 -0.2046
13720TIP3   OH262650   3.432   6.519   3.518  0.0855  0.2240  0.2693
13720TIP3    H162651   3.338   6.518   3.502  0.2211 -2.2847 -0.6816
13720TIP3    H262652   3.471   6.481   3.439  1.8672  0.6261  0.8974
13721TIP3   OH262653   2.614   2.950  17.305 -0.5965 -0.2417 -0.4355
13721TIP3    H162654   2.669   2.940  17.383  1.0574 -3.3758 -1.8384
13721TIP3    H262655   2.646   3.030  17.263  0.6238 -0.2303  0.4711
13722TIP3   OH262656   5.285   1.692  14.943  0.1407 -0.5069 -0.6449
13722TIP3    H162657   5.194   1.683  14.974 -0.4744  0.5949 -2.0164
13722TIP3    H262658   5.280   1.672  14.849  1.5693 -1.6874 -0.5116
13723TIP3   OH262659   5.205   4.591   0.459  0.3356 -0.0406  0.0491
13723TIP3    H162660   5.134   4.532   0.484  1.4322 -0.1963  3.4059
13723TIP3    H262661   5.166   4.678   0.462 -0.3451 -0.2906 -0.9908
13724TIP3   OH262662   3.529   2.271   3.260  0.4185 -0.0702 -0.0874
13724TIP3    H162663   3.457   2.274   3.323  1.2546 -1.4450  0.9628
13724TIP3    H262664   3.485   2.263   3.175 -0.6862  0.1400  0.4424
13725TIP3   OH262665   5.217   5.630  13.706 -0.3346  0.1845 -0.1156
13725TIP3    H162666   5.280   5.684  13.658 -0.2191 -0.0785 -0.2686
13725TIP3    H262667   5.197   5.680  13.784 -0.1831  0.4207 -0.2260
13726TIP3   OH262668   1.786   4.424  12.751 -0.4037  0.2264  0.0036
13726TIP3    H162669   1.795   4.472  12.668  2.1396  0.0319  0.0707
13726TIP3    H262670   1.819   4.485  12.817 -0.7012 -0.2756  0.6215
13727TIP3   OH262671   5.619   1.938  12.836 -0.3595 -0.0097  0.6168
13727TIP3    H162672   5.585   1.863  12.787 -2.3702  1.9888 -1.2509
13727TIP3    H262673   5.573   1.934  12.920 -1.7897  0.0505 -0.1297
13728TIP3   OH262674   0.996   3.837   2.170 -0.1638  0.3532  0.2579
13728TIP3    H162675   0.983   3.916   2.222 -0.0632  0.0746  0.7059
13728TIP3    H262676   0.955   3.767   2.221 -0.2525  0.1130 -0.1372
13729TIP3   OH262677   2.827   2.183  13.631 -0.1755  0.4286  0.1358
13729TIP3    H162678   2.828   2.249  13.700  1.0491  0.3490  0.2085
13729TIP3    H262679   2.735   2.177  13.605 -0.3908  1.7008  0.5619
13730TIP3   OH262680   3.849   4.478   5.203 -0.7876  0.0116 -0.3426
13730TIP3    H162681   3.822   4.519   5.285  1.2097  0.7507  0.0096
13730TIP3    H262682   3.810   4.532   5.134 -0.7896  0.5999  0.1198
13731TIP3   OH262683   2.984   6.413  15.713  0.5024  0.1832 -0.0527
13731TIP3    H162684   3.014   6.406  15.622  0.5768  0.2906 -0.0356
13731TIP3    H262685   3.028   6.342  15.758  3.4583  2.3202  0.7297
13732TIP3   OH262686   3.691   6.354  12.825  0.1596  0.3752 -0.2535
13732TIP3    H162687   3.667   6.296  12.752 -1.1737 -1.3121  1.4173
13732TIP3    H262688   3.768   6.312  12.864  0.1824  0.6432 -0.0073
13733TIP3   OH262689   0.181   0.148   4.746  0.8069  0.7436  0.5492
13733TIP3    H162690   0.209   0.233   4.713 -1.6617  1.6929  0.6842
13733TIP3    H262691   0.170   0.094   4.668  0.0138  1.3511  0.2249
13734TIP3   OH262692   4.237   5.027  14.894  0.7076 -0.1017  0.3338
13734TIP3    H162693   4.250   5.106  14.947 -1.0380  0.0003  0.6645
13734TIP3    H262694   4.164   5.049  14.836  0.1625 -1.4817  0.4624
13735TIP3   OH262695   5.587   3.408  14.811  0.6498  0.5273 -0.2403
13735TIP3    H162696   5.659   3.404  14.748 -1.2527  0.0551 -2.5006
13735TIP3    H262697   5.514   3.363  14.769 -0.7768  0.2033  2.3124
13736TIP3   OH262698   0.304   0.333   5.240 -0.3368 -0.1877 -0.4560
13736TIP3    H162699   0.283   0.249   5.281 -0.4748  0.3890  0.7180
13736TIP3    H262700   0.220   0.379   5.236 -0.1085  0.2624 -0.1898
13737TIP3   OH262701   1.514   5.255   5.263 -0.7405 -0.2691  0.3013
13737TIP3    H162702   1.498   5.273   5.171 -0.6914  2.8293  0.7975
13737TIP3    H262703   1.609   5.251   5.270 -0.7011  0.6046  0.3652
13738TIP3   OH262704   1.934   4.459  16.252 -0.1931 -0.0700 -0.0240
13738TIP3    H162705   2.002   4.491  16.311  0.5108 -0.5979 -0.5316
13738TIP3    H262706   1.858   4.514  16.270 -0.8437 -1.7633  3.1973
13739TIP3   OH262707   3.310   5.011   1.153  0.4513  0.2216 -0.6091
13739TIP3    H162708   3.349   4.931   1.116  2.0941  1.0330 -0.7408
13739TIP3    H262709   3.306   4.994   1.247 -1.4558 -0.9043 -0.8417
13740TIP3   OH262710   0.131   4.501   1.394  0.4004 -0.8142 -0.2581
13740TIP3    H162711   0.223   4.496   1.368  1.2509 -2.3818  2.6364
13740TIP3    H262712   0.090   4.424   1.355  0.3124 -0.2029 -1.4106
13741TIP3   OH262713   2.162   3.242   1.001 -0.1115 -0.2506 -0.0267
13741TIP3    H162714   2.101   3.284   0.941 -1.1268 -0.4665  0.8122
13741TIP3    H262715   2.117   3.244   1.086  0.9412 -0.6577  0.5588
13742TIP3   OH262716   0.985   0.151  15.372  0.0229 -0.5304 -0.0413
13742TIP3    H162717   1.076   0.161  15.402 -0.6570  2.5668  1.3920
13742TIP3    H262718   0.981   0.201  15.290 -0.7760  1.2552  1.0139
13743TIP3   OH262719   3.726   5.915  15.243 -0.1099  0.3221  0.0879
13743TIP3    H162720   3.715   5.999  15.198 -2.5215 -0.5294 -1.0624
13743TIP3    H262721   3.769   5.859  15.179 -0.0337  0.1945  0.2489
13744TIP3   OH262722   1.713   5.262  10.655  0.6419  0.0771 -0.1548
13744TIP3    H162723   1.781   5.216  10.606  0.3311  1.8456 -2.4440
13744TIP3    H262724   1.632   5.245  10.607 -0.2508 -0.4497  1.4427
13745TIP3   OH262725   5.817   1.453   2.852 -0.1078  0.2819 -0.0855
13745TIP3    H162726   5.895   1.439   2.798 -0.0306 -1.1044  0.3606
13745TIP3    H262727   5.747   1.409   2.805 -0.6457  1.5204 -0.4809
13746TIP3   OH262728   4.015   5.464   3.881 -0.0669  0.1099  0.3403
13746TIP3    H162729   4.030   5.542   3.828 -0.0628  0.2886  0.6001
13746TIP3    H262730   3.927   5.434   3.858 -0.9735  1.4719  1.8396
13747TIP3   OH262731   0.351   4.966   0.218 -0.2750  0.4947 -0.5736
13747TIP3    H162732   0.402   5.025   0.162  1.0013 -0.9733 -1.0444
13747TIP3    H262733   0.395   4.970   0.303 -0.4167  0.5050 -0.5010
13748TIP3   OH262734   5.284   4.092  14.224  0.3106 -0.0273 -0.2155
13748TIP3    H162735   5.377   4.077  14.238  0.5641 -0.8954 -2.3663
13748TIP3    H262736   5.278   4.125  14.134 -1.3188  1.8753  0.5116
13749TIP3   OH262737   0.712   4.416   3.466  0.6568 -0.0481 -0.0173
13749TIP3    H162738   0.803   4.438   3.484  0.6973 -0.0688 -0.1874
13749TIP3    H262739   0.704   4.425   3.371 -0.1261  2.2489  0.1927
13750TIP3   OH262740   3.919   0.647  17.469  0.4369 -0.0960 -0.3084
13750TIP3    H162741   3.960   0.689  17.545  0.2679  0.2913 -0.4272
13750TIP3    H262742   3.945   0.555  17.476  1.4811  0.1724 -0.4811
13751TIP3   OH262743   3.952   2.475   6.300  0.1680  0.5074  0.4199
13751TIP3    H162744   3.885   2.457   6.234 -1.4929  0.0815  2.1188
13751TIP3    H262745   3.904   2.474   6.383  2.2256  0.6736  1.6774
13752TIP3   OH262746   4.278   6.514  11.675  0.0651  0.2464  0.9303
13752TIP3    H162747   4.256   6.511  11.768  0.0261 -1.0733  0.8952
13752TIP3    H262748   4.203   6.559  11.635 -0.4833 -0.2310  1.3876
13753TIP3   OH262749   2.117   1.334  16.556 -0.4047 -0.0885 -0.3656
13753TIP3    H162750   2.208   1.360  16.541  0.6129 -2.0219  1.8313
13753TIP3    H262751   2.087   1.390  16.627 -0.9776  0.5336 -1.0736
13754TIP3   OH262752   6.295   3.739   1.608  0.3624 -0.3836  0.0444
13754TIP3    H162753   6.256   3.800   1.545 -1.3237  0.8303  2.1276
13754TIP3    H262754   6.348   3.794   1.665 -0.2704 -1.0227  1.2797
13755TIP3   OH262755   2.360   3.542  16.439 -0.2007 -0.1498 -0.1248
13755TIP3    H162756   2.348   3.499  16.355 -1.8676 -1.3257  0.6560
13755TIP3    H262757   2.371   3.635  16.418 -1.6855 -0.2552 -1.5939
13756TIP3   OH262758   0.055   4.236  16.833  0.2810  0.1272  0.2240
13756TIP3    H162759   0.088   4.255  16.745 -2.5722 -0.6698 -1.1349
13756TIP3    H262760   0.020   4.320  16.862  1.6017  0.4943  0.8394
13757TIP3   OH262761   1.152   6.571   2.131 -0.3831 -0.1184 -0.1634
13757TIP3    H162762   1.193   6.500   2.180 -0.7374  0.5513  1.1572
13757TIP3    H262763   1.094   6.614   2.194 -1.2266  0.4938 -1.3051
13758TIP3   OH262764   2.986   5.822   5.739 -0.2011 -0.0646  0.5672
13758TIP3    H162765   2.915   5.881   5.712 -0.4945  0.0420  1.5474
13758TIP3    H262766   2.942   5.741   5.764  0.1397 -0.4388 -0.0124
13759TIP3   OH262767   6.162   5.870   2.378  0.2006 -0.4923 -0.4312
13759TIP3    H162768   6.167   5.777   2.400 -2.4398 -0.4204  0.8811
13759TIP3    H262769   6.201   5.915   2.453 -0.1869 -0.5086 -0.2167
13760TIP3   OH262770   6.503   1.146  14.270 -0.0788 -0.1874  0.8071
13760TIP3    H162771   6.441   1.219  14.264 -1.1574 -1.1113  0.5737
13760TIP3    H262772   6.487   1.107  14.355  0.4307 -0.2302  0.8912
13761TIP3   OH262773   6.687   4.154  11.344 -0.1106 -0.0090 -0.2571
13761TIP3    H162774   6.610   4.209  11.328  0.1416  0.7396  0.9836
13761TIP3    H262775   6.702   4.109  11.261 -2.3216 -0.7311 -0.3048
13762TIP3   OH262776   4.736   3.972   5.273 -0.2567 -0.5837  0.0898
13762TIP3    H162777   4.712   3.882   5.294  0.4585 -0.9752 -0.6880
13762TIP3    H262778   4.782   4.005   5.350  2.2547 -1.9528 -0.7047
13763TIP3   OH262779   2.172   4.838   2.314 -0.1245  0.0733  0.0150
13763TIP3    H162780   2.165   4.888   2.395  2.7302 -0.8857  0.9845
13763TIP3    H262781   2.098   4.777   2.317 -1.5487  1.7503  0.5597
13764TIP3   OH262782   2.568   1.512  14.164  0.2438  1.0803  0.0028
13764TIP3    H162783   2.532   1.494  14.251  1.0812 -0.0802  0.1294
13764TIP3    H262784   2.504   1.474  14.103  0.6272  0.1154  0.1878
13765TIP3   OH262785   0.775   2.841  12.561  0.1887  0.3487  0.2668
13765TIP3    H162786   0.739   2.837  12.473  1.2331 -2.3612 -0.1438
13765TIP3    H262787   0.869   2.831  12.549  0.2349 -1.5412  1.7126
13766TIP3   OH262788   1.346   6.027  15.264  0.2045  0.3557  0.7311
13766TIP3    H162789   1.403   5.993  15.333  1.0797  0.3235  0.0207
13766TIP3    H262790   1.257   6.009  15.294  0.5330 -3.5645 -0.0220
13767TIP3   OH262791   4.334   3.241   0.143 -0.1904 -0.6330  0.2585
13767TIP3    H162792   4.283   3.220   0.221 -0.7873  0.5950  0.2199
13767TIP3    H262793   4.317   3.168   0.083  1.5250 -2.4375  1.7900
13768TIP3   OH262794   4.790   6.175   2.198  0.1104 -0.5154  0.1038
13768TIP3    H162795   4.758   6.184   2.288 -0.2060 -1.4283  0.0907
13768TIP3    H262796   4.863   6.113   2.205  1.2683  0.7858 -0.0155
13769TIP3   OH262797   6.046   0.274  15.765  0.1938  0.6930 -0.2589
13769TIP3    H162798   5.970   0.329  15.746  0.6547  1.5492  0.3129
13769TIP3    H262799   6.091   0.319  15.836  0.5027 -0.5149  0.3461
13770TIP3   OH262800   5.664   0.292   2.813  0.5113  0.1762  0.3309
13770TIP3    H162801   5.650   0.343   2.893 -0.9539 -0.2492  0.3878
13770TIP3    H262802   5.719   0.348   2.758  2.3146  0.1014  1.9588
13771TIP3   OH262803   4.606   3.766  17.366 -0.2966  0.6021  0.3403
13771TIP3    H162804   4.544   3.761  17.438 -0.6650 -0.5017 -0.0382
13771TIP3    H262805   4.551   3.768  17.287  0.1386 -0.8125 -0.0171
13772TIP3   OH262806   3.979   4.549  14.922 -0.2574  0.1967  0.5838
13772TIP3    H162807   4.007   4.640  14.932 -0.5182  0.1700  1.6873
13772TIP3    H262808   4.028   4.517  14.846  3.0289  0.0635  2.5351
13773TIP3   OH262809   5.280   2.567  17.140  0.6330 -0.2352 -0.1185
13773TIP3    H162810   5.350   2.554  17.076  1.2299 -1.7990  0.8030
13773TIP3    H262811   5.327   2.588  17.221  0.0271 -0.9707  0.4276
13774TIP3   OH262812   2.868   2.762   6.643  0.1856  0.5543  0.9822
13774TIP3    H162813   2.852   2.672   6.668  0.6194  0.1623 -0.0746
13774TIP3    H262814   2.883   2.808   6.725 -1.5404 -0.0103  1.6608
13775TIP3   OH262815   2.176   4.123  11.875  0.6847  0.7136 -0.2249
13775TIP3    H162816   2.098   4.153  11.827 -0.3589  0.9678  1.5690
13775TIP3    H262817   2.222   4.203  11.898  1.6809  0.5554 -1.5079
13776TIP3   OH262818   1.352   1.308  15.517 -0.0611 -0.1831  0.6091
13776TIP3    H162819   1.295   1.287  15.443  0.3821 -0.8876  0.4570
13776TIP3    H262820   1.391   1.224  15.541  0.1986  0.1356  1.3056
13777TIP3   OH262821   1.619   4.651   0.626 -0.1802 -0.0196  0.4770
13777TIP3    H162822   1.539   4.601   0.609 -0.0783 -0.6284  1.6517
13777TIP3    H262823   1.593   4.715   0.692  0.2859 -0.1836  0.8198
13778TIP3   OH262824   0.244   6.260   1.405 -0.9144  0.4473  0.6190
13778TIP3    H162825   0.323   6.296   1.444  1.1530 -0.5900 -2.2820
13778TIP3    H262826   0.223   6.321   1.333 -2.4420  0.3955  0.9857
13779TIP3   OH262827   0.263   3.517  17.458 -0.0570  0.6189 -0.1520
13779TIP3    H162828   0.254   3.548  17.368  0.0427 -2.5693 -1.3741
13779TIP3    H262829   0.180   3.474  17.478  1.0961 -1.7372 -0.0762
13780TIP3   OH262830   3.145   0.368  15.896 -0.0716  0.4623 -0.6525
13780TIP3    H162831   3.218   0.423  15.924 -0.4132 -0.0425  1.3398
13780TIP3    H262832   3.070   0.400  15.946 -0.4713 -1.2061 -0.1200
13781TIP3   OH262833   1.497   2.423   0.175  0.2923  0.7191  0.4091
13781TIP3    H162834   1.567   2.480   0.142  0.4229  1.8777  2.5369
13781TIP3    H262835   1.454   2.474   0.244 -1.6210 -0.5970  0.2782
13782TIP3   OH262836   0.897   0.080  13.476  0.3043  0.4963 -0.8247
13782TIP3    H162837   0.979   0.117  13.508 -1.0306  1.5967  1.5773
13782TIP3    H262838   0.830   0.144  13.502 -1.3101 -0.1560 -3.0653
13783TIP3   OH262839   6.141   3.732   0.427  0.1672  0.1004 -0.3406
13783TIP3    H162840   6.227   3.698   0.402  0.6220  1.5252 -0.7650
13783TIP3    H262841   6.104   3.664   0.484  1.1109 -1.0169 -1.0142
13784TIP3   OH262842   1.058   3.089   4.792 -0.4500 -0.2056 -0.8459
13784TIP3    H162843   1.088   3.006   4.830  0.1449  0.8530  1.1502
13784TIP3    H262844   1.134   3.147   4.796 -1.1874  0.8181 -1.0427
13785TIP3   OH262845   5.091   4.885  12.239  0.8043  0.0106  0.1520
13785TIP3    H162846   5.039   4.808  12.217  0.8843 -0.0861  0.3037
13785TIP3    H262847   5.052   4.956  12.188  0.8246 -0.1602 -0.0994
13786TIP3   OH262848   5.608   6.014   2.946  0.6015 -0.1526  0.4971
13786TIP3    H162849   5.577   5.947   3.008  0.0772 -0.5170 -0.1455
13786TIP3    H262850   5.657   5.965   2.880 -2.9953 -0.5788 -2.1742
13787TIP3   OH262851   0.039   3.579   5.564  0.1992  0.6821  0.2930
13787TIP3    H162852   0.124   3.623   5.554  0.7391 -0.1452  1.1685
13787TIP3    H262853  -0.005   3.594   5.480  1.6442  0.1946 -0.5791
13788TIP3   OH262854   5.674   0.210   4.594  0.5241  0.1029  0.0706
13788TIP3    H162855   5.649   0.147   4.661  1.3457  0.8818  1.1387
13788TIP3    H262856   5.757   0.178   4.560  1.4234  1.0604  1.2753
13789TIP3   OH262857   0.187   1.381   5.086 -0.8418  0.8282  0.2338
13789TIP3    H162858   0.139   1.320   5.142 -0.4422  1.4964  1.3472
13789TIP3    H262859   0.125   1.404   5.017 -1.2593 -0.2206  0.2446
13790TIP3   OH262860   0.551   0.430  12.348  0.0737  0.1204 -0.5413
13790TIP3    H162861   0.565   0.522  12.325 -2.4166  0.5345 -0.7180
13790TIP3    H262862   0.594   0.419  12.432  3.0927  0.5521 -1.9137
13791TIP3   OH262863   3.337   3.731  12.863  0.4345  0.0921  0.5931
13791TIP3    H162864   3.249   3.714  12.830  0.2778  0.1785  0.9562
13791TIP3    H262865   3.325   3.743  12.958  0.6515  1.3870  0.4710
13792TIP3   OH262866   1.998   4.943  16.561  0.2327  0.2796  0.4792
13792TIP3    H162867   1.983   4.871  16.622 -1.7255  0.4832  0.2979
13792TIP3    H262868   1.986   5.022  16.613  0.9703  0.4897  0.3528
13793TIP3   OH262869   1.002   1.940   5.314 -0.0277 -0.0182  0.3529
13793TIP3    H162870   0.932   1.889   5.355 -0.4620  0.0012 -0.3605
13793TIP3    H262871   0.958   1.996   5.250  0.2608  2.2714  2.0122
13794TIP3   OH262872   0.522   4.168   4.506 -0.4042  0.5363  0.5587
13794TIP3    H162873   0.503   4.208   4.421  1.4785 -0.9755 -0.6613
13794TIP3    H262874   0.440   4.126   4.532 -0.2862 -1.6358 -2.0911
13795TIP3   OH262875   3.117   4.629  11.550 -0.0473 -0.9240  0.6916
13795TIP3    H162876   3.197   4.655  11.503  0.5211 -1.1679  1.5065
13795TIP3    H262877   3.130   4.662  11.639 -0.0281 -2.5856  1.3288
13796TIP3   OH262878   5.903   1.941  16.123  0.1291 -0.1413 -0.6894
13796TIP3    H162879   5.981   1.885  16.127  0.6018  0.5592  1.0015
13796TIP3    H262880   5.909   1.986  16.039  0.5057 -1.5258 -1.4397
13797TIP3   OH262881   1.387   3.076   4.251 -0.2526  0.2275  0.2260
13797TIP3    H162882   1.471   3.108   4.219 -0.2879 -0.4747 -0.6144
13797TIP3    H262883   1.322   3.122   4.197 -0.3944  0.3623  0.5064
13798TIP3   OH262884   4.321   3.530   5.908 -0.3091 -0.2516 -0.0290
13798TIP3    H162885   4.375   3.601   5.941 -0.6130 -0.4222  0.8434
13798TIP3    H262886   4.361   3.507   5.824  1.7568 -1.2028  1.1291
13799TIP3   OH262887   5.323   0.165  16.518 -0.7485  0.2804  0.2618
13799TIP3    H162888   5.290   0.077  16.499 -2.5107  0.6680  1.3634
13799TIP3    H262889   5.378   0.186  16.443 -1.5589 -1.1498 -0.7815
13800TIP3   OH262890   2.218   2.970   4.879  0.7303  0.1274  0.5473
13800TIP3    H162891   2.264   2.896   4.917  0.2696 -0.9994 -1.0081
13800TIP3    H262892   2.277   3.044   4.891  0.7032 -0.1809  3.1982
13801TIP3   OH262893   3.232   2.599  13.580  0.4141  0.4205 -0.1587
13801TIP3    H162894   3.275   2.594  13.665 -1.3908  0.9754  0.8473
13801TIP3    H262895   3.224   2.508  13.551  1.2277  0.2416  0.1580
13802TIP3   OH262896   5.472   4.446   0.939  0.5250  0.2113 -0.1598
13802TIP3    H162897   5.421   4.492   0.874  0.1428  0.6672  0.4544
13802TIP3    H262898   5.510   4.372   0.892  2.2755  1.8779 -1.5173
13803TIP3   OH262899   3.368   3.040  13.685  0.2733  0.5915  0.3223
13803TIP3    H162900   3.362   3.065  13.593  0.8103 -0.3772  0.0040
13803TIP3    H262901   3.358   2.945  13.685 -1.6208  0.7461  1.4718
13804TIP3   OH262902   4.756   4.687  14.868 -0.4417  0.5100  0.8175
13804TIP3    H162903   4.843   4.727  14.867  0.2248 -0.8715 -0.6833
13804TIP3    H262904   4.697   4.758  14.841  0.1341  1.5686  2.2152
13805TIP3   OH262905   1.841   1.182  11.721 -0.2868 -0.2546 -0.6667
13805TIP3    H162906   1.788   1.133  11.784  0.4431  0.5193  0.5971
13805TIP3    H262907   1.910   1.121  11.694  0.8934  0.1545  1.2507
13806TIP3   OH262908   5.568   1.496   2.107  0.4192  0.0457 -0.1643
13806TIP3    H162909   5.622   1.540   2.172 -0.1152 -0.3425  0.5586
13806TIP3    H262910   5.484   1.541   2.111  0.3731  0.0000 -0.5656
13807TIP3   OH262911   5.963   1.455  11.157 -0.0783  0.2054  0.2381
13807TIP3    H162912   6.039   1.505  11.127  0.6270 -0.0566  1.5194
13807TIP3    H262913   5.929   1.413  11.078  0.9265  0.5706 -0.4032
13808TIP3   OH262914   4.834   4.407  13.294  0.6357 -0.1805 -0.3357
13808TIP3    H162915   4.827   4.347  13.220 -1.8411  0.4315 -0.6579
13808TIP3    H262916   4.773   4.478  13.275  0.8635  0.6420  1.7101
13809TIP3   OH262917   0.768   4.764   0.835 -0.6257  0.1520 -0.0626
13809TIP3    H162918   0.677   4.734   0.845 -0.6486 -0.1860 -1.0924
13809TIP3    H262919   0.802   4.768   0.924 -1.3629 -0.6483  0.2753
13810TIP3   OH262920   0.435   6.391  13.588 -0.1618 -0.6100 -0.2855
13810TIP3    H162921   0.354   6.424  13.549  0.5059  1.0107 -0.3859
13810TIP3    H262922   0.407   6.319  13.644 -1.5592 -0.6821 -1.0212
13811TIP3   OH262923   5.210   6.242   6.711 -0.0755 -0.0535 -0.1595
13811TIP3    H162924   5.144   6.239   6.641 -0.7506  0.9602  0.3986
13811TIP3    H262925   5.234   6.151   6.725 -0.6316 -0.3600 -1.0624
13812TIP3   OH262926   2.897   6.720  11.699 -0.3025  0.2431  0.6050
13812TIP3    H162927   2.976   6.711  11.645 -0.4934  0.3142  0.3109
13812TIP3    H262928   2.921   6.680  11.783  0.1057  0.4312  0.5798
13813TIP3   OH262929   0.835   1.909  14.851  0.4063  0.3199 -0.7335
13813TIP3    H162930   0.765   1.898  14.915  0.9770  0.5592 -0.0437
13813TIP3    H262931   0.876   1.822  14.846  1.5240  0.7285  0.6469
13814TIP3   OH262932   0.777   3.663   0.289  0.5138  0.3111 -0.2077
13814TIP3    H162933   0.761   3.611   0.368 -1.7041  0.2792 -0.5966
13814TIP3    H262934   0.714   3.735   0.295  0.3866  0.3831 -1.8669
13815TIP3   OH262935   4.388   3.239   0.942 -0.1301  0.1857 -0.4055
13815TIP3    H162936   4.376   3.149   0.912 -1.7332  0.3588 -0.3805
13815TIP3    H262937   4.303   3.263   0.979  0.6129  1.3340  0.6177
13816TIP3   OH262938   2.595   3.678   5.635  0.2841  0.3599  0.0575
13816TIP3    H162939   2.621   3.691   5.544  3.5921 -0.9954  0.6483
13816TIP3    H262940   2.532   3.606   5.633  1.4153 -0.6484 -1.1211
13817TIP3   OH262941   2.013   2.159  15.200 -0.1648 -0.0875 -0.0787
13817TIP3    H162942   2.033   2.221  15.270  1.0741 -0.3062 -0.2158
13817TIP3    H262943   2.051   2.076  15.229 -2.2022 -0.9621  0.3209
13818TIP3   OH262944   0.378   1.518   2.452  0.8429 -0.4414 -0.4587
13818TIP3    H162945   0.326   1.500   2.373  0.9510  0.2777 -0.7020
13818TIP3    H262946   0.468   1.526   2.420  0.7236  1.1741 -0.4888
13819TIP3   OH262947   4.549   0.448  16.585 -0.1995  0.3079  0.5770
13819TIP3    H162948   4.633   0.450  16.539 -0.1100 -0.2750  0.7040
13819TIP3    H262949   4.541   0.358  16.617 -1.3116  0.0950 -0.2440
13820TIP3   OH262950   6.079   3.497  16.219 -0.0527  0.6898  0.0858
13820TIP3    H162951   6.083   3.550  16.140 -0.7355  0.8792  0.1716
13820TIP3    H262952   6.011   3.538  16.273  0.2779  0.4595  0.6946
13821TIP3   OH262953   2.244   3.808  13.757  0.2506  0.3800 -0.1418
13821TIP3    H162954   2.244   3.777  13.666  2.3867 -1.2035  0.3146
13821TIP3    H262955   2.324   3.859  13.766 -0.2570  1.0621  0.7038
13822TIP3   OH262956   4.237   5.124   6.142 -0.1253  0.5016  0.2299
13822TIP3    H162957   4.173   5.115   6.072  0.8765  0.8338 -0.7578
13822TIP3    H262958   4.186   5.120   6.223 -1.1759 -1.0874 -0.4771
13823TIP3   OH262959   5.923   2.848   5.851 -0.0006 -0.4530 -0.2738
13823TIP3    H162960   5.871   2.927   5.841  1.4106  0.4161 -1.0989
13823TIP3    H262961   5.884   2.785   5.790  1.0348  0.8236 -2.3708
13824TIP3   OH262962   3.532   0.469  14.344 -0.6252 -0.5920 -0.0801
13824TIP3    H162963   3.608   0.415  14.365 -0.0988  0.1103 -0.1325
13824TIP3    H262964   3.499   0.499  14.429 -0.0097  0.2078 -0.1082
13825TIP3   OH262965   0.102   5.486  16.926 -0.0527  0.5810 -0.0733
13825TIP3    H162966   0.114   5.400  16.885  0.5978  1.3241 -1.4932
13825TIP3    H262967   0.175   5.495  16.987 -0.4575 -0.0975  0.5382
13826TIP3   OH262968   6.330   3.511  16.962 -0.1502 -0.4560  0.4089
13826TIP3    H162969   6.254   3.510  17.021 -0.4552  0.3838  0.0349
13826TIP3    H262970   6.310   3.443  16.898 -0.1029 -0.9500  0.9074
13827TIP3   OH262971   6.677   5.709   4.780 -0.5949  0.0395 -0.1459
13827TIP3    H162972   6.658   5.777   4.845 -0.3425 -0.0034 -0.0254
13827TIP3    H262973   6.769   5.686   4.796 -0.9617 -1.0711  0.5228
13828TIP3   OH262974   1.124   1.009  17.504 -0.3365 -0.3578  0.1160
13828TIP3    H162975   1.144   0.916  17.494 -0.8674 -0.5368  0.6603
13828TIP3    H262976   1.088   1.036  17.420  0.3525 -0.4992 -0.2322
13829TIP3   OH262977   4.044   2.031   3.177  0.2698  0.6629  0.4142
13829TIP3    H162978   4.122   1.976   3.177  1.1728  1.9105 -0.0265
13829TIP3    H262979   4.067   2.106   3.233 -0.9833  0.5594  1.1166
13830TIP3   OH262980   0.477   5.236  12.787 -0.1457  0.1229  0.1962
13830TIP3    H162981   0.449   5.179  12.717  2.2728  0.4899 -1.1781
13830TIP3    H262982   0.500   5.319  12.744  1.8082  0.2232  1.2854
13831TIP3   OH262983   4.689   1.260   3.904  0.3301 -0.5232 -0.2113
13831TIP3    H162984   4.665   1.195   3.971  0.7319  0.7497  1.2164
13831TIP3    H262985   4.768   1.302   3.939 -0.0401  0.8655 -0.9977
13832TIP3   OH262986   0.588   1.126  14.701  0.5093 -0.3428 -0.2074
13832TIP3    H162987   0.546   1.059  14.647  0.8829 -0.1013 -0.8078
13832TIP3    H262988   0.675   1.090  14.720 -0.3068 -1.3540  1.9753
13833TIP3   OH262989   0.205   0.046   0.462  0.5450 -0.0441 -0.9319
13833TIP3    H162990   0.176  -0.020   0.525  1.5661  0.1510 -0.2262
13833TIP3    H262991   0.229  -0.004   0.384 -0.4992 -0.3127 -1.0892
13834TIP3   OH262992   3.982   1.671   5.256 -0.3920  0.1500  0.0565
13834TIP3    H162993   4.021   1.584   5.250 -1.7135 -0.4041 -0.9312
13834TIP3    H262994   3.889   1.654   5.275 -0.8671  1.2917 -1.1420
13835TIP3   OH262995   3.550   2.180   2.472  0.3765  0.1189  0.4023
13835TIP3    H162996   3.455   2.191   2.482  0.1123 -0.5016 -1.0999
13835TIP3    H262997   3.562   2.086   2.458  0.9461  0.4255 -1.4839
13836TIP3   OH262998   1.165   1.416   6.559 -0.0633  0.0894 -0.2369
13836TIP3    H162999   1.161   1.404   6.654 -0.7254  0.5214 -0.2044
13836TIP3    H263000   1.153   1.510   6.547 -4.7010 -0.3922 -0.9797
13837TIP3   OH263001   1.995   1.053   0.521 -0.0505 -0.4271  0.6363
13837TIP3    H163002   2.016   0.961   0.511 -0.4754 -0.5098  0.4772
13837TIP3    H263003   1.959   1.079   0.436 -0.6644 -0.3192  0.9217
13838TIP3   OH263004   3.812   2.924   3.862  0.0366  0.2898 -0.0762
13838TIP3    H163005   3.862   2.977   3.923 -0.2056  0.8534 -0.3645
13838TIP3    H263006   3.878   2.889   3.801  0.1744  0.3878  0.0176
13839TIP3   OH263007   5.627   4.241   3.797 -0.3791 -0.0545  0.3648
13839TIP3    H163008   5.616   4.284   3.882  2.2676  1.6199 -0.0011
13839TIP3    H263009   5.614   4.311   3.734 -1.0732 -1.0009 -0.5647
13840TIP3   OH263010   2.095   4.685  14.401  0.3585  0.4170  0.1158
13840TIP3    H163011   2.152   4.682  14.478 -1.5293 -2.7203  1.5666
13840TIP3    H263012   2.110   4.602  14.357  0.1048  1.4270 -1.9994
13841TIP3   OH263013   0.402   3.735  15.899 -0.2346  0.6334 -0.6211
13841TIP3    H163014   0.412   3.771  15.811  1.6638 -0.1620 -0.7865
13841TIP3    H263015   0.396   3.641  15.886 -1.0073  0.5871  0.0428
13842TIP3   OH263016   2.710   0.354   1.995  0.2660  0.4504  0.5487
13842TIP3    H163017   2.733   0.312   2.078  3.0404 -0.3574 -0.5304
13842TIP3    H263018   2.744   0.296   1.927 -3.1396  0.3771 -1.3160
13843TIP3   OH263019   4.487   6.219   6.834 -0.3932  0.1841 -0.0820
13843TIP3    H163020   4.469   6.164   6.910 -0.2237  0.0732 -0.1199
13843TIP3    H263021   4.499   6.157   6.762 -1.2935  0.3204 -0.3573
13844TIP3   OH263022   2.660   5.912  15.887  0.1789 -0.5294 -0.1929
13844TIP3    H163023   2.568   5.908  15.912  0.3179  1.0653  0.7158
13844TIP3    H263024   2.706   5.931  15.968  0.8745  2.7062 -1.1827
13845TIP3   OH263025   2.302   4.439   0.736 -0.3695 -0.4729  0.4194
13845TIP3    H163026   2.300   4.439   0.640  1.0748  0.7784  0.3592
13845TIP3    H263027   2.275   4.350   0.760  0.2565 -1.1300 -1.1638
13846TIP3   OH263028   1.096   4.548  15.954  0.2652  0.2965 -0.4907
13846TIP3    H163029   1.048   4.511  16.028 -0.3360 -0.6240 -1.3293
13846TIP3    H263030   1.077   4.490  15.881  1.5139  0.7263 -1.1863
13847TIP3   OH263031   1.212   3.826   4.488  0.4978 -0.3151  0.8811
13847TIP3    H163032   1.261   3.807   4.568  0.7180  1.3467  1.1835
13847TIP3    H263033   1.223   3.920   4.475 -0.1625 -0.4209 -0.7008
13848TIP3   OH263034   5.014   3.871   2.317  0.8332  0.2133 -0.6446
13848TIP3    H163035   4.979   3.956   2.343 -0.9065  0.1736 -2.6659
13848TIP3    H263036   4.941   3.811   2.326  0.2518  0.0756 -4.7487
13849TIP3   OH263037   2.903   2.903   6.206  0.5317  0.0671  0.0922
13849TIP3    H163038   2.869   2.935   6.290  0.5413  0.6773 -0.1284
13849TIP3    H263039   2.991   2.873   6.225  0.7271  0.6949  0.2059
13850TIP3   OH263040   6.693   5.018  15.924 -0.1522  0.1031  0.4005
13850TIP3    H163041   6.619   5.072  15.894  0.3596  0.9289  0.5900
13850TIP3    H263042   6.744   5.077  15.980 -0.0473 -0.8403  1.3239
13851TIP3   OH263043   3.530   1.803   0.581 -0.1285  0.0027  0.7440
13851TIP3    H163044   3.447   1.851   0.589 -1.2148 -1.9101  1.5009
13851TIP3    H263045   3.551   1.777   0.670  1.4788  0.6807  0.5959
13852TIP3   OH263046   1.974   6.311   4.461  0.1247 -0.7988 -0.7723
13852TIP3    H163047   2.024   6.231   4.446  1.9204 -0.2365  1.6440
13852TIP3    H263048   2.025   6.360   4.525 -1.1949  2.0725 -1.7573
13853TIP3   OH263049   5.870   5.158   1.863 -0.7973 -0.3117 -0.1307
13853TIP3    H163050   5.796   5.098   1.869 -0.8861 -0.1541  0.4629
13853TIP3    H263051   5.841   5.236   1.911  0.1218 -0.6327  0.9826
13854TIP3   OH263052   5.751   1.395  14.413 -0.0985  0.4433  0.3542
13854TIP3    H163053   5.779   1.418  14.502  0.8303  1.7120 -0.2267
13854TIP3    H263054   5.700   1.315  14.424 -2.8577  2.2419  2.4948
13855TIP3   OH263055   0.671   1.090  13.270 -0.7677  0.4294 -0.3293
13855TIP3    H163056   0.587   1.104  13.313 -0.4352  2.2508 -0.1770
13855TIP3    H263057   0.715   1.175  13.275  1.1650 -0.5166 -0.2408
13856TIP3   OH263058   1.229   6.210   3.025  0.0934  0.2028 -0.0155
13856TIP3    H163059   1.324   6.221   3.033  0.0642  1.6809 -1.3059
13856TIP3    H263060   1.193   6.289   3.065 -0.8257 -1.8444  3.6857
13857TIP3   OH263061   0.405   1.432   3.651 -0.0916  0.2625  0.9690
13857TIP3    H163062   0.383   1.340   3.664 -1.1912 -0.2384 -3.0726
13857TIP3    H263063   0.491   1.431   3.609 -0.1113  1.0827  0.8818
13858TIP3   OH263064   3.185   6.302   2.907  0.1077 -0.7525 -0.1269
13858TIP3    H163065   3.174   6.229   2.968 -2.1898  0.5441  1.1302
13858TIP3    H263066   3.097   6.335   2.892  0.9896  1.3208 -1.2575
13859TIP3   OH263067   1.297   3.853  12.167  0.2109 -0.0467  0.0896
13859TIP3    H163068   1.244   3.799  12.109  0.0430  1.1532 -0.9223
13859TIP3    H263069   1.379   3.867  12.120 -0.2356  1.6189 -0.2773
13860TIP3   OH263070   3.331   4.629   4.609  0.0955 -0.3245  0.0360
13860TIP3    H163071   3.390   4.704   4.620  0.6164 -0.3104 -2.3814
13860TIP3    H263072   3.248   4.669   4.583 -0.0877 -0.5159  0.3269
13861TIP3   OH263073   3.556   4.720   6.427  0.7563  0.2033 -0.4722
13861TIP3    H163074   3.538   4.788   6.361 -0.5436  0.5897  0.2541
13861TIP3    H263075   3.634   4.675   6.394  0.4358  0.7242 -2.0066
13862TIP3   OH263076   1.544   1.247   0.666  0.2012  0.4885 -0.3873
13862TIP3    H163077   1.463   1.260   0.715  0.5780  1.8741 -0.0856
13862TIP3    H263078   1.614   1.266   0.729  0.7249  0.5366 -0.9675
13863TIP3   OH263079   1.776   1.300  16.662  0.2382 -0.1578 -0.3309
13863TIP3    H163080   1.688   1.325  16.691  0.5087 -0.3288  0.6901
13863TIP3    H263081   1.797   1.222  16.713  2.4060  1.8962  2.2321
13864TIP3   OH263082   0.011   0.587   3.951  0.0907 -0.1191  0.9535
13864TIP3    H163083   0.070   0.637   3.896 -0.8509  0.1183  0.1353
13864TIP3    H263084   0.058   0.505   3.968  0.1121 -0.5326 -0.8564
13865TIP3   OH263085   3.697   2.110   5.818 -0.3454  0.1975 -0.5164
13865TIP3    H163086   3.723   2.073   5.902 -1.1479  1.3480  0.2632
13865TIP3    H263087   3.723   2.202   5.823  0.8756 -0.0018 -2.0959
13866TIP3   OH263088   4.290   3.236  10.596  0.4331  0.7788 -0.2896
13866TIP3    H163089   4.241   3.266  10.673  0.1409  1.3242 -0.6755
13866TIP3    H263090   4.286   3.141  10.600  0.5626  0.7950  0.4583
13867TIP3   OH263091   6.307   5.974   3.098  0.8614  0.0453  0.7757
13867TIP3    H163092   6.400   5.993   3.091  0.7999  0.9515  1.9702
13867TIP3    H263093   6.302   5.880   3.111  1.5954 -0.0422  0.4520
13868TIP3   OH263094   5.363   1.677   2.998  0.1228 -0.0198 -0.1169
13868TIP3    H163095   5.412   1.740   3.050  1.0284  0.5425 -1.5941
13868TIP3    H263096   5.430   1.629   2.950 -0.6421 -1.1337 -0.1073
13869TIP3   OH263097   3.758   5.597   2.171 -0.0272 -0.7520  0.0732
13869TIP3    H163098   3.802   5.526   2.124  0.3950 -1.4693  1.5188
13869TIP3    H263099   3.807   5.675   2.145  0.5932 -1.2182 -0.1969
13870TIP3   OH263100   5.690   0.688   1.385  0.4739  0.0259  0.0381
13870TIP3    H163101   5.683   0.763   1.445 -1.2271  1.0208 -1.2991
13870TIP3    H263102   5.640   0.619   1.429 -1.5961  1.0412 -0.5472
13871TIP3   OH263103   5.897   3.099   1.656  0.9472  0.2134 -0.4080
13871TIP3    H163104   5.842   3.158   1.707  0.3013  0.4955 -1.4041
13871TIP3    H263105   5.973   3.083   1.712  0.2979  0.5713  0.6004
13872TIP3   OH263106   0.478   3.410  15.071  0.3719  0.4496 -0.2007
13872TIP3    H163107   0.489   3.488  15.125 -0.4885  1.6233 -1.6548
13872TIP3    H263108   0.503   3.438  14.983 -0.0182 -0.8988 -0.7652
13873TIP3   OH263109   2.504   0.878  15.682  0.1698  0.5715 -1.2091
13873TIP3    H163110   2.473   0.888  15.772 -1.5336 -0.3034 -1.6575
13873TIP3    H263111   2.597   0.902  15.686  0.2689  0.0549  0.8718
13874TIP3   OH263112   3.852   3.626  17.429 -0.0993 -0.4944 -0.0705
13874TIP3    H163113   3.766   3.597  17.459  0.3274  0.7476  2.6203
13874TIP3    H263114   3.836   3.710  17.387 -0.0673  0.6103  2.0118
13875TIP3   OH263115   2.374   2.778  11.366 -0.2002 -0.6535 -0.3367
13875TIP3    H163116   2.436   2.704  11.364  2.0237  1.1165 -0.6985
13875TIP3    H263117   2.404   2.836  11.296  0.2875  2.2098  2.0694
13876TIP3   OH263118   2.058   4.994   0.018 -0.0100  0.0947 -0.6346
13876TIP3    H163119   2.132   5.051  -0.003  1.1899 -0.4903  1.6304
13876TIP3    H263120   2.064   4.922  -0.044  2.7752 -1.0959  0.8159
13877TIP3   OH263121   2.241   1.060   1.663 -0.3230  0.0526  0.0954
13877TIP3    H163122   2.249   1.139   1.610 -1.6516 -0.9428 -1.6963
13877TIP3    H263123   2.256   0.988   1.602  1.4258 -1.1301  1.7995
13878TIP3   OH263124   2.006   4.798  16.343 -0.7823  0.2097  0.0469
13878TIP3    H163125   1.997   4.712  16.383  3.7428  0.3825  2.1794
13878TIP3    H263126   2.020   4.857  16.417  0.3400  1.9714 -1.4656
13879TIP3   OH263127   5.748   3.920  11.483 -0.1712 -0.1512 -0.2680
13879TIP3    H163128   5.746   3.825  11.494 -1.1377 -0.3143 -1.6125
13879TIP3    H263129   5.757   3.954  11.572 -1.2790 -1.4707  0.3914
13880TIP3   OH263130   0.040   0.976  14.044  0.0180  0.0134 -1.0099
13880TIP3    H163131   0.128   1.001  14.075  1.4512 -1.4992 -3.4771
13880TIP3    H263132  -0.009   1.058  14.045  1.2032  0.8095  1.0305
13881TIP3   OH263133   4.607   3.681   0.746 -0.2525  0.2943  0.3812
13881TIP3    H163134   4.690   3.713   0.782  0.2985  1.3490 -1.6779
13881TIP3    H263135   4.625   3.591   0.721  0.3602  0.5877 -0.2661
13882TIP3   OH263136   0.200   3.731  16.838 -0.3158  0.2260  0.4117
13882TIP3    H163137   0.158   3.803  16.791 -1.9153 -0.6410  0.4525
13882TIP3    H263138   0.215   3.665  16.771  1.5888  0.7325  0.2806
13883TIP3   OH263139   1.604   3.744  14.489 -0.1926 -0.3022 -0.5104
13883TIP3    H163140   1.620   3.724  14.581  0.1392 -0.2882 -0.5612
13883TIP3    H263141   1.642   3.670  14.442 -0.4914 -0.3793 -0.6296
13884TIP3   OH263142   5.501   5.642  14.028 -0.0464 -0.6459  0.3226
13884TIP3    H163143   5.570   5.688  13.979  0.3279 -0.2961  1.1581
13884TIP3    H263144   5.468   5.576  13.967 -0.2162  0.3690 -0.7124
13885TIP3   OH263145   0.444   3.759  13.067 -0.2594 -0.0445  0.0105
13885TIP3    H163146   0.469   3.675  13.029  1.3813  0.2358  0.4086
13885TIP3    H263147   0.409   3.737  13.153 -0.1962 -0.3543 -0.0415
13886TIP3   OH263148   0.039   6.439  16.951  0.0473  0.1712 -0.2417
13886TIP3    H163149   0.034   6.344  16.963 -1.8532  0.4418  1.7052
13886TIP3    H263150   0.119   6.465  16.997  1.1978 -0.5620 -1.7490
13887TIP3   OH263151   1.961   1.047   2.027 -0.8503  0.6967 -0.3601
13887TIP3    H163152   1.965   0.968   1.974 -1.3583 -1.5461  2.7013
13887TIP3    H263153   1.886   1.096   1.991 -2.3344 -1.6005 -0.6066
13888TIP3   OH263154   1.468   5.222   5.008  0.3135  0.4848 -0.3164
13888TIP3    H163155   1.421   5.245   4.928  1.4949  1.7489 -0.6871
13888TIP3    H263156   1.510   5.138   4.988  0.0735  0.4693 -0.7803
13889TIP3   OH263157   4.407   3.876  13.869 -0.8144  0.0063  0.3125
13889TIP3    H163158   4.487   3.836  13.836 -1.4385 -0.8846 -0.1375
13889TIP3    H263159   4.409   3.859  13.963 -1.5549 -1.9886  0.0006
13890TIP3   OH263160   6.445   6.323  16.768 -0.1194  0.0085 -0.3466
13890TIP3    H163161   6.387   6.348  16.695 -1.9516  0.1635  1.0833
13890TIP3    H263162   6.456   6.404  16.818 -1.4804 -0.7111  1.2209
13891TIP3   OH263163   3.952   1.164   6.105  0.6786  0.0729  0.4387
13891TIP3    H163164   3.964   1.085   6.158  2.2216 -0.4912 -0.6577
13891TIP3    H263165   4.005   1.230   6.148  1.4407 -0.2158 -0.0390
13892TIP3   OH263166   0.420   2.335   3.726 -0.1481  0.1131 -0.2925
13892TIP3    H163167   0.408   2.242   3.707 -0.7749  0.0094  0.5389
13892TIP3    H263168   0.424   2.377   3.640  0.0329 -0.6608 -0.6743
13893TIP3   OH263169   2.714   0.559   4.156  0.4606 -0.1289  0.1045
13893TIP3    H163170   2.646   0.582   4.219  0.9602  0.8992  0.2839
13893TIP3    H263171   2.667   0.554   4.072  0.1848  0.7583  0.1948
13894TIP3   OH263172   3.103   0.763  11.326 -0.6063 -0.1748 -0.0347
13894TIP3    H163173   3.076   0.824  11.258  0.3527  0.4135  0.1082
13894TIP3    H263174   3.127   0.683  11.278 -1.5670 -0.3610 -0.2389
13895TIP3   OH263175   2.764   2.598  11.684  0.8094  0.2337 -0.3448
13895TIP3    H163176   2.669   2.591  11.679  0.8571  0.6963 -2.3926
13895TIP3    H263177   2.782   2.608  11.778 -1.3655  2.9277 -0.0856
13896TIP3   OH263178   0.351   2.608   4.140  0.4292  0.1738  0.1093
13896TIP3    H163179   0.275   2.576   4.091 -0.7367 -1.1986  2.6094
13896TIP3    H263180   0.329   2.698   4.162  0.8137  0.6946 -1.4722
13897TIP3   OH263181   1.017   3.635   5.318  0.5120 -0.1169 -0.2749
13897TIP3    H163182   0.950   3.686   5.362  0.0527 -1.4058  0.5797
13897TIP3    H263183   1.017   3.667   5.228  0.5218  1.6214  0.3144
13898TIP3   OH263184   5.067   1.389   5.506  0.6054  0.5631 -0.6042
13898TIP3    H163185   5.117   1.390   5.587  1.7146  0.5648 -1.2595
13898TIP3    H263186   4.994   1.448   5.521  0.5183  0.1715  0.5528
13899TIP3   OH263187   2.061   6.582  13.405 -0.4552 -0.2469  0.0561
13899TIP3    H163188   1.983   6.638  13.403 -1.4621 -1.3083  3.0703
13899TIP3    H263189   2.028   6.497  13.432  1.2609 -1.9916 -2.8354
13900TIP3   OH263190   3.326   0.859   3.432  0.3964 -0.6177 -0.1670
13900TIP3    H163191   3.398   0.901   3.480  1.2921 -0.8948 -1.2164
13900TIP3    H263192   3.351   0.766   3.428  1.0655 -0.4018 -2.3267
13901TIP3   OH263193   0.306   1.132  16.561 -0.4621 -0.3824  0.0618
13901TIP3    H163194   0.333   1.212  16.517  1.0431 -1.1872 -0.5333
13901TIP3    H263195   0.248   1.161  16.632 -1.3132  1.0800 -1.1809
13902TIP3   OH263196   5.033   2.798  13.164  0.2026 -0.3998 -0.2997
13902TIP3    H163197   5.122   2.823  13.188  0.7498 -3.3655  1.2338
13902TIP3    H263198   4.977   2.845  13.225  1.0413 -1.3524  1.2584
13903TIP3   OH263199   5.735   1.502  15.421  0.3579 -0.2614 -0.0212
13903TIP3    H163200   5.697   1.422  15.459 -0.9046  1.9068  3.7169
13903TIP3    H263201   5.829   1.486  15.422  0.2214 -1.2949  1.8395
13904TIP3   OH263202   4.457   1.984   3.811 -0.7711 -0.5223  0.7192
13904TIP3    H163203   4.457   1.914   3.745 -2.8145  0.6678 -0.6622
13904TIP3    H263204   4.549   2.006   3.823 -0.2564 -1.7630 -0.6541
13905TIP3   OH263205   2.926   6.027  15.549  0.2375  0.3136  0.0555
13905TIP3    H163206   2.905   6.109  15.505 -1.6708  0.2547  0.7802
13905TIP3    H263207   2.889   5.959  15.493  1.1293 -0.0379 -0.1388
13906TIP3   OH263208   6.345   2.234   5.327 -0.6197 -0.0471 -0.3603
13906TIP3    H163209   6.345   2.169   5.257 -1.1930 -1.2753  0.7362
13906TIP3    H263210   6.257   2.271   5.326 -0.5496  0.1210 -0.4376
13907TIP3   OH263211   3.605   5.671  13.809 -0.3098  0.3417 -0.4266
13907TIP3    H163212   3.566   5.618  13.879 -1.2184  0.0596 -1.1177
13907TIP3    H263213   3.584   5.623  13.729  2.1589 -0.2141 -0.8100
13908TIP3   OH263214   3.427   1.764  17.212  0.4370 -0.2155 -0.1680
13908TIP3    H163215   3.373   1.694  17.251 -0.2829  1.4847  2.0978
13908TIP3    H263216   3.504   1.769  17.269  0.1687  1.2309  0.0970
13909TIP3   OH263217   4.081   6.641  11.464  0.0203  0.4517  0.2919
13909TIP3    H163218   4.055   6.557  11.426 -1.6594  1.1039 -0.1032
13909TIP3    H263219   4.041   6.706  11.406  3.6984  1.6684 -1.1675
13910TIP3   OH263220   1.805   2.484  16.757 -0.1569  1.0312  0.4644
13910TIP3    H163221   1.775   2.395  16.777 -0.8100  1.2657  0.5444
13910TIP3    H263222   1.861   2.507  16.831  0.7775  0.3458 -0.0011
13911TIP3   OH263223   0.121   3.050  16.116 -0.7833  0.2882  0.0927
13911TIP3    H163224   0.172   3.125  16.147  1.2418 -0.5258 -1.0591
13911TIP3    H263225   0.115   3.063  16.021 -0.9592 -0.6614 -0.0332
13912TIP3   OH263226   2.472   0.739   5.111  0.5487  0.5513  0.0966
13912TIP3    H163227   2.415   0.721   5.186 -0.9391 -0.5906 -1.2296
13912TIP3    H263228   2.527   0.662   5.103  0.8108  0.7364  0.0829
13913TIP3   OH263229   1.601   2.477   1.315 -0.2691  0.1197 -0.2247
13913TIP3    H163230   1.575   2.490   1.224 -1.8522 -1.7737 -0.1186
13913TIP3    H263231   1.669   2.410   1.312 -0.7783 -0.4196  0.0011
13914TIP3   OH263232   5.858   5.434   1.640  0.5439  0.0525 -0.3673
13914TIP3    H163233   5.774   5.391   1.657  0.5889  0.2912  0.5286
13914TIP3    H263234   5.895   5.385   1.567  0.2083 -0.8856  0.0664
13915TIP3   OH263235   1.675   4.252  13.819 -0.3738  0.5326 -0.0805
13915TIP3    H163236   1.673   4.328  13.761  1.7911 -0.6099 -1.7860
13915TIP3    H263237   1.591   4.209  13.806 -0.1878  0.6617 -1.8797
13916TIP3   OH263238   5.151   1.404  11.253 -0.4764 -0.0182  0.3703
13916TIP3    H163239   5.067   1.391  11.298  0.2116  0.1385  1.7630
13916TIP3    H263240   5.127   1.426  11.163 -1.9782  1.0960  0.9937
13917TIP3   OH263241   4.305   1.602   6.830 -0.1798  0.4754 -0.3776
13917TIP3    H163242   4.347   1.677   6.871 -1.0842  0.2759  0.9868
13917TIP3    H263243   4.371   1.533   6.833 -0.6249  0.0715  2.0181
13918TIP3   OH263244   1.917   3.210   0.429 -0.3861 -0.3280 -0.4215
13918TIP3    H163245   1.935   3.293   0.473 -0.2020  0.1275 -1.3450
13918TIP3    H263246   1.972   3.211   0.351  2.6063 -2.9663  1.3987
13919TIP3   OH263247   5.984   6.273  13.811 -0.5095  0.0041  0.0583
13919TIP3    H163248   6.055   6.338  13.815 -0.0792 -0.5014  2.1138
13919TIP3    H263249   6.020   6.196  13.855 -2.0524 -0.5401  0.4342
13920TIP3   OH263250   5.210   2.090   1.832  0.0377  0.0509 -0.3660
13920TIP3    H163251   5.233   2.166   1.778  0.6564 -1.3712 -2.2118
13920TIP3    H263252   5.278   2.088   1.900 -0.7467  1.8663  0.5316
13921TIP3   OH263253   3.142   2.684  11.420 -0.2825  0.0987  0.2631
13921TIP3    H163254   3.172   2.613  11.362 -1.2837  0.5602 -0.8763
13921TIP3    H263255   3.049   2.664  11.434 -0.4603  0.9436  0.2928
13922TIP3   OH263256   0.592   0.990   6.215 -0.5295 -1.1098 -0.7118
13922TIP3    H163257   0.502   0.986   6.249 -0.6190 -1.3019 -0.9647
13922TIP3    H263258   0.621   1.079   6.235 -0.9006 -0.9340 -0.9312
13923TIP3   OH263259   2.184   3.961   3.570 -0.3067 -0.3411 -0.5062
13923TIP3    H163260   2.126   3.888   3.588  0.2995 -0.3734  1.5787
13923TIP3    H263261   2.265   3.921   3.538 -0.3879 -0.4934 -0.5185
13924TIP3   OH263262   2.365   6.401   2.687  0.0163  0.1019 -0.1016
13924TIP3    H163263   2.407   6.427   2.769  1.0484 -0.1217 -0.5410
13924TIP3    H263264   2.271   6.408   2.704  0.2170 -0.1250  1.1555
13925TIP3   OH263265   3.000   4.221  17.368  0.2256  0.3854 -0.7869
13925TIP3    H163266   3.095   4.232  17.374  0.5766 -2.5592  1.3571
13925TIP3    H263267   2.966   4.258  17.449  0.0388 -1.7256  0.1723
13926TIP3   OH263268   1.090   3.276   1.714 -0.0624 -0.1139 -0.2253
13926TIP3    H163269   1.093   3.224   1.794 -2.3702  1.5498  1.0953
13926TIP3    H263270   1.110   3.365   1.743 -0.6556  0.4707 -1.5427
13927TIP3   OH263271   0.217   6.085  13.263  0.2610 -0.3278  0.4318
13927TIP3    H163272   0.134   6.053  13.225  0.3884 -1.6498  1.1895
13927TIP3    H263273   0.199   6.175  13.287 -0.0870  0.3203 -1.9665
13928TIP3   OH263274   4.394   2.488  13.217  0.5417 -0.0407  0.2706
13928TIP3    H163275   4.373   2.564  13.162 -0.8222  1.3062  2.5157
13928TIP3    H263276   4.339   2.418  13.182  0.7942  0.3552 -0.9760
13929TIP3   OH263277   6.573   2.941  12.156  0.9366  0.2114 -0.3915
13929TIP3    H163278   6.557   2.956  12.249  0.8375 -1.3170 -0.1367
13929TIP3    H263279   6.523   3.009  12.112 -0.2013  0.0707  0.6274
13930TIP3   OH263280   1.893   1.904  13.175 -0.3137  0.1542 -0.6621
13930TIP3    H163281   1.804   1.869  13.174  0.2850 -1.6638  1.3393
13930TIP3    H263282   1.938   1.854  13.243  1.7109  2.3916 -0.2037
13931TIP3   OH263283   4.971   3.289   2.685 -0.1351  0.0327  0.7356
13931TIP3    H163284   4.927   3.282   2.770 -2.3192 -1.4434 -0.3966
13931TIP3    H263285   4.948   3.208   2.640  0.9757  0.7575 -1.2723
13932TIP3   OH263286   3.711   4.156  15.352  0.2837 -0.6870  0.2976
13932TIP3    H163287   3.670   4.151  15.439  2.2370  0.0884  1.3391
13932TIP3    H263288   3.753   4.071  15.341  0.8197 -0.4657  0.5627
13933TIP3   OH263289   3.646   5.942  16.705  0.1739  0.7095  0.3817
13933TIP3    H163290   3.702   6.013  16.737  0.3556  0.1519  1.3270
13933TIP3    H263291   3.685   5.863  16.741 -0.1785  0.1423 -0.4530
13934TIP3   OH263292   3.675   5.238   0.517 -0.0131 -0.5336 -0.3136
13934TIP3    H163293   3.637   5.326   0.525  0.9571 -0.2441  1.9153
13934TIP3    H263294   3.662   5.200   0.604  0.9817 -2.0232 -0.7970
13935TIP3   OH263295   5.409   1.095  13.761  0.1982 -0.1067  0.3070
13935TIP3    H163296   5.404   1.020  13.820 -1.3905 -0.1901  0.1195
13935TIP3    H263297   5.365   1.066  13.681 -0.2175  0.9195  0.1426
13936TIP3   OH263298   6.607   3.612   6.298  0.2191  0.0510 -0.2711
13936TIP3    H163299   6.631   3.635   6.388  1.4764 -1.5883 -0.1504
13936TIP3    H263300   6.581   3.520   6.303  0.2276 -0.0385 -1.5877
13937TIP3   OH263301   0.829   0.388  15.128  0.2034 -0.2982  0.4962
13937TIP3    H163302   0.736   0.389  15.107 -0.6923 -0.4710  3.7711
13937TIP3    H263303   0.863   0.470  15.092 -1.3112 -0.0485 -0.4339
13938TIP3   OH263304   4.520   3.163  15.124 -0.7650  0.4410 -0.2335
13938TIP3    H163305   4.611   3.160  15.153 -0.5685  0.0797 -0.8652
13938TIP3    H263306   4.491   3.072  15.126 -1.8962  0.7722  2.3223
13939TIP3   OH263307   3.417   0.549   4.503 -0.4395  0.7403  0.6895
13939TIP3    H163308   3.336   0.510   4.535 -0.0919 -0.4446  0.1712
13939TIP3    H263309   3.434   0.623   4.562  0.2871 -1.4366  3.4212
13940TIP3   OH263310   0.630   4.639  12.607  0.4180 -0.6174  0.1500
13940TIP3    H163311   0.722   4.613  12.617 -0.0463 -2.2883  0.4013
13940TIP3    H263312   0.602   4.601  12.524  0.2720  0.9815 -0.5787
13941TIP3   OH263313   4.642   4.150  12.638  0.5924 -0.2263  0.5748
13941TIP3    H163314   4.718   4.143  12.695  0.6354 -0.7127  0.4591
13941TIP3    H263315   4.579   4.087  12.675  0.7155 -0.7276 -0.0651
13942TIP3   OH263316   5.270   3.003   5.373  0.0634  0.2056 -0.1900
13942TIP3    H163317   5.225   2.920   5.358 -0.5539  0.0703  1.9476
13942TIP3    H263318   5.252   3.023   5.466  1.6174  1.8661 -0.1892
13943TIP3   OH263319   3.073   0.432   2.304  0.3857 -0.4233  0.1372
13943TIP3    H163320   3.099   0.392   2.387  3.5218  0.1507 -0.4448
13943TIP3    H263321   3.096   0.367   2.237  0.0127  0.0102 -0.4270
13944TIP3   OH263322   1.743   3.850  15.314 -0.3507  0.5631  0.1137
13944TIP3    H163323   1.719   3.908  15.386  0.0918  1.1663 -0.2169
13944TIP3    H263324   1.819   3.802  15.346  0.4946  1.5812 -0.3160
13945TIP3   OH263325   1.565   4.378  11.888  0.0020 -0.2242  0.2992
13945TIP3    H163326   1.552   4.299  11.940 -0.1331  0.2039  0.9252
13945TIP3    H263327   1.597   4.443  11.950  0.2493  0.1770 -0.2380
13946TIP3   OH263328   0.012   1.127   4.442  0.3544  0.2437 -0.5630
13946TIP3    H163329  -0.069   1.084   4.415  0.6027 -0.7154  0.1602
13946TIP3    H263330   0.079   1.090   4.385  0.1825  1.7625 -1.8451
13947TIP3   OH263331   3.086   3.432   1.784  0.1864 -0.5579  0.0546
13947TIP3    H163332   2.997   3.417   1.817  0.2291  1.1117  1.0187
13947TIP3    H263333   3.132   3.473   1.857  1.5199 -0.6187 -0.7195
13948TIP3   OH263334   3.774   3.075  16.499 -0.2684 -0.0013 -0.1010
13948TIP3    H163335   3.840   3.130  16.540  0.1086  0.2771 -1.0647
13948TIP3    H263336   3.694   3.128  16.501 -0.1564  0.1675 -0.0845
13949TIP3   OH263337   3.147   2.417   4.113 -0.0644 -0.0503  0.2516
13949TIP3    H163338   3.207   2.424   4.187  1.2550 -0.3475 -0.7275
13949TIP3    H263339   3.205   2.409   4.037 -1.3686 -0.1858 -0.7677
13950TIP3   OH263340   3.299   5.476   3.430 -0.0663 -0.0570  0.1598
13950TIP3    H163341   3.275   5.498   3.520  0.5963 -1.9640  0.8467
13950TIP3    H263342   3.351   5.396   3.437  2.2265  1.1521 -1.7056
13951TIP3   OH263343   0.867   4.099   5.417  0.0567 -0.3584  0.3101
13951TIP3    H163344   0.924   4.150   5.474  0.5082  0.0223 -0.4646
13951TIP3    H263345   0.785   4.147   5.416 -0.5327 -1.2369  1.9289
13952TIP3   OH263346   2.914   6.732   4.386 -0.2760 -0.1413  0.0255
13952TIP3    H163347   2.985   6.730   4.321 -0.3020  1.6269 -0.1110
13952TIP3    H263348   2.952   6.694   4.465 -0.4823 -3.0957 -1.1783
13953TIP3   OH263349   2.662   0.379   6.577 -0.3096 -0.3467 -0.0523
13953TIP3    H163350   2.647   0.285   6.577 -0.3190 -0.3478  0.5433
13953TIP3    H263351   2.576   0.418   6.560 -0.1912 -0.4518 -0.9699
13954TIP3   OH263352   5.729   0.863  13.935  0.5074  0.3300  0.2040
13954TIP3    H163353   5.699   0.882  13.846 -0.3462  0.8126  0.5839
13954TIP3    H263354   5.793   0.793  13.924 -0.2670 -0.2647 -0.7061
13955TIP3   OH263355   3.821   0.057   2.271 -0.5666 -0.8764 -0.7823
13955TIP3    H163356   3.862   0.004   2.339 -1.1010 -0.1108  0.1467
13955TIP3    H263357   3.895   0.086   2.216 -0.3686 -3.7039 -2.1997
13956TIP3   OH263358   6.467   0.808  17.220 -0.3109 -0.0470 -0.1504
13956TIP3    H163359   6.470   0.863  17.142  0.4401 -1.4595 -1.1690
13956TIP3    H263360   6.504   0.724  17.192  1.6808 -0.0548  2.1884
13957TIP3   OH263361   6.312   0.491  12.995 -0.4908  0.1864  0.7654
13957TIP3    H163362   6.328   0.505  12.902  1.1154  0.0155  0.9940
13957TIP3    H263363   6.226   0.531  13.010  0.5580  3.0941 -0.1604
13958TIP3   OH263364   0.804   5.714   5.410 -0.5363 -0.3531  0.1832
13958TIP3    H163365   0.725   5.744   5.456 -0.2803  0.2134  0.2695
13958TIP3    H263366   0.864   5.789   5.416 -0.4665 -0.3000 -1.0063
13959TIP3   OH263367   0.860   3.182  15.471  0.1288  0.9073  0.2323
13959TIP3    H163368   0.884   3.209  15.560  1.2935  0.3295  0.1098
13959TIP3    H263369   0.922   3.113  15.449 -2.2175 -1.3318  0.2054
13960TIP3   OH263370   3.894   3.436  11.779 -0.0547  0.2778  0.1047
13960TIP3    H163371   3.977   3.456  11.736  0.2858 -1.5253 -0.1894
13960TIP3    H263372   3.835   3.505  11.752  0.9884  0.8425 -0.8008
13961TIP3   OH263373   4.748   3.623   5.619 -0.2907 -0.3045  0.2157
13961TIP3    H163374   4.807   3.554   5.589  2.0008  1.5540  0.1775
13961TIP3    H263375   4.756   3.622   5.714  0.9981  0.8877  0.1450
13962TIP3   OH263376   0.140   6.550   5.771  0.7022  0.3563  0.4048
13962TIP3    H163377   0.155   6.633   5.817 -0.5248  1.0977 -0.4986
13962TIP3    H263378   0.090   6.498   5.834 -1.6008  1.6309 -0.2519
13963TIP3   OH263379   1.044   4.407   3.732 -0.3862 -0.3005  0.2907
13963TIP3    H163380   1.018   4.423   3.641  0.7718 -1.5185 -0.2942
13963TIP3    H263381   1.109   4.475   3.750 -0.1442 -0.4426 -0.0253
13964TIP3   OH263382   0.211   1.400  16.110 -0.6119  0.0064 -0.0247
13964TIP3    H163383   0.277   1.335  16.085  0.3143  0.6717  0.6261
13964TIP3    H263384   0.256   1.484  16.100 -1.4486  0.4844  0.1795
13965TIP3   OH263385   4.982   3.545  14.418 -0.7144 -0.6341 -0.0517
13965TIP3    H163386   4.975   3.521  14.326  1.4657 -1.4833 -0.0701
13965TIP3    H263387   4.937   3.475  14.465  0.1553 -1.4613 -0.4067
13966TIP3   OH263388   6.069   0.153   3.243 -0.0706  0.4788 -0.1098
13966TIP3    H163389   6.119   0.088   3.292  0.9907  0.5245 -1.1008
13966TIP3    H263390   6.010   0.102   3.188 -0.2802  0.3957  0.1904
13967TIP3   OH263391   3.665   5.229  15.300  0.5758  0.8526  0.2496
13967TIP3    H163392   3.599   5.166  15.272  1.0684  0.7717 -0.8009
13967TIP3    H263393   3.721   5.240  15.223  1.7160  1.0058  1.0734
13968TIP3   OH263394   3.538   2.549   0.978 -0.0725 -0.1580  0.3788
13968TIP3    H163395   3.632   2.563   0.990  0.1242 -0.4493 -0.7135
13968TIP3    H263396   3.507   2.631   0.939 -0.2473 -0.1035  0.6338
13969TIP3   OH263397   4.203   4.388   5.401  0.5474 -0.2635 -0.1761
13969TIP3    H163398   4.191   4.455   5.335 -0.0135 -0.6378 -0.4553
13969TIP3    H263399   4.115   4.361   5.426  0.7606 -1.4413 -0.6330
13970TIP3   OH263400   4.294   4.467  17.236  0.0864 -0.7298 -0.3485
13970TIP3    H163401   4.238   4.390  17.238 -0.4264 -0.3676  1.1101
13970TIP3    H263402   4.233   4.540  17.228  0.3206 -0.3312  1.1666
13971TIP3   OH263403   1.454   0.529  15.651 -0.6523 -0.3297 -0.1333
13971TIP3    H163404   1.529   0.538  15.709 -0.0429 -0.9948 -0.7839
13971TIP3    H263405   1.380   0.559  15.702  0.0058  0.0117  0.6467
13972TIP3   OH263406   0.382   1.514  11.134 -0.6448 -0.1899  0.4118
13972TIP3    H163407   0.447   1.444  11.136 -0.7865 -0.3249  0.3211
13972TIP3    H263408   0.334   1.499  11.053 -0.2953  0.3612  0.1027
13973TIP3   OH263409   1.552   3.186   5.209 -0.1448  0.2555 -0.7260
13973TIP3    H163410   1.543   3.217   5.118  2.1138  0.0800 -1.0709
13973TIP3    H263411   1.552   3.266   5.261 -2.4874  0.3165 -0.7047
13974TIP3   OH263412   1.859   2.424  15.632 -0.1826 -0.6174  0.1206
13974TIP3    H163413   1.917   2.361  15.676 -1.3908 -2.8831 -1.3344
13974TIP3    H263414   1.772   2.387  15.643 -0.9277  0.7243 -1.0152
13975TIP3   OH263415   0.870   3.675  10.708 -0.3839 -0.4484  0.3253
13975TIP3    H163416   0.918   3.667  10.791 -0.9610 -2.1790  0.5286
13975TIP3    H263417   0.924   3.628  10.644 -1.0638 -1.1557  0.2498
13976TIP3   OH263418   5.059   2.371  13.237  0.1323  0.0469  0.9313
13976TIP3    H163419   5.150   2.395  13.218  0.5633 -0.0762  2.6559
13976TIP3    H263420   5.041   2.297  13.178  1.0154  0.3140  0.3074
13977TIP3   OH263421   1.954   2.956  11.523 -0.0372  0.2158  0.0557
13977TIP3    H163422   1.997   3.038  11.498  1.0591 -0.4189 -0.1868
13977TIP3    H263423   1.953   2.958  11.619 -3.2054  2.1128  0.1455
13978TIP3   OH263424   0.569   0.125   5.529 -0.1459  0.3143 -0.0997
13978TIP3    H163425   0.561   0.092   5.618 -1.4398 -0.0629 -0.3351
13978TIP3    H263426   0.615   0.208   5.538  1.1170 -0.4435  0.7429
13979TIP3   OH263427   1.475   3.765  14.152 -0.3593  0.2642  0.0967
13979TIP3    H163428   1.469   3.854  14.187 -2.6249  0.1418  0.1908
13979TIP3    H263429   1.517   3.715  14.222  0.6331  1.1685  0.1805
13980TIP3   OH263430   2.428   2.276   5.925 -0.0396  0.5726 -0.2521
13980TIP3    H163431   2.483   2.354   5.925 -0.3953  0.8308  0.1746
13980TIP3    H263432   2.482   2.208   5.967 -0.4699  1.1471  1.3087
13981TIP3   OH263433   4.271   4.650  11.479  0.2674 -0.9367 -0.4743
13981TIP3    H163434   4.302   4.655  11.570 -0.2958 -1.0639 -0.2744
13981TIP3    H263435   4.177   4.669  11.484  0.1735 -1.2315 -0.9969
13982TIP3   OH263436   4.256   3.181   0.419  0.0038 -0.0453  0.3958
13982TIP3    H163437   4.237   3.271   0.445  1.0643  0.5446 -0.7610
13982TIP3    H263438   4.338   3.160   0.463 -0.3199 -0.5001  0.7806
13983TIP3   OH263439   3.863   6.115  12.611  0.1212 -0.5169  0.7817
13983TIP3    H163440   3.937   6.056  12.625 -0.2641 -1.1320  0.3456
13983TIP3    H263441   3.820   6.080  12.532 -0.4965 -0.0426  0.8978
13984TIP3   OH263442   1.697   3.868  15.858 -0.3252  0.0282 -0.1250
13984TIP3    H163443   1.610   3.849  15.894 -0.8358  0.8610 -0.8744
13984TIP3    H263444   1.716   3.795  15.800 -0.3648 -0.3407  0.3275
13985TIP3   OH263445   3.600   3.140  13.929  0.1456 -0.3125 -0.7040
13985TIP3    H163446   3.543   3.107  13.998 -0.5879 -0.7280 -1.4841
13985TIP3    H263447   3.615   3.231  13.952 -3.1658  0.7082 -1.8636
13986TIP3   OH263448   5.016   0.470  16.127  0.3948  0.1647 -0.2653
13986TIP3    H163449   5.038   0.491  16.218 -2.6296 -2.5175  1.2724
13986TIP3    H263450   4.974   0.550  16.094 -3.2026 -0.2693  2.5746
13987TIP3   OH263451   1.822   5.859   0.949  0.2276 -0.1314  0.0178
13987TIP3    H163452   1.757   5.815   1.004 -1.2320  2.6649  0.6935
13987TIP3    H263453   1.884   5.896   1.012  2.0305 -1.9370 -0.5830
13988TIP3   OH263454   5.222   2.095  15.242 -0.0167  0.0553  0.2182
13988TIP3    H163455   5.297   2.038  15.226 -1.5610 -2.3233  0.9139
13988TIP3    H263456   5.229   2.118  15.335  0.0257  0.1254  0.1982
13989TIP3   OH263457   4.631   6.616   2.181  0.2616  0.0344 -0.0730
13989TIP3    H163458   4.662   6.594   2.094 -0.7004  0.5270 -0.5561
13989TIP3    H263459   4.706   6.660   2.223  0.7102 -0.1625 -0.6611
13990TIP3   OH263460   4.726   2.832  13.742  0.7624 -0.1572 -0.7150
13990TIP3    H163461   4.739   2.858  13.651  0.6789  0.5570 -0.5328
13990TIP3    H263462   4.792   2.766  13.758  1.2043  0.1811 -1.1131
13991TIP3   OH263463   4.205   4.529   2.191  0.5814  0.0824  0.3376
13991TIP3    H163464   4.299   4.540   2.204  0.2077  2.4503  1.6667
13991TIP3    H263465   4.186   4.577   2.111  0.6233 -1.2594 -0.4956
13992TIP3   OH263466   3.192   1.603   0.942 -0.4431  0.2268  0.0773
13992TIP3    H163467   3.186   1.590   0.848 -1.1959  1.2161 -0.0312
13992TIP3    H263468   3.277   1.565   0.967  1.0027  2.2697 -1.4313
13993TIP3   OH263469   5.138   4.159  11.909 -0.7364  0.6901 -0.3173
13993TIP3    H163470   5.182   4.186  11.828  0.6392  0.8621  0.4474
13993TIP3    H263471   5.084   4.084  11.883  0.8249 -0.2098 -1.1347
13994TIP3   OH263472   2.902   6.564  13.062  0.3040 -0.3108 -0.4282
13994TIP3    H163473   2.890   6.508  12.986 -1.2368  0.2432 -0.6198
13994TIP3    H263474   2.908   6.653  13.027  1.1902 -0.1813 -0.0014
13995TIP3   OH263475   0.539   5.017   5.944  0.1004  0.4669  0.1169
13995TIP3    H163476   0.594   4.979   6.012  0.8431  0.1980 -0.6106
13995TIP3    H263477   0.485   5.082   5.989 -0.4051 -0.6511  1.1979
13996TIP3   OH263478   4.912   6.216  12.778 -0.6481  0.4922  0.4022
13996TIP3    H163479   4.958   6.152  12.832  0.2651  1.6548  1.0324
13996TIP3    H263480   4.914   6.178  12.690  0.2371 -0.1634  0.6897
13997TIP3   OH263481   5.185   1.154   1.760  0.2351  0.4398  0.3265
13997TIP3    H163482   5.205   1.194   1.675 -0.9348 -0.0025 -0.1798
13997TIP3    H263483   5.111   1.204   1.793 -0.6868 -0.7260  0.0851
13998TIP3   OH263484   1.519   1.423  16.752 -0.1811 -0.0557 -0.0244
13998TIP3    H163485   1.484   1.467  16.675 -2.4246 -1.1987  0.2637
13998TIP3    H263486   1.545   1.494  16.811 -0.8586  0.8353 -0.7745
13999TIP3   OH263487   2.153   5.908   3.682 -0.0393 -0.0566  0.5266
13999TIP3    H163488   2.166   5.821   3.644  1.0064 -0.5892  2.0272
13999TIP3    H263489   2.239   5.950   3.677 -0.8448  1.5166 -1.5354
14000TIP3   OH263490   1.551   4.284  12.705 -0.4208 -0.6170  0.2473
14000TIP3    H163491   1.506   4.339  12.770 -1.5634 -1.4100  0.1514
14000TIP3    H263492   1.639   4.321  12.700 -1.0744  1.0463  0.3754
14001TIP3   OH263493   0.150   1.900   4.205  0.3694 -0.0917 -0.0687
14001TIP3    H163494   0.176   1.862   4.289  0.6978 -1.7290 -0.8624
14001TIP3    H263495   0.220   1.962   4.185  0.0296  0.6994  1.0832
14002TIP3   OH263496   2.527   1.902   2.124  0.4445 -0.3448  0.4062
14002TIP3    H163497   2.439   1.866   2.116  0.1459  0.4586  0.0301
14002TIP3    H263498   2.569   1.848   2.192  0.1334 -1.6091 -0.3775
14003TIP3   OH263499   1.112   4.309  15.298 -0.1373 -0.1992 -0.4150
14003TIP3    H163500   1.024   4.273  15.306 -0.7279  1.2020 -0.2404
14003TIP3    H263501   1.109   4.363  15.219  1.0243 -1.3323 -1.2737
14004TIP3   OH263502   5.264   5.521  16.264  0.1851 -0.4384 -0.2762
14004TIP3    H163503   5.245   5.470  16.186 -2.7881  1.9290 -1.3199
14004TIP3    H263504   5.344   5.570  16.243 -0.5602  0.1443 -1.8761
14005TIP3   OH263505   6.074   3.751   2.016 -0.0129 -0.4050  0.4232
14005TIP3    H163506   6.104   3.728   1.928  2.3006 -1.2050  1.3504
14005TIP3    H263507   6.022   3.830   2.004  2.1306  0.8348 -1.4286
14006TIP3   OH263508   1.532   2.518  10.817 -0.3598  0.1530 -0.3399
14006TIP3    H163509   1.503   2.597  10.861 -0.2613 -0.0026  0.0105
14006TIP3    H263510   1.461   2.455  10.832 -0.1445 -0.0243 -0.0509
14007TIP3   OH263511   4.885   1.579   5.676  0.4478 -0.6092  0.4051
14007TIP3    H163512   4.848   1.589   5.588  2.3640 -1.6409 -0.5879
14007TIP3    H263513   4.910   1.668   5.702  2.8720 -0.6037 -1.5624
14008TIP3   OH263514   6.222   6.181   5.841 -0.1293 -0.5572 -0.3904
14008TIP3    H163515   6.304   6.226   5.823 -0.2811  0.2945  0.8883
14008TIP3    H263516   6.159   6.221   5.781  0.0638 -0.1025 -0.2947
14009TIP3   OH263517   3.534   0.670  11.547  1.0659  0.1758 -0.0519
14009TIP3    H163518   3.569   0.675  11.459  0.8940 -0.9410 -0.1955
14009TIP3    H263519   3.451   0.717  11.543  1.1164  0.2296 -0.4512
14010TIP3   OH263520   3.456   4.980   0.453 -0.1129 -0.1738 -0.0535
14010TIP3    H163521   3.535   5.031   0.471 -1.0685  0.8929  1.2867
14010TIP3    H263522   3.407   5.032   0.390  0.2375 -0.8619 -0.9263
14011TIP3   OH263523   3.288   5.274   4.982 -0.2679  0.3067  0.0804
14011TIP3    H163524   3.262   5.304   5.069 -1.5168  0.7368 -0.4174
14011TIP3    H263525   3.383   5.274   4.984 -0.2336  2.5725  0.6998
14012TIP3   OH263526   1.887   1.099   3.356  0.2615  0.5104  0.1747
14012TIP3    H163527   1.884   1.028   3.420  0.2049  0.8593  0.5706
14012TIP3    H263528   1.825   1.164   3.390  0.4395  0.8214 -0.0864
14013TIP3   OH263529   4.198   1.968  14.275 -0.0256  0.1120  0.1210
14013TIP3    H163530   4.115   2.003  14.242  0.0989 -0.4447 -0.8181
14013TIP3    H263531   4.207   1.883  14.232  0.5128 -0.3240  1.0480
14014TIP3   OH263532   6.618   2.795   5.624 -0.0024 -0.2004 -0.2961
14014TIP3    H163533   6.522   2.788   5.632 -0.2057  2.2091  0.1060
14014TIP3    H263534   6.647   2.824   5.710  0.6410  2.3685 -1.2914
14015TIP3   OH263535   5.328   0.107   0.638 -0.7821 -0.1564 -0.2745
14015TIP3    H163536   5.382   0.183   0.660 -1.5471 -0.0300  1.3226
14015TIP3    H263537   5.239   0.141   0.634 -1.2946 -1.1324  1.6573
14016TIP3   OH263538   0.878   5.249   0.614 -0.0846 -0.3224 -1.2260
14016TIP3    H163539   0.917   5.163   0.600 -0.6673 -0.5399 -1.5451
14016TIP3    H263540   0.931   5.309   0.560  1.6679 -0.1025  0.6363
14017TIP3   OH263541   5.447   4.709  13.287  0.1087  0.1884  0.5488
14017TIP3    H163542   5.399   4.743  13.211 -0.4759 -0.7564  0.4842
14017TIP3    H263543   5.510   4.647  13.250 -0.8690 -1.0481  0.8909
14018TIP3   OH263544   1.890   4.413   5.836  0.4016  0.1396 -0.2802
14018TIP3    H163545   1.891   4.410   5.740  1.0677 -0.8272 -0.2600
14018TIP3    H263546   1.979   4.389   5.861  0.0506 -0.2667  0.5998
14019TIP3   OH263547   2.608   3.782   1.806 -0.7242  0.4741  0.1615
14019TIP3    H163548   2.607   3.771   1.901 -1.4058 -1.9435 -0.0768
14019TIP3    H263549   2.597   3.876   1.793 -2.8723  0.6373  2.4364
14020TIP3   OH263550   5.513   2.996   6.818 -0.0387 -0.3368 -0.0334
14020TIP3    H163551   5.443   2.992   6.753  0.7133  0.5403 -0.9390
14020TIP3    H263552   5.519   3.089   6.840  2.9546  0.1581 -2.4069
14021TIP3   OH263553   4.490   1.159  16.602  0.0197 -0.0762 -0.2925
14021TIP3    H163554   4.528   1.089  16.656 -0.5099 -0.2492 -0.1400
14021TIP3    H263555   4.420   1.195  16.656 -0.4544 -0.1859 -0.8282
14022TIP3   OH263556   2.276   3.255  11.809  0.1647  0.7442  0.2934
14022TIP3    H163557   2.368   3.265  11.786 -0.0694  0.7569 -0.6710
14022TIP3    H263558   2.230   3.255  11.726 -0.8270  1.9152  0.8052
14023TIP3   OH263559   0.577   1.656   1.544  0.2632  0.0208  0.0647
14023TIP3    H163560   0.524   1.622   1.616  0.6465 -0.4789  0.1261
14023TIP3    H263561   0.636   1.583   1.523 -0.1884 -0.0177 -1.0910
14024TIP3   OH263562   2.009   6.536   1.988  0.7966 -0.1132  0.3127
14024TIP3    H163563   2.099   6.569   1.986  1.3367 -1.4906  0.5063
14024TIP3    H263564   2.001   6.491   2.072  0.8807 -2.4258 -0.8388
14025TIP3   OH263565   2.317   2.996   1.501 -1.0291 -0.2993  1.2065
14025TIP3    H163566   2.335   3.058   1.431 -2.1367 -1.4463 -0.1535
14025TIP3    H263567   2.401   2.983   1.544 -0.0389 -0.4394 -0.6692
14026TIP3   OH263568   6.519   1.207  11.545 -0.2499  0.1409  0.2334
14026TIP3    H163569   6.476   1.258  11.614  0.9270  2.6115 -0.7572
14026TIP3    H263570   6.612   1.213  11.566  0.1178  0.8725 -1.4958
14027TIP3   OH263571   3.506   5.032  11.599 -0.7697  0.0423  0.5877
14027TIP3    H163572   3.474   4.999  11.683 -2.0698  3.5639  1.6501
14027TIP3    H263573   3.475   5.123  11.595  2.5529  1.2617 -1.9676
14028TIP3   OH263574   2.358   6.272  17.438 -0.1902 -0.2626 -0.2247
14028TIP3    H163575   2.274   6.256  17.396 -0.3380 -0.5658  0.1726
14028TIP3    H263576   2.399   6.185  17.445 -0.0110 -0.1684 -0.0780
14029TIP3   OH263577   3.291   2.935  17.112 -0.0387  0.2133 -0.0555
14029TIP3    H163578   3.362   2.923  17.048 -0.7564  1.7020 -1.2081
14029TIP3    H263579   3.211   2.931  17.060 -0.6434  1.5593  0.7211
14030TIP3   OH263580   4.882   5.535  16.486 -0.2355  0.1520  0.0387
14030TIP3    H163581   4.853   5.581  16.407 -0.7827  0.6666  0.5273
14030TIP3    H263582   4.801   5.499  16.524  0.1029 -0.6539  0.0198
14031TIP3   OH263583   1.631   6.332   0.832 -1.0791 -0.0229  0.0187
14031TIP3    H163584   1.598   6.314   0.744  0.6638 -0.3573 -0.5876
14031TIP3    H263585   1.643   6.246   0.872  1.8227 -0.0958 -0.8465
14032TIP3   OH263586   0.431   5.921   1.764  0.3720  0.3959 -0.0952
14032TIP3    H163587   0.410   5.876   1.846 -1.0529  0.9510 -0.1275
14032TIP3    H263588   0.357   5.902   1.707  0.0869  2.1286 -0.3613
14033TIP3   OH263589   3.105   1.448  14.815  0.3106  0.4345 -0.1641
14033TIP3    H163590   3.068   1.536  14.824  0.0126  0.4235 -1.1360
14033TIP3    H263591   3.055   1.409  14.743 -0.2909 -0.9186  0.9568
14034TIP3   OH263592   2.378   2.786  14.121  0.2154 -0.1987 -0.2225
14034TIP3    H163593   2.361   2.795  14.214  0.0036  0.9311 -0.3570
14034TIP3    H263594   2.443   2.716  14.115  1.0005  0.4199  0.8447
14035TIP3   OH263595   3.725   5.028  15.064 -0.0555  0.4299  0.4746
14035TIP3    H163596   3.758   5.061  14.980  0.4398  0.2840  0.6061
14035TIP3    H263597   3.635   5.060  15.069  0.3116  1.5068  0.4578
14036TIP3   OH263598   5.676   1.673   1.711 -0.7246 -0.2142 -0.0006
14036TIP3    H163599   5.586   1.694   1.685 -0.1974  1.0009 -0.9289
14036TIP3    H263600   5.685   1.711   1.798 -0.9875 -0.0157 -0.0582
14037TIP3   OH263601   3.716   3.550  12.041 -0.0380 -0.0250  0.1174
14037TIP3    H163602   3.655   3.476  12.051  2.2038 -1.8937  0.7976
14037TIP3    H263603   3.794   3.511  12.002  0.7792  2.2964 -0.7134
14038TIP3   OH263604   6.089   6.266   0.791  0.1885  0.2512  0.4030
14038TIP3    H163605   6.048   6.247   0.875  0.1868  2.3236  0.9455
14038TIP3    H263606   6.090   6.362   0.786 -0.2542  0.2038 -2.1791
14039TIP3   OH263607   4.637   2.473   0.393  0.2140 -0.0586  0.4290
14039TIP3    H163608   4.608   2.512   0.477 -0.9131  1.5225 -0.6224
14039TIP3    H263609   4.594   2.527   0.327  0.4660 -1.7529 -1.1809
14040TIP3   OH263610   5.412   2.612  14.543 -0.5226  0.0458  0.3016
14040TIP3    H163611   5.332   2.634  14.494 -0.6639 -1.5862 -0.2605
14040TIP3    H263612   5.417   2.516  14.539  0.2805 -0.0353  2.2229
14041TIP3   OH263613   2.665   0.895   5.355  0.2530 -0.3259  0.0125
14041TIP3    H163614   2.688   0.861   5.268  2.1347 -0.6273  0.5680
14041TIP3    H263615   2.577   0.931   5.345  0.4807 -0.2300 -2.0439
14042TIP3   OH263616   6.676   1.820  14.233  0.3926 -0.5287 -0.2225
14042TIP3    H163617   6.622   1.896  14.252 -0.9514 -1.7075  1.0120
14042TIP3    H263618   6.752   1.854  14.186  0.8941  1.8610  2.0888
14043TIP3   OH263619   5.549   5.576   0.819  0.2292 -0.1057 -0.2389
14043TIP3    H163620   5.536   5.539   0.731 -0.1077  0.9912 -0.6634
14043TIP3    H263621   5.462   5.608   0.845  0.5565  0.5994  0.0142
14044TIP3   OH263622   3.893   1.106  16.658 -0.2724  0.4363  0.1912
14044TIP3    H163623   3.864   1.057  16.582 -2.9840  2.2434 -0.0532
14044TIP3    H263624   3.818   1.105  16.718  0.9119  1.1539  1.7730
14045TIP3   OH263625   3.313   1.488  15.993 -0.4182 -0.3345  0.1390
14045TIP3    H163626   3.319   1.397  16.020 -2.0396 -0.9391 -1.3234
14045TIP3    H263627   3.238   1.523  16.042 -0.3306 -0.0403  0.0682
14046TIP3   OH263628   4.282   3.600   2.991  0.1960 -0.4585  0.3405
14046TIP3    H163629   4.322   3.682   3.021 -0.1628 -0.3285  0.4561
14046TIP3    H263630   4.337   3.574   2.916 -0.4302  0.5458 -0.4923
14047TIP3   OH263631   2.527   0.667  11.977 -0.1703  0.1590 -0.4945
14047TIP3    H163632   2.536   0.605  11.905  1.0616  0.7554 -0.8807
14047TIP3    H263633   2.436   0.697  11.971 -0.3106 -0.3932 -1.3017
14048TIP3   OH263634   6.005   6.321   4.846 -0.1999 -0.2141  0.2307
14048TIP3    H163635   6.023   6.347   4.937 -1.4787  1.1518  0.1398
14048TIP3    H263636   5.910   6.307   4.844  0.0528 -2.1048 -0.4741
14049TIP3   OH263637   4.017   4.693   1.675  0.2793  0.0818 -0.1418
14049TIP3    H163638   4.048   4.719   1.588 -0.5675  1.2267 -0.1194
14049TIP3    H263639   4.096   4.683   1.727  0.7358  0.4907 -0.7498
14050TIP3   OH263640   4.417   4.016   4.874  0.7519 -0.6092 -0.1476
14050TIP3    H163641   4.359   4.028   4.949  0.7493 -0.6964 -0.1361
14050TIP3    H263642   4.409   3.924   4.852  0.0068 -0.3878 -0.8570
14051TIP3   OH263643   0.505   0.231   0.490 -0.0057 -0.2556 -0.2647
14051TIP3    H163644   0.475   0.269   0.407 -2.0453  0.5346  0.7649
14051TIP3    H263645   0.558   0.299   0.531 -1.2560  0.4321  0.2686
14052TIP3   OH263646   6.316   1.946  16.876 -0.1127  0.0300 -0.2382
14052TIP3    H163647   6.405   1.980  16.867  0.5341 -1.6399 -0.5933
14052TIP3    H263648   6.293   1.918  16.787 -0.4889 -0.7233  0.0908
14053TIP3   OH263649   5.271   5.343  15.672 -0.1654  0.6006  0.0868
14053TIP3    H163650   5.352   5.296  15.690 -1.2753 -1.0753  1.1083
14053TIP3    H263651   5.294   5.409  15.607  1.6596 -0.9483 -0.9416
14054TIP3   OH263652   3.119   3.540  14.519  0.3368  0.0459  0.7549
14054TIP3    H163653   3.094   3.471  14.581  1.2546 -0.3200  0.7363
14054TIP3    H263654   3.215   3.542  14.523  0.3606  0.7005  0.0743
14055TIP3   OH263655   4.247   5.771   5.695  0.1156 -0.2141  0.8769
14055TIP3    H163656   4.328   5.816   5.672  1.0232 -2.0203  0.3613
14055TIP3    H263657   4.210   5.744   5.611  0.1311 -1.2998  1.2066
14056TIP3   OH263658   3.169   2.407  11.572  0.0085 -0.0601 -0.3862
14056TIP3    H163659   3.250   2.457  11.569 -0.7135  1.1798 -0.0234
14056TIP3    H263660   3.159   2.383  11.664 -0.9424  1.4072 -0.0638
14057TIP3   OH263661   6.644   2.205   5.017 -0.3531  0.3882  0.8101
14057TIP3    H163662   6.712   2.240   5.074  0.1597 -0.1626  0.5357
14057TIP3    H263663   6.598   2.283   4.985  1.6824  0.9656 -0.9587
14058TIP3   OH263664   0.939   6.423   1.072 -0.1555  0.2711  0.1609
14058TIP3    H163665   0.923   6.330   1.061  0.2738  0.3293 -1.0087
14058TIP3    H263666   0.965   6.432   1.164  0.4351 -0.8405  0.1134
14059TIP3   OH263667   6.450   2.722  11.566 -0.2125  0.0011 -0.1548
14059TIP3    H163668   6.441   2.636  11.525 -1.4216 -1.4498  2.8481
14059TIP3    H263669   6.362   2.744  11.597  0.2807  1.8389  0.0915
14060TIP3   OH263670   2.321   4.484   6.007 -0.1116  0.4879 -0.6683
14060TIP3    H163671   2.382   4.535   5.953  1.0575 -0.6136 -0.4305
14060TIP3    H263672   2.334   4.518   6.095  2.5545 -1.7835 -0.0343
14061TIP3   OH263673   1.698   3.936  15.571 -0.5278  0.2736  0.2940
14061TIP3    H163674   1.714   3.941  15.665 -0.9702  1.2109  0.3302
14061TIP3    H263675   1.696   4.027  15.542  0.9231 -0.0283 -0.8619
14062TIP3   OH263676   1.900   2.878  16.574 -0.1091 -0.2446 -0.3554
14062TIP3    H163677   1.962   2.947  16.597 -2.0462  1.1126  1.2430
14062TIP3    H263678   1.942   2.797  16.602  1.7572  0.3816 -1.2044
14063TIP3   OH263679   3.953   3.749  15.538  0.0657  0.0825 -0.3188
14063TIP3    H163680   3.886   3.680  15.534 -0.6072  0.7876 -1.8884
14063TIP3    H263681   3.913   3.817  15.593  0.0759 -0.0892 -0.0956
14064TIP3   OH263682   2.736   2.735   2.369 -0.4914  0.1867 -0.3425
14064TIP3    H163683   2.772   2.818   2.399  1.3912 -1.2633  1.7125
14064TIP3    H263684   2.655   2.725   2.418 -1.8622  1.6873 -2.1484
14065TIP3   OH263685   5.285   1.537  15.666  0.2450 -0.2076 -0.0931
14065TIP3    H163686   5.354   1.573  15.721  2.2113 -3.4953 -0.1604
14065TIP3    H263687   5.249   1.464  15.716 -1.9417  0.2187 -0.8873
14066TIP3   OH263688   5.301   5.116   1.515 -0.1029 -0.6452  0.3215
14066TIP3    H163689   5.249   5.094   1.438  1.3009  1.3408 -1.3283
14066TIP3    H263690   5.264   5.199   1.545  1.4644  0.3440 -0.3496
14067TIP3   OH263691   3.711   5.286   1.826  0.1183 -0.4173  0.7752
14067TIP3    H163692   3.726   5.223   1.756  0.4405  0.5719 -0.0680
14067TIP3    H263693   3.624   5.264   1.861 -0.7924  0.0977 -1.0498
14068TIP3   OH263694   5.098   4.339   3.704  0.2868 -0.4574 -0.1084
14068TIP3    H163695   5.036   4.348   3.632 -0.2070 -1.1363  0.2175
14068TIP3    H263696   5.068   4.262   3.752  1.3474 -0.7600  0.0952
14069TIP3   OH263697   4.162   1.294  14.430  1.1463 -0.3000  0.1386
14069TIP3    H163698   4.226   1.341  14.376 -1.7598  0.8869 -2.5617
14069TIP3    H263699   4.146   1.212  14.384 -0.4317  0.1449 -0.1585
14070TIP3   OH263700   4.426   2.380   2.950  0.4057 -0.7632  0.5631
14070TIP3    H163701   4.396   2.340   2.869 -1.1646 -1.5634  1.4897
14070TIP3    H263702   4.521   2.382   2.942  0.3110 -1.2590 -1.0845
14071TIP3   OH263703   6.012   2.006   1.301 -0.0392  0.4097 -0.0589
14071TIP3    H163704   5.973   1.926   1.267  0.1841  1.0379 -1.8794
14071TIP3    H263705   5.940   2.069   1.302 -0.2930  0.1545  1.6649
14072TIP3   OH263706   2.850   0.321   0.663  0.1803 -0.0022  0.2962
14072TIP3    H163707   2.895   0.271   0.731  3.0403 -1.2435 -2.3006
14072TIP3    H263708   2.916   0.383   0.631 -1.3369  1.1348 -0.7983
14073TIP3   OH263709   4.505   5.705   3.504  0.1985 -0.2056 -0.1835
14073TIP3    H163710   4.576   5.758   3.468 -0.4390  0.3647 -0.6310
14073TIP3    H263711   4.544   5.619   3.517  1.4942  0.5475  1.3330
14074TIP3   OH263712   2.277   2.449  15.800 -0.0815 -0.2809  0.1040
14074TIP3    H163713   2.304   2.467  15.890  0.6817 -1.5779  0.1742
14074TIP3    H263714   2.317   2.364  15.780 -1.1624 -0.5495 -1.0772
14075TIP3   OH263715   2.293   1.303   3.055 -0.4098  0.4451 -0.0591
14075TIP3    H163716   2.206   1.275   3.085 -0.6545  1.6876  0.4507
14075TIP3    H263717   2.283   1.313   2.960 -0.5746 -0.2478 -0.1228
14076TIP3   OH263718   2.489   1.332   5.232  0.5991  0.2752  0.7944
14076TIP3    H163719   2.484   1.318   5.326  0.6092  1.8835  1.0575
14076TIP3    H263720   2.467   1.424   5.220  0.1919  0.0025 -0.8223
14077TIP3   OH263721   0.314   5.564  15.436 -0.2629 -0.0556  0.3198
14077TIP3    H163722   0.236   5.618  15.423 -0.1599  0.1042  0.3607
14077TIP3    H263723   0.347   5.549  15.348 -0.1522  0.1561  0.3245
14078TIP3   OH263724   0.909   3.081   2.235 -0.1666 -0.4458 -0.0016
14078TIP3    H163725   0.816   3.082   2.260  0.0630 -1.9326  1.0683
14078TIP3    H263726   0.912   3.024   2.158 -0.1093 -0.6894  0.1782
14079TIP3   OH263727   6.466   1.433   4.210  0.5865  0.3549  0.1897
14079TIP3    H163728   6.511   1.496   4.154  2.9871 -0.7514  0.7721
14079TIP3    H263729   6.437   1.364   4.151  2.0135 -0.1919  0.0857
14080TIP3   OH263730   1.323   5.764  15.683 -0.2592  0.7073 -0.0989
14080TIP3    H163731   1.407   5.727  15.656 -0.7611  0.0311 -0.7804
14080TIP3    H263732   1.339   5.797  15.772 -0.0695 -2.2792  1.0928
14081TIP3   OH263733   0.313   6.400   4.134 -0.4961  0.4154 -0.8803
14081TIP3    H163734   0.382   6.333   4.140 -1.2835 -0.2411  2.5957
14081TIP3    H263735   0.335   6.449   4.054  1.8760 -2.0261 -1.8902
14082TIP3   OH263736   3.387   0.061  13.132  1.0474 -0.6618 -0.4591
14082TIP3    H163737   3.326   0.002  13.087 -0.7427  1.4868 -1.0190
14082TIP3    H263738   3.458   0.075  13.070  1.1028 -1.6031 -0.6181
14083TIP3   OH263739   4.935   4.343   1.927 -0.0661 -0.0871 -0.3075
14083TIP3    H163740   4.938   4.300   1.841  0.4894  1.0177 -0.8546
14083TIP3    H263741   4.998   4.295   1.980 -1.1583 -1.4426 -0.1854
14084TIP3   OH263742   0.903   6.220  13.113  0.4376 -0.0897  0.0348
14084TIP3    H163743   0.838   6.159  13.147 -0.1230  1.5388  2.1074
14084TIP3    H263744   0.984   6.198  13.160  0.0869  1.0694  1.2445
14085TIP3   OH263745   6.509   4.062   5.842  0.1284 -0.0965  0.3150
14085TIP3    H163746   6.507   3.974   5.803  1.4318 -0.3069  0.6765
14085TIP3    H263747   6.495   4.046   5.935 -0.2142  0.1401  0.3040
14086TIP3   OH263748   4.623   0.125   3.897 -0.5437  0.1783 -0.4057
14086TIP3    H163749   4.652   0.105   3.809 -1.4855 -2.3996 -0.2162
14086TIP3    H263750   4.701   0.112   3.952 -0.4409 -0.2427 -0.6445
14087TIP3   OH263751   0.177   1.879   1.495  0.0476  0.0756 -0.3736
14087TIP3    H163752   0.187   1.794   1.453  0.2831 -0.1938  0.2135
14087TIP3    H263753   0.265   1.900   1.527 -0.2349 -0.0034  0.4896
14088TIP3   OH263754   6.041   1.379  13.870  0.2358  0.1522  0.8429
14088TIP3    H163755   6.038   1.473  13.849  0.9068  0.0271  0.1256
14088TIP3    H263756   6.001   1.373  13.956 -0.3503  1.0266  0.6492
14089TIP3   OH263757   6.290   5.841   4.298  0.0730 -0.0611  0.3304
14089TIP3    H163758   6.334   5.756   4.298  0.6578  0.2424  0.4767
14089TIP3    H263759   6.326   5.887   4.374  1.4171  1.1799 -1.0161
14090TIP3   OH263760   0.509   3.098  14.887 -0.0232 -0.8040 -0.3018
14090TIP3    H163761   0.489   3.101  14.981 -1.4479 -1.3613 -0.5550
14090TIP3    H263762   0.442   3.154  14.847  1.4297  0.5968 -0.8894
14091TIP3   OH263763   3.588   0.876   3.528  0.7125 -0.4620  0.2639
14091TIP3    H163764   3.657   0.879   3.461  0.2178 -2.7423 -0.4515
14091TIP3    H263765   3.601   0.791   3.571 -0.2315  0.0936  1.7081
14092TIP3   OH263766   3.240   1.281  11.313 -0.1006 -0.4216  0.2733
14092TIP3    H163767   3.173   1.244  11.370 -0.0544 -1.2337 -0.1812
14092TIP3    H263768   3.200   1.281  11.226  0.2998 -0.4284  0.0883
14093TIP3   OH263769   4.691   1.298  14.626  0.3729  0.2621 -0.1703
14093TIP3    H163770   4.696   1.311  14.721 -1.8220  0.6569 -0.0630
14093TIP3    H263771   4.730   1.212  14.611 -0.6962 -0.5036  1.2998
14094TIP3   OH263772   1.110   5.127  17.504  0.1043  0.2968  0.6449
14094TIP3    H163773   1.137   5.050  17.454 -0.2596  0.0170  0.8730
14094TIP3    H263774   1.177   5.192  17.485  0.7792 -0.2883  0.9573
14095TIP3   OH263775   5.229   5.677   3.119  0.3163 -0.6572  0.2360
14095TIP3    H163776   5.291   5.722   3.062  0.8820 -0.9291  0.6247
14095TIP3    H263777   5.237   5.722   3.203 -0.1946 -0.5374  0.2248
14096TIP3   OH263778   5.882   5.885   2.495 -0.5917 -0.4196  0.1378
14096TIP3    H163779   5.943   5.848   2.559  1.2934  1.7900 -0.2387
14096TIP3    H263780   5.885   5.824   2.421  2.5555  0.3776 -0.5417
14097TIP3   OH263781   6.186   2.350   6.567 -0.4946  0.2276 -0.0876
14097TIP3    H163782   6.199   2.404   6.489  0.8444  0.9483  0.6055
14097TIP3    H263783   6.113   2.392   6.613 -2.3861 -1.1285 -1.6946
14098TIP3   OH263784   6.236   1.389  15.031  0.1479 -0.3993 -0.0597
14098TIP3    H163785   6.223   1.316  15.091 -0.5179  0.2382  0.5820
14098TIP3    H263786   6.171   1.454  15.057  1.3728  0.8403  0.0380
14099TIP3   OH263787   5.527   4.972   2.749 -0.1313 -0.6264  0.4328
14099TIP3    H163788   5.598   4.908   2.756  0.9034  0.4255 -0.2136
14099TIP3    H263789   5.522   4.993   2.656 -0.8912 -0.2224  0.5491
14100TIP3   OH263790   2.174   5.572   4.345 -0.6638  0.0436  0.3063
14100TIP3    H163791   2.143   5.591   4.256 -1.1094 -0.7499  0.2827
14100TIP3    H263792   2.211   5.484   4.340 -0.1599  0.2206  0.7814
14101TIP3   OH263793   4.021   4.363   1.893  0.4509  0.5727  0.2581
14101TIP3    H163794   4.096   4.418   1.873  0.1746  0.7761 -0.2156
14101TIP3    H263795   4.059   4.279   1.919  0.8319  0.5351 -0.4056
14102TIP3   OH263796   0.408   5.421  16.016 -0.0934  0.1520  0.3444
14102TIP3    H163797   0.404   5.517  16.012  1.5064  0.3615  2.3537
14102TIP3    H263798   0.500   5.400  16.000 -0.8008 -1.3167 -2.6428
14103TIP3   OH263799   2.845   0.540   2.403 -0.3170  0.5364 -0.0998
14103TIP3    H163800   2.796   0.581   2.333  0.3036 -2.7052 -2.6963
14103TIP3    H263801   2.926   0.511   2.362  0.7725 -0.1701  2.3670
14104TIP3   OH263802   4.038   6.310  11.830  0.7914 -0.4247 -0.6467
14104TIP3    H163803   4.053   6.237  11.890 -1.1584 -0.3742 -0.0325
14104TIP3    H263804   4.004   6.269  11.751 -2.2853 -0.1539  0.4034
14105TIP3   OH263805   3.533   0.087   4.960  0.1872  0.0876  0.0824
14105TIP3    H163806   3.501   0.046   4.879 -0.9737 -2.0234  1.5007
14105TIP3    H263807   3.454   0.107   5.009  0.8798  1.1729  0.7932
14106TIP3   OH263808   5.983   3.615  16.810 -0.0071  0.2926  0.2464
14106TIP3    H163809   6.072   3.600  16.842 -0.5679  0.1155  1.7998
14106TIP3    H263810   5.974   3.710  16.805  0.2528  0.3109  0.1005
14107TIP3   OH263811   0.945   2.580  14.008  0.6537  0.2341  0.1292
14107TIP3    H163812   0.995   2.551  13.933 -1.5589  0.4111 -1.5238
14107TIP3    H263813   0.926   2.672  13.990 -4.4261 -0.8984 -2.0553
14108TIP3   OH263814   3.490   3.565  13.736  0.8410  0.3531 -0.6004
14108TIP3    H163815   3.481   3.475  13.704 -0.7547  0.1974  0.1672
14108TIP3    H263816   3.410   3.580  13.787  2.9702  0.7366  2.9387
14109TIP3   OH263817   0.751   0.113   4.867 -0.5113 -0.7309 -0.9484
14109TIP3    H163818   0.696   0.044   4.831  1.3966 -2.6445 -0.3965
14109TIP3    H263819   0.839   0.091   4.838  0.6371 -0.4477  2.0118
14110TIP3   OH263820   4.753   1.701   3.301  0.1024  0.1023 -0.0526
14110TIP3    H163821   4.705   1.619   3.292  1.3591 -0.6247 -0.4395
14110TIP3    H263822   4.693   1.768   3.271 -1.6105 -0.4344  1.9261
14111TIP3   OH263823   2.362   3.509  12.385 -0.3768 -0.7745  0.0762
14111TIP3    H163824   2.455   3.503  12.408 -0.4026  0.0409  0.4564
14111TIP3    H263825   2.362   3.532  12.292 -0.1468  0.6090  0.3932
14112TIP3   OH263826   3.522   1.612  12.392  0.2149  0.2190 -0.5603
14112TIP3    H163827   3.605   1.659  12.385  0.9389 -0.8124  0.6984
14112TIP3    H263828   3.460   1.677  12.426  0.4919  0.9950 -1.5201
14113TIP3   OH263829   4.277   0.802   3.049 -0.2869  0.1413  0.2480
14113TIP3    H163830   4.190   0.792   3.012 -0.0320 -1.0220 -0.0729
14113TIP3    H263831   4.279   0.741   3.123  0.4927 -0.3919 -0.1969
14114TIP3   OH263832   0.467   3.028  15.784  0.6324  0.9584 -0.6123
14114TIP3    H163833   0.436   2.938  15.777  2.6993  0.0874  0.8209
14114TIP3    H263834   0.415   3.075  15.718 -2.2129 -0.7380  0.2259
14115TIP3   OH263835   2.160   0.390   0.491  0.3037 -0.2328 -0.0948
14115TIP3    H163836   2.223   0.367   0.559 -0.7099 -1.5288  0.4449
14115TIP3    H263837   2.170   0.321   0.425 -1.3644 -1.1480  0.5670
14116TIP3   OH263838   6.361   3.399  15.427 -0.3371 -0.1462 -0.8815
14116TIP3    H163839   6.360   3.495  15.432  0.7002 -0.1652  0.3096
14116TIP3    H263840   6.336   3.370  15.514  2.6502 -0.8697 -0.1323
14117TIP3   OH263841   2.477   2.571  13.161  0.7357 -0.3801  0.3790
14117TIP3    H163842   2.449   2.631  13.091  0.1015 -1.2019 -0.0985
14117TIP3    H263843   2.512   2.628  13.229 -1.0856  0.6489  0.5178
14118TIP3   OH263844   1.246   2.003  14.957 -0.4750 -0.3067  0.1292
14118TIP3    H163845   1.282   2.092  14.959  1.0590 -0.8506  3.1133
14118TIP3    H263846   1.155   2.014  14.931  0.2940  1.7969 -2.0429
14119TIP3   OH263847   0.209   2.443  15.004  0.6183 -0.3655 -0.2881
14119TIP3    H163848   0.127   2.446  15.053  0.8553  0.2637  0.0796
14119TIP3    H263849   0.188   2.392  14.926 -0.1826 -0.0254 -0.3058
14120TIP3   OH263850   4.464   5.989   0.631 -0.1456 -0.2627  0.3033
14120TIP3    H163851   4.501   6.078   0.627 -2.2850  0.6658 -1.9429
14120TIP3    H263852   4.519   5.938   0.572 -0.5864  0.3441 -0.6621
14121TIP3   OH263853   5.098   4.559  13.224 -0.0758 -0.1217 -0.0503
14121TIP3    H163854   5.022   4.503  13.205 -0.0166 -0.2792  0.1716
14121TIP3    H263855   5.082   4.591  13.312  1.5108 -2.4970  1.2099
14122TIP3   OH263856   5.535   0.197  14.982 -0.1699  0.1720  0.1076
14122TIP3    H163857   5.474   0.201  14.908  0.9448 -0.0163 -0.8489
14122TIP3    H263858   5.622   0.202  14.942  0.4604  0.0495  1.4104
14123TIP3   OH263859   0.206   5.807   3.912  0.0424 -0.0993  0.1963
14123TIP3    H163860   0.297   5.779   3.904  0.2067  0.3628  0.4084
14123TIP3    H263861   0.195   5.828   4.005 -0.3199 -0.2903  0.1980
14124TIP3   OH263862   6.049   4.026   5.745 -0.4158 -0.2622  0.3317
14124TIP3    H163863   6.115   4.089   5.715 -1.4127  0.9177  0.5519
14124TIP3    H263864   6.095   3.942   5.744  0.8821  0.4147 -0.2006
14125TIP3   OH263865   0.940   6.101   1.654  0.2756 -0.2247  0.0014
14125TIP3    H163866   0.855   6.065   1.629 -0.0563  1.0836 -0.9115
14125TIP3    H263867   1.004   6.038   1.621 -0.3356 -1.1459  0.5678
14126TIP3   OH263868   2.738   3.638   4.973  0.6090  0.3964  0.1084
14126TIP3    H163869   2.674   3.599   4.914  0.9484  0.2922 -0.1939
14126TIP3    H263870   2.787   3.699   4.917  0.9384  0.2879  0.2831
14127TIP3   OH263871   6.147   1.550   6.277 -0.3708 -0.2120  0.5169
14127TIP3    H163872   6.077   1.487   6.296 -1.0206 -0.3498 -1.9758
14127TIP3    H263873   6.207   1.541   6.350 -1.8776 -1.6764  1.6665
14128TIP3   OH263874   1.989   4.812  12.421 -0.0002  0.1972  0.1008
14128TIP3    H163875   2.066   4.868  12.431  1.3824 -1.5290 -0.4281
14128TIP3    H263876   1.940   4.851  12.349  1.6389  0.0174 -1.1681
14129TIP3   OH263877   5.821   4.920   4.783 -0.0021  0.2299  0.5130
14129TIP3    H163878   5.812   4.897   4.876 -0.1659 -0.0602  0.4281
14129TIP3    H263879   5.902   4.876   4.755  0.0608  0.3387  0.5258
14130TIP3   OH263880   3.336   6.619  12.782  0.3121 -0.0533 -0.4435
14130TIP3    H163881   3.343   6.523  12.776  0.3249 -0.1138  0.3372
14130TIP3    H263882   3.422   6.651  12.755  0.6241 -0.3185  0.2002
14131TIP3   OH263883   2.504   1.567  13.379 -0.1602  0.0263 -0.0302
14131TIP3    H163884   2.485   1.545  13.287 -1.1363  1.1573 -0.1141
14131TIP3    H263885   2.526   1.660  13.377 -1.9488  0.5098  1.1150
14132TIP3   OH263886   3.148   2.050   4.887  0.0492 -0.2324 -0.3555
14132TIP3    H163887   3.239   2.069   4.909  0.0272  0.9937 -1.2053
14132TIP3    H263888   3.146   1.955   4.876  0.8484 -0.4765  1.2229
14133TIP3   OH263889   1.289   2.596   5.897  0.8467  0.1931  0.1518
14133TIP3    H163890   1.242   2.662   5.846 -2.3950 -0.8851  1.4722
14133TIP3    H263891   1.319   2.532   5.831 -2.4115 -0.6777 -0.6565
14134TIP3   OH263892   3.702   4.561   5.417  0.0368  0.3358 -0.4418
14134TIP3    H163893   3.750   4.624   5.470  1.2692 -1.9699  1.3611
14134TIP3    H263894   3.615   4.557   5.458  0.4809 -0.2695  0.4885
14135TIP3   OH263895   2.489   6.569   2.883 -0.6310  0.0613  0.4290
14135TIP3    H163896   2.576   6.607   2.895 -0.6967  1.0527 -1.7276
14135TIP3    H263897   2.448   6.574   2.970  0.7622  1.3850  1.0622
14136TIP3   OH263898   2.488   1.787   0.800  0.1228 -0.0793  0.0970
14136TIP3    H163899   2.558   1.722   0.798  0.4506  0.2516  0.5422
14136TIP3    H263900   2.408   1.737   0.785  0.2953 -0.7017  1.1594
14137TIP3   OH263901   5.852   5.480   2.620  0.4503  0.3899  0.2830
14137TIP3    H163902   5.904   5.411   2.661  0.0782  0.4676  0.8934
14137TIP3    H263903   5.776   5.434   2.584  1.7414  0.0044 -2.1417
14138TIP3   OH263904   3.679   4.350  13.443 -0.2824  0.0353  0.6114
14138TIP3    H163905   3.696   4.370  13.351 -1.6366 -1.4259 -0.0005
14138TIP3    H263906   3.613   4.413  13.469  0.8600  1.1413  0.9274
14139TIP3   OH263907   2.137   1.924   5.746  0.8508 -0.3572 -0.8712
14139TIP3    H163908   2.225   1.897   5.771  0.7579 -0.7794 -0.9886
14139TIP3    H263909   2.095   1.949   5.828  0.8448 -0.8486 -0.7244
14140TIP3   OH263910   4.985   2.454  12.358 -0.0838  0.3620  0.2691
14140TIP3    H163911   5.008   2.474  12.268 -0.7160 -0.3194 -0.0472
14140TIP3    H263912   4.890   2.462  12.362 -0.0999  0.0176  0.7760
14141TIP3   OH263913   0.743   6.227  14.595  0.2632  0.0378  0.5407
14141TIP3    H163914   0.727   6.143  14.553  0.8769 -0.0111  0.3963
14141TIP3    H263915   0.691   6.290  14.544 -0.2133 -0.2497  0.6642
14142TIP3   OH263916   3.726   6.631   1.360 -0.3791  0.2337 -0.0874
14142TIP3    H163917   3.666   6.700   1.387  0.3873  0.5205  0.9384
14142TIP3    H263918   3.709   6.620   1.266 -1.2004  1.1161 -0.0588
14143TIP3   OH263919   2.701   0.414   4.433  0.0829 -0.3492 -0.0479
14143TIP3    H163920   2.712   0.334   4.484  1.5512 -0.8511 -1.1016
14143TIP3    H263921   2.734   0.393   4.346 -0.6834  1.0330 -0.7247
14144TIP3   OH263922   5.692   0.968  16.630  0.5738 -0.0772 -0.7130
14144TIP3    H163923   5.658   0.879  16.621  0.1933  0.0975 -1.0916
14144TIP3    H263924   5.784   0.957  16.652  0.2746 -0.5680  0.3588
14145TIP3   OH263925   1.796   5.452   5.478 -0.2611 -0.1602 -0.0749
14145TIP3    H163926   1.833   5.428   5.563 -1.0948 -1.2707  0.0005
14145TIP3    H263927   1.825   5.542   5.464  0.9967 -0.4032  0.7617
14146TIP3   OH263928   1.916   4.409   2.068 -0.4711 -0.2645  0.7395
14146TIP3    H163929   1.975   4.380   2.138  0.7729 -0.0267 -0.1759
14146TIP3    H263930   1.917   4.338   2.004  0.2649  0.5089 -0.1323
14147TIP3   OH263931   1.744   5.976   2.860  0.5540  0.0089  0.2681
14147TIP3    H163932   1.777   6.053   2.813 -0.8779  1.5502  1.6452
14147TIP3    H263933   1.767   5.902   2.804  0.2126  1.6066 -2.1327
14148TIP3   OH263934   2.324   4.302   4.350 -0.7630  0.0590 -0.1367
14148TIP3    H163935   2.231   4.315   4.366 -0.4604  1.3250  0.7111
14148TIP3    H263936   2.368   4.346   4.423  0.5046 -0.7392 -0.3761
14149TIP3   OH263937   4.544   3.400   1.329  0.1162  0.3697  0.2276
14149TIP3    H163938   4.491   3.431   1.256 -0.9365  0.6579  1.0934
14149TIP3    H263939   4.613   3.466   1.338 -0.0838  0.6298 -0.1410
14150TIP3   OH263940   4.809   5.532  13.117 -0.2952 -0.1331 -1.0164
14150TIP3    H163941   4.806   5.572  13.204  0.9570 -1.3537 -0.3634
14150TIP3    H263942   4.776   5.443  13.131  2.3705 -1.2349 -1.1822
14151TIP3   OH263943   3.742   5.838   4.202 -0.2088  0.4026  0.4812
14151TIP3    H163944   3.803   5.843   4.128 -1.1207 -2.4735 -0.6315
14151TIP3    H263945   3.685   5.914   4.191 -1.5885 -0.9226 -3.0981
14152TIP3   OH263946   2.526   5.742   0.312 -0.0868 -0.5754  0.6357
14152TIP3    H163947   2.450   5.757   0.368 -1.2155 -1.5329 -0.5838
14152TIP3    H263948   2.490   5.704   0.232  1.3585  1.5910 -1.1649
14153TIP3   OH263949   2.903   2.541   1.499 -0.0286 -0.2503  0.2152
14153TIP3    H163950   2.981   2.486   1.489 -1.9800 -4.0594  3.2965
14153TIP3    H263951   2.895   2.554   1.594 -1.6354  2.5911 -0.1878
14154TIP3   OH263952   5.040   2.508   3.913  0.2934 -0.2881  0.4150
14154TIP3    H163953   4.946   2.507   3.896  0.2528  0.2010  0.5848
14154TIP3    H263954   5.064   2.416   3.923  0.1496 -0.5593 -1.3342
14155TIP3   OH263955   2.176   3.170   0.714 -0.5493  0.0709  0.3355
14155TIP3    H163956   2.183   3.134   0.625 -2.4988  1.5917 -0.5153
14155TIP3    H263957   2.140   3.098   0.766 -0.6788 -0.4254 -0.4159
14156TIP3   OH263958   4.361   1.841   5.632 -0.4400  0.5063 -0.0650
14156TIP3    H163959   4.277   1.873   5.601 -0.5188  0.6668  0.3080
14156TIP3    H263960   4.354   1.746   5.626 -0.5736  0.5265 -0.2263
14157TIP3   OH263961   1.565   6.503   2.695  0.2273 -0.0633  0.0658
14157TIP3    H163962   1.512   6.566   2.744  0.6501 -0.6269  1.3058
14157TIP3    H263963   1.519   6.493   2.611 -1.6097 -0.4714  1.0625
14158TIP3   OH263964   2.314   0.246  14.615  0.7270  0.1129  0.5246
14158TIP3    H163965   2.230   0.267  14.575  0.4640  0.5290  1.2803
14158TIP3    H263966   2.336   0.159  14.580  0.0145  0.0232  0.2804
14159TIP3   OH263967   6.294   1.641   0.797 -0.1691  0.5995  0.0505
14159TIP3    H163968   6.217   1.585   0.783  0.5491  0.2037 -2.8820
14159TIP3    H263969   6.260   1.730   0.793 -0.6119  0.4144 -0.4052
14160TIP3   OH263970   2.534   4.558   2.212 -0.3227  0.5832 -0.2602
14160TIP3    H163971   2.486   4.609   2.276 -0.3708 -0.6867  0.7653
14160TIP3    H263972   2.625   4.588   2.220 -0.1938 -0.0760  0.9582
14161TIP3   OH263973   3.391   3.043   3.932 -0.1147  0.1322 -0.2904
14161TIP3    H163974   3.403   3.024   4.025  1.4964 -0.7108 -0.6260
14161TIP3    H263975   3.315   2.992   3.906 -0.4039  0.1499  0.4983
14162TIP3   OH263976   4.554   4.068  16.179  0.8225 -0.1855  0.8944
14162TIP3    H163977   4.618   4.046  16.247  0.3033  1.0308  1.8031
14162TIP3    H263978   4.501   4.137  16.217 -0.2932 -0.3452 -0.2996
14163TIP3   OH263979   0.805   0.364  13.164  0.0755  0.6672 -0.6674
14163TIP3    H163980   0.780   0.325  13.080 -1.0367  1.7980 -0.8969
14163TIP3    H263981   0.899   0.348  13.171 -0.2200 -1.6465 -0.9284
14164TIP3   OH263982   6.223   0.547  14.423  0.1615  0.3593  0.1638
14164TIP3    H163983   6.243   0.478  14.360 -0.6081  0.4869 -0.2310
14164TIP3    H263984   6.220   0.627  14.371  0.5174  0.6195  0.5350
14165TIP3   OH263985   1.648   2.394   0.635  0.8816 -0.4052 -0.1399
14165TIP3    H163986   1.605   2.347   0.564  0.7433 -0.8452  0.2373
14165TIP3    H263987   1.607   2.481   0.634 -0.6069 -1.0644  0.7386
14166TIP3   OH263988   2.652   0.297   2.407 -0.0576  0.5770 -0.1220
14166TIP3    H163989   2.695   0.382   2.410  2.5958 -0.6100 -1.0577
14166TIP3    H263990   2.724   0.234   2.395 -2.0968 -1.5811 -2.1703
14167TIP3   OH263991   6.715   3.199  14.734  0.1053  0.0442 -0.0494
14167TIP3    H163992   6.735   3.137  14.663  0.9511 -1.5845  1.5321
14167TIP3    H263993   6.793   3.255  14.739  0.0058  0.2238 -0.4495
14168TIP3   OH263994   0.849   0.949  16.648 -0.1685 -0.5735 -0.3160
14168TIP3    H163995   0.842   0.958  16.743 -2.5581 -0.7749 -0.4227
14168TIP3    H263996   0.765   0.979  16.615 -0.0345 -2.1466 -2.2519
14169TIP3   OH263997   5.966   6.368  10.122  0.2704  0.1876 -0.2015
14169TIP3    H163998   5.983   6.283  10.081 -1.7514 -0.6302  0.4877
14169TIP3    H263999   6.051   6.411  10.125  0.9080 -0.7013 -2.9580
14170TIP3   OH264000   0.593   3.330  15.431 -0.5719  0.4558  0.0169
14170TIP3    H164001   0.580   3.236  15.419  0.4810  0.2519  0.3845
14170TIP3    H264002   0.670   3.336  15.488 -0.2526  1.5518 -0.5173
14171TIP3   OH264003   0.094   0.785  17.038 -0.1963 -0.4074  0.1178
14171TIP3    H164004   0.078   0.714  17.100 -0.3900  0.6380  1.3214
14171TIP3    H264005   0.033   0.770  16.966  0.7023 -2.1911 -0.3151
14172TIP3   OH264006   3.125   0.793  16.289  0.2066  0.2419 -0.7293
14172TIP3    H164007   3.210   0.832  16.309  0.7636 -1.6979  1.1849
14172TIP3    H264008   3.139   0.699  16.299 -2.8369 -0.0708  3.0145
14173TIP3   OH264009   2.155   0.930   2.181 -0.7120  0.1663 -0.2596
14173TIP3    H164010   2.083   0.960   2.126  0.6051  0.1043 -2.0982
14173TIP3    H264011   2.228   0.917   2.121  0.7273 -0.2048  1.4712
14174TIP3   OH264012   5.441   1.808   2.704 -0.5867  0.5555  0.5876
14174TIP3    H164013   5.496   1.736   2.734 -2.3405 -1.2972 -0.3787
14174TIP3    H264014   5.485   1.887   2.736  3.1985 -0.6366 -1.0256
14175TIP3   OH264015   0.309   2.619   4.644 -0.1409 -0.2257  0.0061
14175TIP3    H164016   0.388   2.655   4.686 -0.1549 -0.8265  0.5598
14175TIP3    H264017   0.326   2.525   4.638 -0.2671 -0.1923 -1.0847
14176TIP3   OH264018   5.499   0.471   0.548 -0.1695 -0.1007 -0.0917
14176TIP3    H164019   5.431   0.535   0.569 -0.2899 -0.1292 -0.3860
14176TIP3    H264020   5.569   0.522   0.509  1.7186  0.5737  3.7062
14177TIP3   OH264021   1.510   3.284  15.315 -0.5480 -0.4977 -0.0151
14177TIP3    H164022   1.446   3.213  15.317  0.1534 -1.1414  0.8766
14177TIP3    H264023   1.492   3.334  15.395 -0.7314  0.0432 -0.3947
14178TIP3   OH264024   1.469   4.163  12.055 -1.2684  0.1704 -0.1093
14178TIP3    H164025   1.397   4.139  11.997 -0.1311  1.8165 -2.3541
14178TIP3    H264026   1.513   4.080  12.073 -1.9729 -0.4735 -1.2020
14179TIP3   OH264027   0.290   1.641  11.621  0.1380  0.0808 -0.3259
14179TIP3    H164028   0.269   1.731  11.598 -0.0708  0.2140  0.3716
14179TIP3    H264029   0.331   1.605  11.542 -0.6159  0.5061 -0.9176
14180TIP3   OH264030   3.383   6.703  14.651  0.1257 -0.2448 -0.2541
14180TIP3    H164031   3.291   6.684  14.638 -0.2173  1.0667  0.1139
14180TIP3    H264032   3.423   6.618  14.669 -1.0511 -0.7885 -0.1357
14181TIP3   OH264033   5.847   4.710   2.004  0.3514  0.3311  0.2253
14181TIP3    H164034   5.825   4.633   1.950  0.2695  0.9708 -0.6771
14181TIP3    H264035   5.832   4.681   2.094  0.6075 -0.8082 -0.0817
14182TIP3   OH264036   1.653   5.064   6.212 -0.1181 -0.0986  0.6713
14182TIP3    H164037   1.665   4.976   6.248  0.4085 -0.7923 -1.1177
14182TIP3    H264038   1.723   5.073   6.148  0.4876  2.0599  1.5663
14183TIP3   OH264039   5.942   2.793  17.213  0.0456  0.1789  0.4736
14183TIP3    H164040   5.984   2.847  17.280  2.6727 -0.4795 -0.5350
14183TIP3    H264041   5.940   2.705  17.251 -2.2190  0.4651  1.2199
14184TIP3   OH264042   3.648   6.112  11.464  0.2997 -0.0939 -0.2890
14184TIP3    H164043   3.676   6.112  11.555  1.7463  0.5752 -0.7130
14184TIP3    H264044   3.613   6.024  11.449  0.3091 -0.2939  0.8241
14185TIP3   OH264045   2.565   4.073   1.702  0.0549 -0.3486 -0.2914
14185TIP3    H164046   2.651   4.112   1.718  0.3332 -0.9522 -0.3083
14185TIP3    H264047   2.533   4.118   1.623 -0.4227  1.1352  0.7076
14186TIP3   OH264048   3.144   1.082  14.573 -0.8982 -0.4910 -0.3989
14186TIP3    H164049   3.180   1.032  14.499 -0.9814  0.3167 -0.9984
14186TIP3    H264050   3.156   1.025  14.649  1.4264 -0.3533 -0.6100
14187TIP3   OH264051   0.542   3.671  11.983 -0.7149  0.3413  0.5679
14187TIP3    H164052   0.556   3.577  11.998  2.1052  0.9053  2.2098
14187TIP3    H264053   0.458   3.690  12.026 -0.8230 -1.2294  1.1045
14188TIP3   OH264054   0.062   2.141   1.002 -0.1521  0.4144 -0.4221
14188TIP3    H164055   0.120   2.072   1.034 -1.3518 -1.0291 -1.2736
14188TIP3    H264056   0.098   2.165   0.917 -0.4350 -0.0335 -0.6699
14189TIP3   OH264057   4.419   5.701  14.411 -0.3347  0.1614 -0.2862
14189TIP3    H164058   4.498   5.741  14.375  0.8919 -1.1392  0.8164
14189TIP3    H264059   4.407   5.743  14.496  0.0102 -0.6200  0.1606
14190TIP3   OH264060   1.646   5.259  12.005 -0.0088 -0.2426  0.2098
14190TIP3    H164061   1.595   5.197  11.954  0.0133 -1.9872  2.1811
14190TIP3    H264062   1.735   5.252  11.970 -0.4821  0.5956 -1.2367
14191TIP3   OH264063   3.546   0.359   4.338  0.1486  0.1069 -0.7103
14191TIP3    H164064   3.527   0.368   4.245 -0.5751  0.4365 -0.5403
14191TIP3    H264065   3.490   0.425   4.380  0.9622  0.4209 -0.0987
14192TIP3   OH264066   1.394   3.886  13.429 -0.3809 -0.2367  0.1774
14192TIP3    H164067   1.316   3.854  13.385 -0.3580 -0.5718  0.3805
14192TIP3    H264068   1.417   3.966  13.381 -2.0552  1.0711  1.3984
14193TIP3   OH264069   1.759   6.512  13.127  0.2909  0.1016 -0.3529
14193TIP3    H164070   1.752   6.439  13.065 -0.2580  0.0726 -0.2614
14193TIP3    H264071   1.669   6.542  13.138  0.4859  0.6388 -0.2020
14194TIP3   OH264072   3.636   0.451  13.911  0.2953  0.0774 -0.2404
14194TIP3    H164073   3.652   0.503  13.990  0.8204 -2.5279  1.4855
14194TIP3    H264074   3.553   0.407  13.928 -0.9298  1.3844 -2.3313
14195TIP3   OH264075   1.609   2.416  13.417  0.1318 -0.1222 -0.0352
14195TIP3    H164076   1.643   2.328  13.434  1.7494  0.3812 -0.4731
14195TIP3    H264077   1.588   2.450  13.504 -0.4827 -0.9134  0.1441
14196TIP3   OH264078   3.977   4.375  13.830 -0.2730 -0.2431  0.3875
14196TIP3    H164079   3.940   4.460  13.852 -1.6034 -0.8226  0.4574
14196TIP3    H264080   3.977   4.373  13.734  0.1267 -0.0199  0.3794
14197TIP3   OH264081   0.582   6.588  14.876 -0.0367  0.4715  0.3003
14197TIP3    H164082   0.615   6.678  14.883 -0.2453  0.5074  0.9358
14197TIP3    H264083   0.500   6.596  14.827  0.0880  0.5899  0.1082
14198TIP3   OH264084   2.581   5.822  16.869  0.0339  0.0948 -0.2305
14198TIP3    H164085   2.593   5.819  16.964 -0.8952 -0.9265 -0.1246
14198TIP3    H264086   2.558   5.913  16.851 -0.1430  0.2232  0.5810
14199TIP3   OH264087   4.116   5.904   0.958  0.0545  0.0111  0.0582
14199TIP3    H164088   4.055   5.889   0.886 -0.4011  0.6155  0.3102
14199TIP3    H264089   4.081   5.852   1.030 -0.0379  0.1902  0.1408
14200TIP3   OH264090   1.857   6.106  11.591  0.8959 -0.2313  0.2200
14200TIP3    H164091   1.839   6.149  11.674  0.4376  1.2595 -0.6210
14200TIP3    H264092   1.879   6.016  11.615  1.8358  0.4332  2.0232
14201TIP3   OH264093   2.839   1.351   3.652  0.2908 -0.1529 -0.0219
14201TIP3    H164094   2.820   1.298   3.574 -1.1450 -0.2580  0.3708
14201TIP3    H264095   2.759   1.346   3.704  0.9574  0.5514  1.1044
14202TIP3   OH264096   1.147   5.123  12.192  0.1530  0.8301  0.0154
14202TIP3    H164097   1.175   5.116  12.101 -0.3545  0.7996 -0.1453
14202TIP3    H264098   1.203   5.189  12.231 -0.5334  1.8474 -0.6855
14203TIP3   OH264099   3.490   6.555   4.943 -0.4240  0.1025  0.1255
14203TIP3    H164100   3.412   6.506   4.971 -0.6309  0.7733  0.7661
14203TIP3    H264101   3.545   6.560   5.021 -0.1099  0.3230 -0.1054
14204TIP3   OH264102   1.202   4.397  14.515  0.3360  0.3978 -0.1157
14204TIP3    H164103   1.285   4.352  14.535  0.0757 -0.2481 -0.4600
14204TIP3    H264104   1.220   4.447  14.435  0.1874 -0.3335 -0.6141
14205TIP3   OH264105   4.550   5.332  15.180 -0.2925  0.8858  0.5725
14205TIP3    H164106   4.635   5.328  15.138 -1.2381  0.2278 -1.4060
14205TIP3    H264107   4.522   5.423  15.170  0.6878  1.4456  2.4273
14206TIP3   OH264108   6.562   2.197   6.703  0.1722 -0.6013  0.6372
14206TIP3    H164109   6.622   2.247   6.647 -0.9927  0.6050  0.4093
14206TIP3    H264110   6.570   2.107   6.671  4.2451 -1.1945  2.7266
14207TIP3   OH264111   2.756   5.713  12.150 -0.0908 -0.1917  0.4916
14207TIP3    H164112   2.767   5.626  12.111 -2.2231 -0.4568  0.3691
14207TIP3    H264113   2.817   5.768  12.102  0.1704 -1.3174 -0.5256
14208TIP3   OH264114   1.459   6.377   2.991  0.1994  0.2793  0.3151
14208TIP3    H164115   1.428   6.456   3.034  3.3837  0.7172  2.1751
14208TIP3    H264116   1.491   6.406   2.906  0.2799  0.7593  0.5111
14209TIP3   OH264117   6.123   2.814  11.819 -0.3001 -0.2473 -0.4747
14209TIP3    H164118   6.114   2.848  11.730 -1.4122 -0.7668 -0.5712
14209TIP3    H264119   6.187   2.743  11.811  0.0151  0.0625 -0.7521
14210TIP3   OH264120   1.782   0.056  15.422 -0.1089  0.3221 -0.0770
14210TIP3    H164121   1.707   0.053  15.482 -0.2231 -0.0476 -0.2384
14210TIP3    H264122   1.784   0.147  15.392 -1.2892  0.0614 -1.0540
14211TIP3   OH264123   1.883   5.371   2.235 -0.8223  0.0623 -0.1636
14211TIP3    H164124   1.882   5.417   2.319 -0.9523 -0.1650 -0.0388
14211TIP3    H264125   1.790   5.354   2.216 -0.8126  0.3662 -0.4946
14212TIP3   OH264126   4.196   3.948   1.532  0.6057  0.0448 -0.6015
14212TIP3    H164127   4.245   3.993   1.463  1.3237  1.9620  1.0350
14212TIP3    H264128   4.253   3.875   1.558  0.1132 -0.9885 -2.2869
14213TIP3   OH264129   5.502   6.752  11.513  0.3258 -0.4323 -0.3875
14213TIP3    H164130   5.569   6.798  11.463 -1.1689  0.5068 -1.6240
14213TIP3    H264131   5.546   6.673  11.545  2.2577  0.5935 -0.3421
14214TIP3   OH264132   4.746   0.146  15.038 -0.1712  0.7101  0.4295
14214TIP3    H164133   4.699   0.163  14.955 -1.2923 -1.1332  0.6312
14214TIP3    H264134   4.756   0.233  15.077 -1.9253  1.3710 -0.4453
14215TIP3   OH264135   6.130   0.621   4.821  0.3324  0.4464  0.1375
14215TIP3    H164136   6.176   0.668   4.752 -0.9190  1.8418  0.2318
14215TIP3    H264137   6.065   0.567   4.775  0.5395  0.1838  0.1466
14216TIP3   OH264138   5.200   0.922   0.276 -0.4275  0.2079  0.6016
14216TIP3    H164139   5.108   0.914   0.299 -0.6833 -1.8639 -0.8727
14216TIP3    H264140   5.240   0.842   0.308  1.3030  1.7935  2.7436
14217TIP3   OH264141   3.202   2.049   0.182 -0.5883  0.2833 -0.1565
14217TIP3    H164142   3.107   2.057   0.183 -0.5283  1.0655 -0.0336
14217TIP3    H264143   3.230   2.079   0.268 -0.2714 -0.6487  0.0759
14218TIP3   OH264144   5.592   0.989   1.215 -0.0040  0.1667 -0.0824
14218TIP3    H164145   5.685   1.013   1.215 -0.1808  0.8461  0.0172
14218TIP3    H264146   5.574   0.961   1.304  0.4185 -1.2130 -0.4029
14219TIP3   OH264147   3.709   3.474   2.124  0.5390  0.1573  0.7068
14219TIP3    H164148   3.770   3.513   2.062  0.1764 -0.0965  0.1859
14219TIP3    H264149   3.762   3.411   2.173  0.4384 -0.9342 -0.5547
14220TIP3   OH264150   4.819   3.614   5.891 -0.9903 -0.7498 -0.3975
14220TIP3    H164151   4.766   3.566   5.955  0.0131 -0.7553  0.4714
14220TIP3    H264152   4.890   3.652   5.943 -0.0750 -0.8553 -1.5274
14221TIP3   OH264153   4.934   5.005  15.516 -0.0045 -0.2603 -0.1282
14221TIP3    H164154   4.912   4.981  15.426  0.6220  5.0575 -2.0822
14221TIP3    H264155   4.852   5.037  15.553  0.5168  1.6058 -0.4805
14222TIP3   OH264156   5.307   1.671  13.408 -0.4595 -0.3572 -0.2531
14222TIP3    H164157   5.232   1.700  13.357  0.3981  0.8235 -0.8929
14222TIP3    H264158   5.269   1.630  13.486 -1.7831 -1.6659 -1.5301
14223TIP3   OH264159   6.001   4.073   1.640 -0.4391  0.3998 -0.4197
14223TIP3    H164160   5.996   4.090   1.546 -2.0687  0.7901 -0.3022
14223TIP3    H264161   6.082   4.114   1.668 -0.3549  1.0234 -1.5167
14224TIP3   OH264162   3.830   4.413   0.350  0.5767  0.6562  0.2185
14224TIP3    H164163   3.819   4.479   0.418  0.4346 -1.0037  1.8715
14224TIP3    H264164   3.888   4.348   0.389 -0.9436 -1.2518 -0.5370
14225TIP3   OH264165   4.614   6.457  13.569  0.3260 -0.1341  0.8605
14225TIP3    H164166   4.698   6.455  13.522  0.9343 -0.4907  1.9188
14225TIP3    H264167   4.632   6.411  13.651  0.0648  2.6519  2.6350
14226TIP3   OH264168   4.446   4.914  12.600  0.6140 -0.3359  0.3059
14226TIP3    H164169   4.388   4.958  12.538  1.0848  0.7508  0.6205
14226TIP3    H264170   4.485   4.843  12.549 -2.0075 -1.9970  0.4600
14227TIP3   OH264171   5.852   5.892   0.167 -0.0096 -0.1203 -0.4335
14227TIP3    H164172   5.934   5.847   0.147  0.2920  0.6143 -0.8844
14227TIP3    H264173   5.877   5.983   0.181 -0.8868  0.3699 -1.8231
14228TIP3   OH264174   5.514   1.732   4.241 -0.7899  0.1301  0.2679
14228TIP3    H164175   5.601   1.754   4.208 -0.1493  0.8747  2.2929
14228TIP3    H264176   5.502   1.640   4.218 -0.2106  0.4841 -1.5527
14229TIP3   OH264177   1.165   2.624  12.613 -0.4581 -0.1988 -0.7070
14229TIP3    H164178   1.260   2.616  12.604 -0.0460  0.6117  2.0920
14229TIP3    H264179   1.145   2.585  12.698 -2.2395  2.1552  0.0572
14230TIP3   OH264180   6.511   1.424  13.117  0.5417  0.1734  0.0284
14230TIP3    H164181   6.421   1.411  13.088  0.4742 -0.8230  0.6285
14230TIP3    H264182   6.533   1.343  13.164  1.9529  0.1390 -0.6307
14231TIP3   OH264183   6.553   5.979   4.073 -0.3986 -0.5854 -0.4912
14231TIP3    H164184   6.461   5.980   4.050 -0.6716 -1.8861  0.3842
14231TIP3    H264185   6.596   6.030   4.005 -2.0393  2.4111  0.5493
14232TIP3   OH264186   2.931   0.561   4.573 -0.4272 -0.4715  0.4149
14232TIP3    H164187   2.906   0.652   4.559 -1.1033 -0.5250  1.1934
14232TIP3    H264188   2.865   0.510   4.527  0.0314 -0.5785 -0.1425
14233TIP3   OH264189   6.179   6.278   0.283 -0.0742  0.4818 -0.4625
14233TIP3    H164190   6.171   6.231   0.366  0.5226  0.4101 -0.4427
14233TIP3    H264191   6.164   6.211   0.216  0.6308  0.2831 -0.4307
14234TIP3   OH264192   4.707   2.348  15.820  0.0315 -0.4928  0.0399
14234TIP3    H164193   4.774   2.337  15.887  2.1084 -0.6311 -1.9540
14234TIP3    H264194   4.679   2.439  15.828  1.6937  0.0673 -0.1188
14235TIP3   OH264195   5.903   4.250  12.486  0.2178  0.4180  0.5074
14235TIP3    H164196   5.937   4.181  12.542 -1.8235 -0.8189  0.3560
14235TIP3    H264197   5.846   4.302  12.543 -1.1666 -0.3184 -0.1252
14236TIP3   OH264198   1.721   2.713  16.071 -0.3461 -0.2033 -0.2101
14236TIP3    H164199   1.672   2.658  16.010 -0.8725  0.9953 -0.9101
14236TIP3    H264200   1.742   2.791  16.020  1.6964 -0.3789  0.2924
14237TIP3   OH264201   1.682   1.694  15.709 -0.9552  0.6442 -0.1292
14237TIP3    H164202   1.727   1.660  15.786  0.4377  0.4574 -0.9988
14237TIP3    H264203   1.648   1.616  15.665  0.5018  0.5077 -1.0590
14238TIP3   OH264204   4.925   4.915  14.913 -0.2991  0.1203 -0.0142
14238TIP3    H164205   5.021   4.912  14.915 -0.3234 -0.3888  0.4830
14238TIP3    H264206   4.903   4.905  14.821  0.1401  0.6764 -0.1843
14239TIP3   OH264207   6.339   2.470  13.707 -0.4387 -0.0408  0.4444
14239TIP3    H164208   6.312   2.384  13.739 -0.3703  0.6673  2.5134
14239TIP3    H264209   6.335   2.462  13.612 -0.0524 -2.4483  0.5739
14240TIP3   OH264210   2.188   6.630  15.058 -0.5467  0.5662  0.3766
14240TIP3    H164211   2.135   6.640  15.137 -1.5633 -1.5362  0.0282
14240TIP3    H264212   2.269   6.588  15.089 -0.5629  0.5807  0.4390
14241TIP3   OH264213   6.553   5.269  12.731  0.2871 -0.5882  0.0576
14241TIP3    H164214   6.519   5.258  12.642 -1.0787 -0.8096  0.5816
14241TIP3    H264215   6.644   5.298  12.719 -0.7015  2.2061 -1.4306
14242TIP3   OH264216   0.504   5.315   5.775 -0.1232  0.0897 -0.0905
14242TIP3    H164217   0.524   5.248   5.709 -0.3999  1.2098 -1.3376
14242TIP3    H264218   0.422   5.285   5.815 -0.0099 -0.5370 -0.3169
14243TIP3   OH264219   0.038   2.014  12.119 -0.8449  0.3127 -0.0073
14243TIP3    H164220  -0.046   2.041  12.155 -0.2599  0.4636  1.2888
14243TIP3    H264221   0.020   1.930  12.075 -1.4495 -0.2449  1.2640
14244TIP3   OH264222   2.789   5.130  16.479 -0.6184 -0.1744 -0.2061
14244TIP3    H164223   2.830   5.044  16.483  0.8287  0.4495 -1.0043
14244TIP3    H264224   2.695   5.112  16.487 -0.2674 -1.7060  0.8053
14245TIP3   OH264225   1.599   0.373  13.834 -0.1317 -0.0249 -0.5783
14245TIP3    H164226   1.508   0.390  13.810  0.2003 -0.1941 -2.0627
14245TIP3    H264227   1.648   0.383  13.752  1.4251  1.6030  0.4703
14246TIP3   OH264228   0.562   2.865  16.071  0.4475 -0.0251  0.0778
14246TIP3    H164229   0.497   2.807  16.033 -0.1653  0.2321  0.7078
14246TIP3    H264230   0.514   2.915  16.137  0.2137  3.3492 -2.3764
14247TIP3   OH264231   2.940   3.901  15.248  0.2984  0.0673 -0.1917
14247TIP3    H164232   3.030   3.874  15.267 -0.1102 -1.1542  0.1367
14247TIP3    H264233   2.940   3.921  15.155  0.9724  0.3244 -0.1392
14248TIP3   OH264234   2.729   0.557  13.473 -0.5202 -0.1510  0.1754
14248TIP3    H164235   2.790   0.559  13.399  0.0481 -1.0878  0.6110
14248TIP3    H264236   2.693   0.646  13.476 -0.9833 -0.2350 -1.5734
14249TIP3   OH264237   5.345   0.455  11.750 -0.0469 -0.4936 -0.2382
14249TIP3    H164238   5.436   0.474  11.774  0.0943  0.2239 -1.2807
14249TIP3    H264239   5.307   0.541  11.733 -0.8485 -0.8146 -0.1012
14250TIP3   OH264240   2.786   5.592  11.736  0.4261  0.6447 -0.3383
14250TIP3    H164241   2.857   5.543  11.694  0.8982  0.0127  1.1142
14250TIP3    H264242   2.802   5.580  11.830 -0.8508  1.6023  0.0219
14251TIP3   OH264243   3.179   3.986   2.701  0.2260 -0.0524  0.1462
14251TIP3    H164244   3.130   4.032   2.633  1.3822 -0.9417 -1.3567
14251TIP3    H264245   3.141   3.899   2.703  1.1693 -0.4912 -0.4446
14252TIP3   OH264246   5.852   4.225  16.398  0.3604  0.0002  0.1334
14252TIP3    H164247   5.843   4.169  16.320  0.6930 -2.1573  1.5428
14252TIP3    H264248   5.765   4.262  16.410  0.2410  0.1779 -1.1203
14253TIP3   OH264249   3.069   2.310  17.507 -0.2917  0.3061 -0.5908
14253TIP3    H164250   3.007   2.299  17.579 -1.5593  1.5256 -1.4431
14253TIP3    H264251   3.070   2.226  17.462 -1.7369  0.3973 -0.8451
14254TIP3   OH264252   0.234   0.771   4.748  0.2132 -0.2010  0.6587
14254TIP3    H164253   0.249   0.865   4.758  0.1702 -0.1467  0.2143
14254TIP3    H264254   0.253   0.753   4.656 -0.3212 -0.5268  0.6110
14255TIP3   OH264255   3.037   5.816  14.183 -0.0213  0.0362  0.0287
14255TIP3    H164256   3.076   5.859  14.108 -0.6828 -0.1504 -0.4273
14255TIP3    H264257   3.022   5.726  14.154 -0.0103 -0.1185  0.4857
14256TIP3   OH264258   2.073   2.566  16.369 -0.0899 -0.3026  0.3558
14256TIP3    H164259   2.060   2.603  16.456  0.7886  0.5949  0.1198
14256TIP3    H264260   2.124   2.631  16.322  0.1612 -1.1389 -0.5771
14257TIP3   OH264261   3.579   3.938   5.932  0.0677 -0.4895 -0.2640
14257TIP3    H164262   3.630   3.901   6.004  3.0299  1.7038 -1.0303
14257TIP3    H264263   3.636   3.930   5.856 -1.7934 -0.1288 -1.7713
14258TIP3   OH264264   3.290   6.286   4.676  0.1227  0.7194 -0.1670
14258TIP3    H164265   3.322   6.213   4.625  1.3078  1.4670 -0.5351
14258TIP3    H264266   3.204   6.307   4.638 -2.3416 -3.0999  2.6165
14259TIP3   OH264267   5.856   0.043  11.952 -0.6102 -0.8546 -0.2444
14259TIP3    H164268   5.908  -0.037  11.953 -0.1762 -0.6046 -1.5372
14259TIP3    H264269   5.912   0.108  11.911 -1.5462 -0.2913 -0.6600
14260TIP3   OH264270   1.160   0.242  12.850 -0.5571 -0.0770  0.4675
14260TIP3    H164271   1.105   0.319  12.866  0.8340  0.7247  1.6023
14260TIP3    H264272   1.148   0.188  12.928  0.7910  0.4531  1.0654
14261TIP3   OH264273   0.401   5.998   3.740  0.1949 -0.0508 -0.1665
14261TIP3    H164274   0.307   5.985   3.748  0.4073 -2.3818 -0.7562
14261TIP3    H264275   0.423   5.966   3.652  1.5314  0.5166 -0.0668
14262TIP3   OH264276   3.611   6.436  16.661 -0.1780 -0.5859  0.1277
14262TIP3    H164277   3.663   6.514  16.684  0.4956 -0.8994 -0.2923
14262TIP3    H264278   3.522   6.459  16.686  0.5074 -1.0415  3.4599
14263TIP3   OH264279   2.232   0.300   6.260  0.4159 -0.1587  0.1450
14263TIP3    H164280   2.309   0.265   6.304  0.9229 -0.6062 -1.0362
14263TIP3    H264281   2.223   0.389   6.294  1.8940  0.1590 -0.2022
14264TIP3   OH264282   6.772   0.245  13.719  0.2796 -0.6547  0.6112
14264TIP3    H164283   6.701   0.206  13.771  1.8384 -1.4391  2.2494
14264TIP3    H264284   6.793   0.177  13.654 -0.6468 -0.2824 -0.1109
14265TIP3   OH264285   4.176   2.272  14.453 -0.1728  0.0667  0.1575
14265TIP3    H164286   4.103   2.274  14.391 -0.0531  1.9358  0.0281
14265TIP3    H264287   4.151   2.206  14.518 -0.5674 -1.5255 -1.5212
14266TIP3   OH264288   0.630   6.318  13.430  0.0568  0.6731 -0.1802
14266TIP3    H164289   0.603   6.391  13.485 -2.6202 -0.5017  0.2024
14266TIP3    H264290   0.706   6.281  13.475  0.5948  2.3356  0.3525
14267TIP3   OH264291   2.909   0.292  15.090  0.0998  0.6099 -0.1181
14267TIP3    H164292   2.991   0.335  15.066  0.3641  0.0271 -0.2673
14267TIP3    H264293   2.845   0.363  15.093  0.3628  0.9001 -1.1251
14268TIP3   OH264294   2.544   0.336  14.031 -0.1288 -0.1962 -0.8695
14268TIP3    H164295   2.577   0.306  14.115  0.6020  1.0538 -0.6767
14268TIP3    H264296   2.460   0.377  14.052 -0.5277 -0.9577 -0.9459
14269TIP3   OH264297   4.395   2.328   0.490 -0.2761  0.0920  0.3456
14269TIP3    H164298   4.475   2.294   0.530 -0.1052  0.3418  0.2181
14269TIP3    H264299   4.325   2.289   0.540 -0.0609  1.3151  1.6636
14270TIP3   OH264300   4.538   5.615  10.665 -0.0656 -0.6721 -0.0574
14270TIP3    H164301   4.504   5.704  10.669 -0.6991 -0.5979 -3.5923
14270TIP3    H264302   4.624   5.624  10.624  0.7070 -1.5898  1.2745
14271TIP3   OH264303   2.600   5.932  11.309  0.2312 -0.1041 -0.6938
14271TIP3    H164304   2.518   5.899  11.347  0.3872  0.6158  0.2975
14271TIP3    H264305   2.628   6.001  11.368  2.4985 -1.5112 -0.0155
14272TIP3   OH264306   0.697   0.521   0.792  0.2417 -0.2191  0.8812
14272TIP3    H164307   0.721   0.471   0.870  2.3140  0.6182  0.8423
14272TIP3    H264308   0.751   0.600   0.797  1.2741 -0.6339 -1.9278
14273TIP3   OH264309   6.526   3.437  17.232 -0.0328  0.1458  0.6292
14273TIP3    H164310   6.550   3.527  17.214  0.6729 -0.0234  0.7095
14273TIP3    H264311   6.448   3.443  17.288  0.7642  0.7142  1.6898
14274TIP3   OH264312   5.725   1.080  14.139  0.5906  0.4792 -0.5453
14274TIP3    H164313   5.818   1.085  14.115  1.1266 -0.1272  1.2173
14274TIP3    H264314   5.687   1.017  14.078  1.8882 -1.0598  0.1559
14275TIP3   OH264315   3.629   2.777   3.634  0.4224  0.0873 -0.1183
14275TIP3    H164316   3.678   2.728   3.700 -0.2344 -0.0641  0.2605
14275TIP3    H264317   3.639   2.869   3.659  1.4338  0.1472 -0.6778
14276TIP3   OH264318   1.707   3.536  16.098 -0.0976  0.1490  0.0822
14276TIP3    H164319   1.643   3.561  16.031  0.7669  1.1895 -0.3978
14276TIP3    H264320   1.751   3.459  16.062 -1.0608 -0.5906  0.4294
14277TIP3   OH264321   2.223   0.972  12.342 -0.8002  0.0056 -0.3729
14277TIP3    H164322   2.190   1.023  12.267  0.8896 -1.6990 -2.4208
14277TIP3    H264323   2.268   1.037  12.396 -1.5918  1.2236 -1.1111
14278TIP3   OH264324   4.795   4.894   6.095  0.4935 -0.2730  0.3534
14278TIP3    H164325   4.841   4.838   6.033  0.3443  0.1805 -0.1775
14278TIP3    H264326   4.812   4.855   6.180  0.5954 -0.9798  0.0176
14279TIP3   OH264327   5.110   3.205  16.223  0.4439  0.2594 -0.1784
14279TIP3    H164328   5.127   3.118  16.187  0.5817  0.1405  0.1750
14279TIP3    H264329   5.053   3.189  16.297  1.1355  0.3874  0.3936
14280TIP3   OH264330   4.892   0.431  11.858 -0.0995 -0.9147 -0.3207
14280TIP3    H164331   4.844   0.433  11.775 -1.2983 -0.6481  0.3548
14280TIP3    H264332   4.920   0.522  11.872  2.3309 -1.3954 -1.6549
14281TIP3   OH264333   2.998   0.030  13.789  0.1840  0.1121 -0.3755
14281TIP3    H164334   2.992   0.082  13.869  1.3409 -0.3824  0.0519
14281TIP3    H264335   2.911   0.038  13.749 -0.1641  1.0146  0.5172
14282TIP3   OH264336   4.874   2.801   0.273  0.1894 -0.1946  0.0593
14282TIP3    H164337   4.914   2.879   0.310 -1.8694  0.3003  1.4116
14282TIP3    H264338   4.824   2.833   0.197  1.9952 -0.7600 -1.4393
14283TIP3   OH264339   3.905   2.175  15.314 -0.0101  0.0484  0.3128
14283TIP3    H164340   3.995   2.154  15.289  0.2585  1.6704 -0.2039
14283TIP3    H264341   3.914   2.232  15.390 -0.5160  1.2025 -0.4598
14284TIP3   OH264342   5.755   0.079   6.472  0.4580  0.8182 -0.2155
14284TIP3    H164343   5.697   0.003   6.470 -0.4571  1.5108 -0.6713
14284TIP3    H264344   5.818   0.060   6.542  0.5551 -0.5723 -0.6680
14285TIP3   OH264345   5.244   6.618   1.687 -0.5845  0.5567  0.4026
14285TIP3    H164346   5.234   6.557   1.761  0.4131  0.1675  0.2368
14285TIP3    H264347   5.306   6.684   1.719 -1.1408  1.1154  0.3458
14286TIP3   OH264348   3.359   0.979  15.007  0.6508  0.7252  0.1144
14286TIP3    H164349   3.384   1.042  15.075  0.1772 -1.4809  2.4579
14286TIP3    H264350   3.440   0.932  14.987  0.1370 -1.0232  1.8566
14287TIP3   OH264351   2.117   4.418  14.227 -0.3081 -0.2328  0.3193
14287TIP3    H164352   2.122   4.466  14.144 -0.2027  0.6479  0.8136
14287TIP3    H264353   2.050   4.352  14.213 -0.9006  0.4554 -0.2104
14288TIP3   OH264354   4.074   2.862  15.180  0.2339  0.1732  1.0181
14288TIP3    H164355   4.017   2.933  15.209  0.0040  0.0891  0.7770
14288TIP3    H264356   4.014   2.792  15.153  0.4600 -0.2769  1.6527
14289TIP3   OH264357   5.600   1.897   6.822  0.1237  0.6139 -0.2787
14289TIP3    H164358   5.589   1.838   6.896 -1.9839  2.1382  0.7363
14289TIP3    H264359   5.685   1.939   6.836  0.9342 -0.9746 -0.1925
14290TIP3   OH264360   3.307   1.442  10.815  0.1729 -0.6795  0.6055
14290TIP3    H164361   3.259   1.427  10.897 -2.7219  0.6575 -0.7219
14290TIP3    H264362   3.304   1.537  10.802  1.4859 -0.7644 -0.5746
14291TIP3   OH264363   2.453   4.105  14.345  0.2367  0.3878 -0.2701
14291TIP3    H164364   2.523   4.045  14.318 -0.1089  0.7093 -1.9761
14291TIP3    H264365   2.494   4.161  14.411  1.1864 -0.3347 -0.2256
14292TIP3   OH264366   1.088   1.634  11.759  0.6662 -0.1239  0.4295
14292TIP3    H164367   1.074   1.701  11.826  1.1060 -0.0694  0.4682
14292TIP3    H264368   1.163   1.665  11.709 -1.2218  1.1884 -1.7799
14293TIP3   OH264369   0.266   3.929  12.268  0.4151  0.9112  0.3607
14293TIP3    H164370   0.311   3.861  12.317  0.2569  0.9599  0.5720
14293TIP3    H264371   0.233   3.990  12.334 -3.4240 -1.1342  0.6203
14294TIP3   OH264372   2.631   0.466  14.692  0.0897  0.3423 -0.7845
14294TIP3    H164373   2.571   0.526  14.646 -0.2665  0.8193  0.2874
14294TIP3    H264374   2.639   0.503  14.780  1.9051  0.2349 -0.8765
14295TIP3   OH264375   1.234   1.564  12.177  0.0767  0.0059 -0.0056
14295TIP3    H164376   1.139   1.557  12.178 -0.2368  2.6224 -1.6502
14295TIP3    H264377   1.252   1.657  12.192  2.1599  0.2162 -2.9567
14296TIP3   OH264378   0.814   4.474  14.909 -0.2925  0.1141  0.2610
14296TIP3    H164379   0.731   4.432  14.885  0.3381 -1.1721  0.2634
14296TIP3    H264380   0.838   4.524  14.831  0.3321 -1.7859 -0.8240
14297TIP3   OH264381   4.497   0.483  14.781 -0.3367 -0.6525 -0.1060
14297TIP3    H164382   4.452   0.431  14.848  1.1516 -0.7072  0.9054
14297TIP3    H264383   4.465   0.448  14.698 -1.9907 -0.8101  0.5469
14298TIP3   OH264384   1.998   4.422  12.216  0.4823 -0.5594  0.1703
14298TIP3    H164385   2.076   4.468  12.245  0.6090 -0.6645 -0.0027
14298TIP3    H264386   1.966   4.377  12.294  0.2152  0.0205  0.4001
14299TIP3   OH264387   1.563   3.193   6.440  0.4265  0.0561  0.1865
14299TIP3    H164388   1.489   3.153   6.485 -0.5671 -1.4354 -2.4849
14299TIP3    H264389   1.525   3.265   6.390  0.6901 -0.7648 -1.2614
14300TIP3   OH264390   5.781   5.679  14.644  0.1388  0.2143 -0.2547
14300TIP3    H164391   5.765   5.746  14.577  0.8250 -0.6300 -1.2825
14300TIP3    H264392   5.857   5.630  14.612  0.5122 -0.1893  1.1641
14301TIP3   OH264393   4.626   5.446   5.945  0.4532 -0.0335 -0.6958
14301TIP3    H164394   4.653   5.511   5.880  0.1586  1.3658  0.5518
14301TIP3    H264395   4.599   5.497   6.021  1.7589 -1.6360  0.9410
14302TIP3   OH264396   4.088   0.697   4.756  0.8966  0.0017 -0.4095
14302TIP3    H164397   4.050   0.614   4.786 -1.3425  0.7734 -0.9387
14302TIP3    H264398   4.143   0.726   4.829 -1.3836 -0.0389  1.4416
14303TIP3   OH264399   0.307   4.564  11.492  0.3506  0.6050  0.2605
14303TIP3    H164400   0.251   4.491  11.465 -0.1378  0.2348  2.1163
14303TIP3    H264401   0.377   4.567  11.427  0.0925 -1.1996 -0.1365
14304TIP3   OH264402   0.996   0.886   4.175 -0.0554 -0.5253 -0.6961
14304TIP3    H164403   0.991   0.810   4.233  0.8344  0.7512  1.1388
14304TIP3    H264404   0.915   0.933   4.189  0.0632 -0.3285 -0.6696
14305TIP3   OH264405   0.439   1.001   2.905  1.0122 -0.0194 -1.2155
14305TIP3    H164406   0.400   1.089   2.904 -0.4378 -0.5355  1.0485
14305TIP3    H264407   0.523   1.013   2.948  0.6622  0.2435 -0.5816
14306TIP3   OH264408   1.938   5.323   4.483  0.2734  0.2895  0.3198
14306TIP3    H164409   1.941   5.243   4.536  0.0575  0.4697  0.6118
14306TIP3    H264410   1.845   5.338   4.467  0.1331  1.6077  2.0341
14307TIP3   OH264411   2.582   4.378   4.709 -0.0918  0.4002 -1.0081
14307TIP3    H164412   2.545   4.433   4.640 -1.3266  0.4710 -0.3006
14307TIP3    H264413   2.523   4.303   4.715  0.1801  0.2390 -0.2348
14308TIP3   OH264414   1.734   3.207  15.725  0.2555 -0.5760  0.6233
14308TIP3    H164415   1.692   3.271  15.783  1.6326  1.7266 -0.7692
14308TIP3    H264416   1.824   3.203  15.755  0.9064  0.3939 -1.0732
14309TIP3   OH264417   0.463   6.700  14.335 -0.0385 -0.3848  0.1394
14309TIP3    H164418   0.513   6.772  14.373 -0.9913  0.9656 -1.0582
14309TIP3    H264419   0.469   6.714  14.241  0.0153 -2.0680 -0.1289
14310TIP3   OH264420   4.689   5.896  15.308 -0.3708 -0.4185  0.1775
14310TIP3    H164421   4.691   5.983  15.347 -1.3083 -1.5618  3.0801
14310TIP3    H264422   4.763   5.895  15.246  1.7851  1.3698  2.5163
14311TIP3   OH264423   4.243   4.995  15.360  0.3179 -0.6012  0.1062
14311TIP3    H164424   4.276   4.912  15.324  2.1815  0.3196 -0.4522
14311TIP3    H264425   4.321   5.039  15.392 -0.6151  1.0356  0.2017
14312TIP3   OH264426   4.725   3.554  11.770 -0.0226  0.2597  0.1106
14312TIP3    H164427   4.632   3.543  11.749  0.3297 -2.8832 -0.3189
14312TIP3    H264428   4.730   3.636  11.819 -2.8342  1.0719 -0.8050
14313TIP3   OH264429   5.910   1.339  15.998 -0.3955  0.0578 -0.0845
14313TIP3    H164430   5.835   1.356  15.940  0.5798 -0.0960 -1.4139
14313TIP3    H264431   5.958   1.422  15.999  0.3928 -0.3906 -0.6806
14314TIP3   OH264432   5.736   1.669  11.972 -0.2376  0.5269  0.3557
14314TIP3    H164433   5.677   1.672  11.896 -0.8725  0.5560  0.8479
14314TIP3    H264434   5.778   1.583  11.966 -0.7131  0.3000  0.2990
14315TIP3   OH264435   2.841   3.832   5.827 -0.2342  0.3708  0.3853
14315TIP3    H164436   2.912   3.839   5.763 -0.5167 -0.1558  0.0041
14315TIP3    H264437   2.880   3.861   5.909  0.1528  0.9778 -0.0099
14316TIP3   OH264438   1.120   5.487  17.167  0.1516 -0.3759  0.0616
14316TIP3    H164439   1.042   5.441  17.199  0.7334 -0.2404  1.7609
14316TIP3    H264440   1.165   5.422  17.113  0.4563 -1.5397  1.6376
14317TIP3   OH264441   2.489   3.690  14.498  0.2691 -0.4716  0.4519
14317TIP3    H164442   2.535   3.771  14.520  2.5906 -1.0265 -1.8427
14317TIP3    H264443   2.557   3.623  14.497 -1.0550 -1.8758 -0.5549
14318TIP3   OH264444   5.500   4.711  15.791 -0.1067  0.0024  0.1479
14318TIP3    H164445   5.405   4.725  15.800 -0.2996 -0.8548 -0.4733
14318TIP3    H264446   5.514   4.621  15.820  0.3147 -0.3285 -1.0267
14319TIP3   OH264447   2.714   0.217  13.873 -0.2055 -0.0728  0.2693
14319TIP3    H164448   2.696   0.223  13.779 -1.9293 -1.2865  0.4629
14319TIP3    H264449   2.644   0.268  13.913 -0.7219 -1.2603  0.9367
14320TIP3   OH264450   4.466   6.464  13.315  0.1571 -0.5114 -0.7625
14320TIP3    H164451   4.506   6.442  13.399 -1.6290  1.1565  0.5919
14320TIP3    H264452   4.374   6.439  13.325 -0.4079  1.0901 -1.6686
14321TIP3   OH264453   5.019   1.631   2.446 -0.0849  0.0090 -0.2045
14321TIP3    H164454   4.926   1.620   2.426  0.0620 -0.8276 -0.5000
14321TIP3    H264455   5.049   1.699   2.386 -0.6536  0.7852  0.3791
14322TIP3   OH264456   3.607   3.801  14.331  0.2574  0.0803  0.5313
14322TIP3    H164457   3.569   3.839  14.410 -0.1585  1.3172 -0.2473
14322TIP3    H264458   3.670   3.866  14.300 -0.1512 -0.0339 -0.5912
14323TIP3   OH264459   3.623   0.798   4.289  0.4785 -1.0342 -0.0068
14323TIP3    H164460   3.560   0.869   4.273 -0.1978 -1.8946 -1.3083
14323TIP3    H264461   3.697   0.841   4.332 -0.4940  0.2137  0.4962
14324TIP3   OH264462   2.579   2.606   3.490  0.5835 -0.0794  0.0852
14324TIP3    H164463   2.632   2.586   3.413  0.9117  0.4666  0.1615
14324TIP3    H264464   2.575   2.702   3.492  0.4707 -0.0933  0.6736
14325TIP3   OH264465   3.329   5.676  13.173  0.0402 -0.3605 -0.5012
14325TIP3    H164466   3.358   5.763  13.149  0.0055  0.6641  2.6751
14325TIP3    H264467   3.349   5.668  13.266 -2.9710 -2.4447  0.1536
14326TIP3   OH264468   5.495   1.961  15.283  0.2206  0.4286 -0.0651
14326TIP3    H164469   5.457   2.001  15.361  0.3275  3.2606 -1.3597
14326TIP3    H264470   5.549   1.890  15.317 -0.4870  0.9359  2.3438
14327TIP3   OH264471   4.665   3.119  14.430  0.1015 -0.0179  0.0418
14327TIP3    H164472   4.627   3.033  14.409 -0.7851  0.2310  0.5822
14327TIP3    H264473   4.656   3.170  14.350  0.2268 -0.2943 -0.1482
14328TIP3   OH264474   5.118   2.019  14.221  0.2163  0.2588  0.0533
14328TIP3    H164475   5.199   2.069  14.225 -0.6196  1.6327  0.5030
14328TIP3    H264476   5.129   1.960  14.147  1.8822 -0.0640  0.5311
14329TIP3   OH264477   2.229   0.735  13.797 -0.4221  0.1357  0.4576
14329TIP3    H164478   2.230   0.804  13.864 -0.7870 -0.2684  0.8884
14329TIP3    H264479   2.309   0.685  13.813  0.0570  0.6929 -0.1180
14330TIP3   OH264480   5.745   4.921  15.866 -0.0895 -0.4122 -0.4362
14330TIP3    H164481   5.669   4.899  15.813 -0.8162 -0.5634  0.6348
14330TIP3    H264482   5.728   5.010  15.897  0.7763  0.0381 -1.2044
14331TIP3   OH264483   4.529   5.566   1.482 -0.7677 -0.2577 -0.4268
14331TIP3    H164484   4.548   5.482   1.440 -0.0178 -0.2824 -0.0590
14331TIP3    H264485   4.522   5.628   1.410  0.9054 -0.2201 -0.5896
14332TIP3   OH264486   4.984   3.154   6.901 -0.4769 -0.2889 -0.0460
14332TIP3    H164487   5.018   3.079   6.852  0.4132 -0.8541  1.3877
14332TIP3    H264488   4.943   3.116   6.979  1.4869  0.7599  1.5717
14333TIP3   OH264489   5.581   6.701  10.575  0.6251 -0.4397 -0.2816
14333TIP3    H164490   5.653   6.638  10.579 -1.5863 -3.3185 -1.7152
14333TIP3    H264491   5.586   6.737  10.486  1.2701  0.6806  0.1930
14334TIP3   OH264492   0.064   0.058  11.930 -0.5217 -0.2286 -0.9482
14334TIP3    H164493   0.060   0.121  11.858  1.6300 -0.4171 -1.3101
14334TIP3    H264494   0.067  -0.028  11.887  3.0149 -0.2754 -0.8765
14335TIP3   OH264495   1.254   1.857  13.061 -0.3284 -0.0115  0.3336
14335TIP3    H164496   1.221   1.838  13.149 -0.0719  2.7547  1.1171
14335TIP3    H264497   1.271   1.951  13.062  1.1706 -0.1756 -2.2022
14336TIP3   OH264498   6.689   2.525   5.631 -0.3238 -0.1051  0.4463
14336TIP3    H164499   6.685   2.612   5.669  2.0676 -0.3156  1.3659
14336TIP3    H264500   6.704   2.467   5.705  2.8048 -0.7133 -0.4952
14337TIP3   OH264501   5.223   3.222   5.043 -0.4573  0.4864  0.0277
14337TIP3    H164502   5.269   3.157   4.990 -0.6617  0.4434 -0.0996
14337TIP3    H264503   5.137   3.184   5.059 -0.5333  0.6688  0.0608
14338TIP3   OH264504   1.056   5.755   4.838  0.0464 -0.1135 -0.2549
14338TIP3    H164505   0.964   5.780   4.847  0.2947  0.3760  1.3565
14338TIP3    H264506   1.055   5.660   4.849 -0.4985 -0.4406 -2.6929
14339TIP3   OH264507   1.779   3.132   4.956 -0.7645 -0.6837 -0.0016
14339TIP3    H164508   1.815   3.043   4.948  0.1357 -0.2188 -1.4196
14339TIP3    H264509   1.784   3.151   5.050  0.3274 -1.6080  0.1555
14340TIP3   OH264510   6.142   1.359  11.471  0.2273 -0.3327  0.2015
14340TIP3    H164511   6.066   1.325  11.424  0.9417 -2.1575  0.3159
14340TIP3    H264512   6.192   1.282  11.496  1.4259  0.7593  1.3390
14341TIP3   OH264513   2.403   2.759  16.863 -0.6259  0.8414 -0.6061
14341TIP3    H164514   2.497   2.777  16.869 -0.7419  0.9464  1.6320
14341TIP3    H264515   2.362   2.845  16.852 -0.6452  1.2603  2.1011
14342TIP3   OH264516   1.185   2.505  14.165 -0.2429 -0.2908  0.3816
14342TIP3    H164517   1.101   2.535  14.129 -0.6771 -1.8880 -0.0116
14342TIP3    H264518   1.239   2.486  14.088 -0.6154 -2.1848  0.5356
14343TIP3   OH264519   4.722   0.814   0.384  0.3928  0.4867  0.1558
14343TIP3    H164520   4.676   0.833   0.466  1.9186 -1.1312  1.4525
14343TIP3    H264521   4.799   0.871   0.386  1.2262 -0.6240  0.6149
14344TIP3   OH264522   1.899   1.619   4.283 -0.2096  0.0936  0.9797
14344TIP3    H164523   1.987   1.625   4.244 -1.2316  1.3135 -1.3707
14344TIP3    H264524   1.891   1.699   4.335  0.4633 -0.6093  2.2162
14345TIP3   OH264525   2.898   2.051  14.492  0.1101 -0.0670  0.4327
14345TIP3    H164526   2.989   2.071  14.514  0.4200 -1.0287  0.0466
14345TIP3    H264527   2.880   1.969  14.536 -0.0653 -0.6977 -0.7754
14346TIP3   OH264528   2.979   1.058   3.530  0.2542 -1.0573 -0.0483
14346TIP3    H164529   2.909   1.109   3.488  2.3956  3.1421  0.9561
14346TIP3    H264530   2.951   1.050   3.621 -0.0317 -1.6392 -0.1826
14347TIP3   OH264531   0.202   4.927  12.752  0.0960  0.0494 -0.3685
14347TIP3    H164532   0.218   4.906  12.660  1.8293  1.7145 -0.5124
14347TIP3    H264533   0.273   4.884  12.799  0.1214  0.4905  0.0032
14348TIP3   OH264534   2.550   0.081   0.600  0.7651 -0.4216  0.3927
14348TIP3    H164535   2.499   0.010   0.562  0.1381  0.2621 -0.0682
14348TIP3    H264536   2.641   0.051   0.596  0.5257 -1.1098  0.0392
14349TIP3   OH264537   2.994   5.882   3.575 -0.3242  0.4405  0.1405
14349TIP3    H164538   3.060   5.901   3.508 -1.6494 -0.0347 -1.3893
14349TIP3    H264539   2.987   5.787   3.576 -1.7314  0.5075 -0.5492
14350TIP3   OH264540   0.353   5.690   3.488  0.0164  0.3005  0.6746
14350TIP3    H164541   0.281   5.732   3.536  0.5036  0.5306  1.2041
14350TIP3    H264542   0.360   5.603   3.527 -0.4103  0.0310  0.1695
14351TIP3   OH264543   6.575   3.370  15.190 -0.1098  0.1232  0.0690
14351TIP3    H164544   6.665   3.392  15.215  0.0690 -1.2057  0.6291
14351TIP3    H264545   6.525   3.376  15.271 -0.3387 -0.0932 -0.0552
14352TIP3   OH264546   3.937   4.119   2.640 -0.5599  0.5450 -0.7590
14352TIP3    H164547   3.886   4.089   2.715  1.6153  0.5071  0.7581
14352TIP3    H264548   3.874   4.171   2.589 -1.9850  1.0162  1.3274
14353TIP3   OH264549   5.314   4.381   1.945  0.1907 -0.3470 -0.0711
14353TIP3    H164550   5.327   4.350   1.855  3.2275 -2.6127  0.9746
14353TIP3    H264551   5.231   4.342   1.972 -0.6752  0.2062 -1.7939
14354TIP3   OH264552   5.265   4.785   5.201  0.1702 -0.2041  0.0274
14354TIP3    H164553   5.287   4.865   5.154  2.2013 -0.0470  1.1713
14354TIP3    H264554   5.300   4.714   5.146 -0.7905 -0.2817 -0.5126
14355TIP3   OH264555   3.449   4.534   3.040 -0.0439  0.8412  0.3881
14355TIP3    H164556   3.421   4.453   2.998  0.4110  0.1846  1.3213
14355TIP3    H264557   3.528   4.510   3.089  0.4402  1.9768  0.2102
14356TIP3   OH264558   0.442   1.142  13.439 -0.7182  0.3114  0.3583
14356TIP3    H164559   0.475   1.222  13.481 -0.3586  0.2724  0.1591
14356TIP3    H264560   0.347   1.153  13.437 -0.6579  0.8274  0.1506
14357TIP3   OH264561   5.428   0.062  16.259  0.1474 -0.8923  0.3921
14357TIP3    H164562   5.335   0.043  16.245 -0.9272  2.8557  1.2932
14357TIP3    H264563   5.459   0.095  16.174 -0.3626  0.9864  0.8718
14358TIP3   OH264564   5.970   0.153   3.736 -0.3232 -0.1151 -0.0534
14358TIP3    H164565   6.028   0.185   3.806  0.4410  1.8612 -1.5159
14358TIP3    H264566   5.960   0.059   3.755  0.8653  0.1052  1.9733
14359TIP3   OH264567   1.623   0.189   5.186 -0.0306  0.4837  0.3415
14359TIP3    H164568   1.686   0.217   5.119  2.4746  0.4890  2.5262
14359TIP3    H264569   1.558   0.258   5.188  1.4916  2.0110 -0.0491
14360TIP3   OH264570   5.418   1.963   6.632 -0.0952 -0.2292  0.2673
14360TIP3    H164571   5.452   2.040   6.587 -0.9624  0.6462  1.0622
14360TIP3    H264572   5.491   1.931   6.685  0.7759 -0.9604 -1.2855
14361TIP3   OH264573   6.762   0.270   3.241 -0.4722 -0.3393 -0.7544
14361TIP3    H164574   6.757   0.321   3.160  0.5956  0.2622 -0.4655
14361TIP3    H264575   6.673   0.269   3.275 -0.4052  2.0210 -0.3797
14362TIP3   OH264576   6.005   3.050   1.409 -0.1583  0.7300 -0.1095
14362TIP3    H164577   6.100   3.043   1.410 -0.2891 -4.1264  0.5212
14362TIP3    H264578   5.980   3.068   1.499  0.1279  1.3884 -0.1603
14363TIP3   OH264579   2.035   2.509   0.001 -0.3880  0.0209 -0.1147
14363TIP3    H164580   2.090   2.474   0.071 -0.0886 -1.0688 -0.8676
14363TIP3    H264581   1.951   2.527   0.043  0.0533  0.2178  0.7044
14364TIP3   OH264582   2.824   5.530   3.159  0.2854  0.0666 -0.3553
14364TIP3    H164583   2.748   5.539   3.218  0.1054 -3.8229  0.2737
14364TIP3    H264584   2.786   5.531   3.071 -0.1330  0.8149 -0.1719
14365TIP3   OH264585   1.967   3.791  12.925 -0.3305  0.8004 -0.5915
14365TIP3    H164586   2.034   3.834  12.872  2.0919 -0.8298  0.9315
14365TIP3    H264587   1.987   3.816  13.015 -2.1024  0.6497 -0.1165
14366TIP3   OH264588   4.081   2.939   2.485 -0.5921  0.0075  0.2169
14366TIP3    H164589   4.149   3.006   2.483 -1.0219  0.4636  0.7671
14366TIP3    H264590   4.129   2.858   2.503 -0.1709  0.2959  0.4097
14367TIP3   OH264591   4.119   4.136   0.770  0.2429 -0.0478  0.1078
14367TIP3    H164592   4.121   4.105   0.680  0.1688  0.7587 -0.1747
14367TIP3    H264593   4.210   4.154   0.792  0.1949  0.3275 -0.0045
14368TIP3   OH264594   1.176   6.363  15.552 -0.2645 -0.0210 -0.3510
14368TIP3    H164595   1.129   6.447  15.553 -1.7192 -0.7283  2.7294
14368TIP3    H264596   1.126   6.309  15.490 -0.2502  0.8692 -1.1693
14369TIP3   OH264597   6.766   6.350   6.239 -0.4164 -0.6719  0.0315
14369TIP3    H164598   6.821   6.298   6.298  0.8661  0.9107  0.3005
14369TIP3    H264599   6.763   6.437   6.280 -1.0566 -0.0526 -1.2845
14370TIP3   OH264600   4.953   0.288   3.799 -0.5470 -0.0992  0.1684
14370TIP3    H164601   4.872   0.254   3.760 -0.7709  0.0635  0.4913
14370TIP3    H264602   4.943   0.383   3.798  1.4560  0.3003 -3.8239
14371TIP3   OH264603   4.805   0.578  12.132 -0.7087 -0.2899 -0.0463
14371TIP3    H164604   4.894   0.544  12.129 -1.2793 -1.8372 -0.0496
14371TIP3    H264605   4.762   0.527  12.200 -1.2992  1.2488  0.7965
14372TIP3   OH264606   1.886   3.775  14.353 -0.4007  0.1642 -0.1970
14372TIP3    H164607   1.921   3.853  14.398 -1.0239  1.1919 -1.4265
14372TIP3    H264608   1.792   3.780  14.365 -0.6415  0.7569 -1.9897
14373TIP3   OH264609   2.553   0.723   2.913 -0.3806 -0.1069 -0.0494
14373TIP3    H164610   2.528   0.809   2.879 -1.1230 -0.0229  0.6818
14373TIP3    H264611   2.550   0.734   3.009 -1.7122 -1.2857  0.0660
14374TIP3   OH264612   3.851   3.196  12.571 -0.4813  0.2068  0.4404
14374TIP3    H164613   3.844   3.277  12.621  1.1912  0.1734  0.7981
14374TIP3    H264614   3.904   3.138  12.625 -0.3971 -0.5888 -0.4578
14375TIP3   OH264615   5.213   3.619  16.369  0.2101  0.0538  0.6277
14375TIP3    H164616   5.137   3.673  16.390  0.9137  0.5208  2.1451
14375TIP3    H264617   5.226   3.565  16.447 -0.2753 -2.1220 -0.7354
14376TIP3   OH264618   3.413   5.925  13.591 -0.0322 -0.1082 -0.0308
14376TIP3    H164619   3.381   5.984  13.523 -0.5791 -0.1291  0.1991
14376TIP3    H264620   3.506   5.945  13.599  0.0998 -0.3219 -0.9968
14377TIP3   OH264621   0.949   3.192  13.987 -0.5158  0.5478  0.0783
14377TIP3    H164622   0.924   3.185  13.895  0.2743  0.7205 -0.1580
14377TIP3    H264623   0.913   3.114  14.029  0.6736 -0.4702 -0.7438
14378TIP3   OH264624   6.500   2.724   3.761  0.2022  0.6062  0.0600
14378TIP3    H164625   6.409   2.754   3.757  0.5647  1.7469  0.1349
14378TIP3    H264626   6.512   2.692   3.850 -0.3329 -0.2767 -0.1691
14379TIP3   OH264627   3.392   5.036  13.324 -0.0866 -0.0816 -0.2951
14379TIP3    H164628   3.443   4.988  13.389  0.0203  0.1859 -0.1788
14379TIP3    H264629   3.311   5.060  13.370  0.2002  0.5339 -0.1062
14380TIP3   OH264630   5.037   2.699  17.090 -0.0291  1.0620 -0.0484
14380TIP3    H164631   5.050   2.711  16.996  1.7501  2.2006  0.2859
14380TIP3    H264632   5.116   2.651  17.118  0.0389  1.7934  1.0322
14381TIP3   OH264633   5.899   4.291  13.470  0.5791  0.0399  0.1803
14381TIP3    H164634   5.899   4.358  13.401  3.0582 -1.8774 -1.8617
14381TIP3    H264635   5.975   4.313  13.523  1.4929 -1.1586 -0.5888
14382TIP3   OH264636   3.507   2.218   0.243  0.0718 -0.4059  0.0765
14382TIP3    H164637   3.431   2.271   0.216  0.4030 -0.5953 -1.2972
14382TIP3    H264638   3.554   2.274   0.304 -0.0510  0.5685 -0.6885
14383TIP3   OH264639   1.415   0.014   3.704 -1.0052  0.4434  0.3468
14383TIP3    H164640   1.398   0.008   3.798 -0.3629  0.9659  0.5020
14383TIP3    H264641   1.414   0.107   3.684 -0.9253  0.3497 -0.1236
14384TIP3   OH264642   5.587   4.445   0.147 -0.2916  0.0619 -0.5023
14384TIP3    H164643   5.633   4.528   0.155 -0.2475  0.1298 -1.3555
14384TIP3    H264644   5.639   4.395   0.084 -0.0492 -0.8045  0.3617
14385TIP3   OH264645   1.992   0.933  12.069  0.6136 -0.1674  0.0360
14385TIP3    H164646   1.932   0.861  12.091 -0.3171  1.0118  1.5513
14385TIP3    H264647   1.969   1.003  12.130  0.5584  1.9383 -2.2391
14386TIP3   OH264648   3.907   2.789   0.800  0.2972 -0.5179  0.6484
14386TIP3    H164649   4.001   2.802   0.783  0.0820 -0.3424 -0.5304
14386TIP3    H264650   3.879   2.871   0.842  0.1346  0.6462 -1.5465
14387TIP3   OH264651   0.767   0.372  13.789  0.4164 -1.2049 -0.4478
14387TIP3    H164652   0.718   0.332  13.717  0.7298 -0.1629 -1.2564
14387TIP3    H264653   0.702   0.425  13.835  0.5172 -0.7922 -0.7822
14388TIP3   OH264654   2.041   0.853   1.841 -0.7172 -0.4546 -0.4020
14388TIP3    H164655   1.996   0.771   1.826  1.4978 -1.6889 -0.7612
14388TIP3    H264656   2.086   0.871   1.758  0.4682  0.0184  0.3115
14389TIP3   OH264657   2.269   5.386  12.150  0.4693 -0.0666  0.1923
14389TIP3    H164658   2.233   5.433  12.225  0.4367 -1.9975  1.4628
14389TIP3    H264659   2.266   5.294  12.176  1.0922 -0.7424 -1.9309
14390TIP3   OH264660   3.941   2.017   5.350 -0.1468 -0.1613 -0.2239
14390TIP3    H164661   3.934   2.105   5.312 -0.1913  0.3251  0.8684
14390TIP3    H264662   3.967   1.961   5.277  0.8458  0.9326 -0.7301
14391TIP3   OH264663   6.332   2.066  11.527  0.3197 -0.3452 -0.1691
14391TIP3    H164664   6.342   2.103  11.440  0.4174  0.4432  0.1711
14391TIP3    H264665   6.412   2.090  11.574 -0.5928  1.0123  0.7610
14392TIP3   OH264666   5.400   2.676  13.696  0.2458  0.0684 -0.0437
14392TIP3    H164667   5.331   2.609  13.697 -0.1394  0.4474  1.6546
14392TIP3    H264668   5.372   2.741  13.760  0.7766  1.7275 -1.4148
14393TIP3   OH264669   2.963   3.262   1.076  0.5457  0.4906  0.4136
14393TIP3    H164670   3.059   3.258   1.083  0.6060  0.9838 -0.1147
14393TIP3    H264671   2.943   3.355   1.082  0.1979  0.4967 -0.7479
14394TIP3   OH264672   2.171   3.991   5.324  0.3368 -0.0093 -0.0178
14394TIP3    H164673   2.237   3.969   5.258 -1.8080 -0.6137 -2.0689
14394TIP3    H264674   2.164   3.912   5.377  0.5755 -0.2914 -0.3968
14395TIP3   OH264675   0.951   0.681  15.054  0.8109 -0.6109 -0.2582
14395TIP3    H164676   0.857   0.688  15.038  0.4639 -1.9668  0.9787
14395TIP3    H264677   0.984   0.629  14.981  0.1984 -2.0323  0.4496
14396TIP3   OH264678   4.497   3.445   5.386  0.6079 -0.0254 -0.0498
14396TIP3    H164679   4.413   3.446   5.341  1.0485  0.0646 -0.8871
14396TIP3    H264680   4.557   3.491   5.327  1.2587 -0.1312  0.5102
14397TIP3   OH264681   4.342   1.431  11.308  0.1499  0.1688  0.1243
14397TIP3    H164682   4.253   1.467  11.308  0.7921  1.9113 -1.3623
14397TIP3    H264683   4.330   1.336  11.306 -1.7345  0.3750 -1.7455
14398TIP3   OH264684   6.206   6.298  11.737 -0.3288  0.5870  0.4636
14398TIP3    H164685   6.203   6.347  11.654 -1.7196  1.2762  0.8765
14398TIP3    H264686   6.275   6.234  11.725 -0.6838  0.4868 -1.3465
14399TIP3   OH264687   2.352   1.971  17.387 -0.1427  0.4533  0.5033
14399TIP3    H164688   2.395   1.942  17.467  1.8555  1.3378 -0.1813
14399TIP3    H264689   2.304   1.895  17.356  1.2778 -0.7352  1.1239
14400TIP3   OH264690   5.563   3.371  12.830  0.2182 -0.1395  0.7800
14400TIP3    H164691   5.658   3.378  12.840  0.5131 -2.3108  0.1076
14400TIP3    H264692   5.528   3.442  12.882  2.2438  1.7757 -0.3120
14401TIP3   OH264693   5.038   5.822   1.195  0.2518  0.1509 -0.2896
14401TIP3    H164694   5.075   5.734   1.195 -1.1658 -0.4761  0.5602
14401TIP3    H264695   4.946   5.810   1.221 -0.4615  1.6867 -1.9178
14402TIP3   OH264696   0.425   6.387  15.248  0.4073 -0.5989 -0.5059
14402TIP3    H164697   0.420   6.481  15.261 -1.3206 -0.6756 -0.4144
14402TIP3    H264698   0.481   6.377  15.170  1.1114  0.4470 -0.1565
14403TIP3   OH264699   0.724   5.462   6.112 -0.7346 -0.6861 -0.5300
14403TIP3    H164700   0.642   5.498   6.078  0.5240  0.0474 -3.0682
14403TIP3    H264701   0.733   5.378   6.067  0.6368 -0.0237 -1.5640
14404TIP3   OH264702   5.701   2.700   6.694 -0.2799  0.0086 -0.3285
14404TIP3    H164703   5.658   2.619   6.722 -0.3582 -0.1557 -0.9210
14404TIP3    H264704   5.642   2.737   6.629  0.6498 -0.4040 -1.4246
14405TIP3   OH264705   6.149   3.888  12.824  0.2534 -0.0442  0.4173
14405TIP3    H164706   6.122   3.901  12.915 -0.3755 -0.5724  0.3148
14405TIP3    H264707   6.068   3.869  12.778  0.7944 -1.7349  0.1072
14406TIP3   OH264708   3.530   3.556   0.648 -0.4969 -0.3903  0.4119
14406TIP3    H164709   3.581   3.587   0.573  1.5178 -0.9664  1.4479
14406TIP3    H264710   3.449   3.607   0.645  0.7489  1.6815 -0.5342
14407TIP3   OH264711   0.262   6.031  11.296  1.1489 -0.2074 -0.6683
14407TIP3    H164712   0.353   6.052  11.272  0.8331 -0.4530 -2.1636
14407TIP3    H264713   0.252   5.938  11.274  0.4757 -0.1282 -0.7227
14408TIP3   OH264714   1.213   0.849   0.928  0.4886 -0.5355  0.3587
14408TIP3    H164715   1.177   0.868   1.015 -2.3021 -2.2557 -0.2951
14408TIP3    H264716   1.299   0.891   0.928 -1.1701  3.3519  2.3164
14409TIP3   OH264717   4.469   0.018  15.085 -0.7870 -0.5272  0.4281
14409TIP3    H164718   4.481  -0.050  15.151 -2.8341 -1.2877  0.1096
14409TIP3    H264719   4.543   0.008  15.026 -1.3483 -2.9905  0.0130
14410TIP3   OH264720   5.343   3.210  12.848  0.0336 -0.9988 -0.2975
14410TIP3    H164721   5.387   3.295  12.846 -0.0633 -0.9008  0.9076
14410TIP3    H264722   5.408   3.149  12.812  1.5124 -0.9787  2.0748
14411TIP3   OH264723   5.590   5.398   4.560 -0.5925  0.6287 -0.6604
14411TIP3    H164724   5.497   5.422   4.560 -1.3977 -2.1182  0.0117
14411TIP3    H264725   5.629   5.453   4.628 -2.2634  0.1560  0.7529
14412TIP3   OH264726   1.667   5.293  14.293  0.2303  0.6389 -0.1566
14412TIP3    H164727   1.577   5.263  14.281  0.3844 -1.5637  2.9763
14412TIP3    H264728   1.662   5.358  14.362  1.2079 -2.3431  3.0530
14413TIP3   OH264729   6.057   3.240  15.873 -0.0258  0.6395 -1.0920
14413TIP3    H164730   6.033   3.305  15.940  0.6255  1.0238 -1.2289
14413TIP3    H264731   5.998   3.259  15.800 -0.7975  0.1667 -0.6055
14414TIP3   OH264732   3.307   5.550   5.108 -0.4054 -0.1018 -0.5820
14414TIP3    H164733   3.383   5.504   5.143  0.4453  0.8181 -1.1782
14414TIP3    H264734   3.233   5.493   5.129  0.6289 -1.8556 -1.4950
14415TIP3   OH264735   0.190   5.811  17.105  0.4910  0.3607  0.4067
14415TIP3    H164736   0.128   5.786  17.038  0.4102  0.7572  0.3323
14415TIP3    H264737   0.266   5.755  17.090  0.8223  1.0461 -0.5661
14416TIP3   OH264738   6.351   2.126   6.492  0.0311 -0.0645  0.7986
14416TIP3    H164739   6.354   2.219   6.515  1.8719  0.0765  0.1457
14416TIP3    H264740   6.279   2.091   6.545 -1.0868  1.8261  0.6091
14417TIP3   OH264741   6.765   2.214  15.277 -0.1778 -0.1146  0.3808
14417TIP3    H164742   6.732   2.304  15.275 -1.1836 -0.4318  1.5261
14417TIP3    H264743   6.757   2.188  15.369  2.4666 -0.5331  0.5620
14418TIP3   OH264744   1.413   1.796   2.953  0.0323 -0.1967  0.4597
14418TIP3    H164745   1.458   1.862   2.900  0.6000 -1.3411 -0.5381
14418TIP3    H264746   1.407   1.835   3.040  0.3839  1.1475 -0.0891
14419TIP3   OH264747   6.436   3.931  11.654 -0.1022 -0.5914 -0.2261
14419TIP3    H164748   6.472   3.859  11.707  0.1252 -0.4037 -0.1226
14419TIP3    H264749   6.505   3.997  11.654  0.3191 -1.0127 -1.6228
14420TIP3   OH264750   1.191   1.124   2.269  0.0114 -0.0134 -0.1551
14420TIP3    H164751   1.187   1.200   2.211  1.3416  1.4040  1.4908
14420TIP3    H264752   1.249   1.063   2.225  0.9175  0.9929 -0.3835
14421TIP3   OH264753   6.327   5.027   6.594 -0.7237 -0.0194 -0.6018
14421TIP3    H164754   6.261   5.007   6.660 -0.1352  0.6373  0.1932
14421TIP3    H264755   6.401   5.063   6.642 -0.1663  0.2092 -1.5842
14422TIP3   OH264756   3.836   1.542   0.752 -0.3685  0.1545 -0.4206
14422TIP3    H164757   3.862   1.626   0.791 -3.6832  1.2589 -0.3009
14422TIP3    H264758   3.911   1.485   0.767  0.4237  1.8664  3.3357
14423TIP3   OH264759   0.696   1.770   5.194 -0.1463 -0.6152 -0.4529
14423TIP3    H164760   0.710   1.719   5.274 -0.8950 -0.6245 -0.3282
14423TIP3    H264761   0.759   1.734   5.131  0.8671 -0.2241  0.2940
14424TIP3   OH264762   3.501   3.446   1.955  0.2486  0.9281  0.1984
14424TIP3    H164763   3.567   3.416   1.893 -0.1554  0.0016  0.2090
14424TIP3    H264764   3.545   3.441   2.040  0.4940  1.2937  0.0951
14425TIP3   OH264765   0.754   4.829  17.455 -0.4001 -0.3347 -0.4572
14425TIP3    H164766   0.789   4.799  17.371  1.6505  1.3542 -0.3078
14425TIP3    H264767   0.823   4.810  17.518 -0.0259  2.2781  0.0447
14426TIP3   OH264768   5.848   5.342   2.270 -0.2916  0.1641  0.4866
14426TIP3    H164769   5.877   5.395   2.196 -2.2140 -0.0084 -0.4483
14426TIP3    H264770   5.920   5.280   2.284  0.2368  0.3727 -1.0633
14427TIP3   OH264771   6.495   6.545   0.734  0.4597  0.1112 -0.0055
14427TIP3    H164772   6.478   6.619   0.676  0.7147 -0.9747 -1.5056
14427TIP3    H264773   6.459   6.573   0.819 -1.7942  0.9578 -1.1484
14428TIP3   OH264774   5.554   4.877   5.715  0.0706  0.0514 -0.4461
14428TIP3    H164775   5.461   4.891   5.696  0.6026  1.4399 -2.2338
14428TIP3    H264776   5.570   4.929   5.793 -0.9277 -1.3497  0.7642
14429TIP3   OH264777   4.897   3.241  15.942 -0.5201 -0.0701  0.5238
14429TIP3    H164778   4.989   3.220  15.929 -0.5420  0.3610 -0.3753
14429TIP3    H264779   4.864   3.261  15.855 -1.3372  0.2879  0.9051
14430TIP3   OH264780   2.911   1.232   5.651 -0.3733  0.1145 -0.1825
14430TIP3    H164781   2.976   1.179   5.697  0.2597  1.9751  1.1936
14430TIP3    H264782   2.884   1.178   5.576  0.3944 -2.0045  0.9895
14431TIP3   OH264783   6.477   0.605  11.336  0.4462 -0.1652 -0.5713
14431TIP3    H164784   6.386   0.614  11.367  0.8154  0.4816  0.3593
14431TIP3    H264785   6.530   0.640  11.407  1.3080  2.2110 -2.2411
14432TIP3   OH264786   5.520   5.486   5.712 -0.5705 -0.1225 -0.1103
14432TIP3    H164787   5.479   5.558   5.663 -1.6564 -0.9704 -0.4730
14432TIP3    H264788   5.608   5.519   5.732 -1.1574  1.4504  0.0539
14433TIP3   OH264789   3.230   2.086  13.704  0.1528  0.3634  0.0563
14433TIP3    H164790   3.278   2.004  13.690 -1.4388 -0.3413 -1.6912
14433TIP3    H264791   3.276   2.129  13.776  2.7489 -0.7305 -0.8342
14434TIP3   OH264792   0.837   0.243   5.799 -0.3347 -0.2171  0.5399
14434TIP3    H164793   0.931   0.253   5.789 -0.4673  1.8394  0.8334
14434TIP3    H264794   0.803   0.241   5.709 -0.1540  0.9537  0.4386
14435TIP3   OH264795   0.814   1.215  11.511  0.2315  0.3346 -0.5429
14435TIP3    H164796   0.893   1.185  11.556  0.9688  0.9074 -1.4192
14435TIP3    H264797   0.747   1.215  11.579  0.4765 -2.0430 -0.2076
14436TIP3   OH264798   0.216   1.092   1.082  0.2463 -0.3850  0.5345
14436TIP3    H164799   0.277   1.095   1.156  0.4305  3.3882  0.4176
14436TIP3    H264800   0.272   1.068   1.007  0.6938 -1.1636  1.1044
14437TIP3   OH264801   6.713   3.760  11.045  0.4440  0.0360  0.1474
14437TIP3    H164802   6.648   3.718  10.989  1.5461 -1.0622 -0.3695
14437TIP3    H264803   6.752   3.828  10.990 -1.8921  2.4157  1.2359
14438TIP3   OH264804   0.615   3.079   2.935  0.3599 -0.0930  0.1977
14438TIP3    H164805   0.652   2.991   2.933  2.5190  0.7012  1.7920
14438TIP3    H264806   0.526   3.067   2.968  0.0624 -1.7952 -1.0926
14439TIP3   OH264807   5.650   1.360   6.264 -0.3542 -0.0297 -0.2800
14439TIP3    H164808   5.703   1.297   6.313 -2.2176 -0.9951  0.5578
14439TIP3    H264809   5.694   1.366   6.179  2.5750  1.2008  1.1665
14440TIP3   OH264810   4.764   5.581  13.735  0.0490 -0.4329  0.4925
14440TIP3    H164811   4.831   5.602  13.800 -0.1371 -1.2404  0.9610
14440TIP3    H264812   4.748   5.664  13.690  1.4487 -0.2542  0.2811
14441TIP3   OH264813   3.674   4.032   1.685  0.0966  0.0903  0.1782
14441TIP3    H164814   3.680   4.120   1.648  0.0650  0.5946  1.3325
14441TIP3    H264815   3.613   4.040   1.758 -0.2334 -0.9913  0.0460
14442TIP3   OH264816   2.013   6.319  11.725  0.0779 -0.2998  0.1479
14442TIP3    H164817   2.055   6.405  11.718  1.1251 -0.4689  3.0230
14442TIP3    H264818   2.071   6.260  11.678  1.1298  0.0797  0.9299
14443TIP3   OH264819   2.977   4.884   2.728  0.4463 -0.3189  0.0380
14443TIP3    H164820   3.015   4.816   2.673  2.1080  0.7707 -0.2175
14443TIP3    H264821   3.015   4.870   2.815 -0.4973 -0.7089  0.4063
14444TIP3   OH264822   3.562   0.772  14.890  0.1404 -0.4689  0.7301
14444TIP3    H164823   3.535   0.743  14.803 -1.2161 -2.1038  1.6407
14444TIP3    H264824   3.607   0.855  14.875  0.2223 -0.8700 -1.5517
14445TIP3   OH264825   0.497   6.049   1.071  0.0389 -0.0079 -0.1388
14445TIP3    H164826   0.473   5.962   1.040 -0.4605  0.6832 -1.7647
14445TIP3    H264827   0.461   6.109   1.006  2.3614  1.3028 -0.3333
14446TIP3   OH264828   1.853   0.475   4.280 -0.4771  0.6450  0.4356
14446TIP3    H164829   1.799   0.400   4.305  2.1663 -1.4661  0.2007
14446TIP3    H264830   1.867   0.465   4.186 -1.7999  2.6973 -0.0468
14447TIP3   OH264831   5.785   6.367   1.350 -0.6996 -0.1727 -0.3922
14447TIP3    H164832   5.801   6.298   1.285  0.4668 -2.1247  1.8065
14447TIP3    H264833   5.705   6.340   1.395 -0.2807 -0.0725  0.4349
14448TIP3   OH264834   3.589   1.874   3.597 -0.7683 -0.5687  0.5448
14448TIP3    H164835   3.647   1.856   3.670  0.1076 -0.9190 -0.2188
14448TIP3    H264836   3.550   1.790   3.575 -0.4329 -0.6214  0.1251
14449TIP3   OH264837   6.777   4.160   5.662 -0.2597  0.4762  0.2972
14449TIP3    H164838   6.702   4.213   5.633  0.0611  0.9316  0.2959
14449TIP3    H264839   6.762   4.074   5.621  1.6952  1.8675 -3.8736
14450TIP3   OH264840   6.650   3.505   1.579 -0.0738  0.0722 -0.3420
14450TIP3    H164841   6.620   3.579   1.527 -0.3227  0.3008  0.1212
14450TIP3    H264842   6.629   3.529   1.669  0.1825 -0.4004 -0.1531
14451TIP3   OH264843   6.038   0.963   4.590 -0.3602  0.7501 -0.3044
14451TIP3    H164844   5.967   1.016   4.554 -2.4235 -1.2643  0.5747
14451TIP3    H264845   6.032   0.976   4.684 -0.6836 -0.7274 -0.1013
14452TIP3   OH264846   4.897   3.784   3.271  0.6100 -0.0940 -0.2599
14452TIP3    H164847   4.843   3.773   3.349 -0.5249 -2.3934 -1.2582
14452TIP3    H264848   4.876   3.872   3.239  0.0088  0.3240  1.1963
14453TIP3   OH264849   2.518   0.964   5.872 -0.0499  0.6432 -0.1377
14453TIP3    H164850   2.553   1.052   5.885 -1.5962  1.5070 -1.4722
14453TIP3    H264851   2.595   0.912   5.848  1.0632  1.3428  1.6962
14454TIP3   OH264852   4.847   1.020   5.219  0.6496 -0.1576 -0.4160
14454TIP3    H164853   4.930   0.988   5.183  0.4506 -2.5357  0.9663
14454TIP3    H264854   4.873   1.083   5.286  1.2911 -0.1281 -0.6835
14455TIP3   OH264855   6.426   5.868   3.787 -0.0857 -0.2386  0.0328
14455TIP3    H164856   6.468   5.783   3.801 -1.9702 -1.7184 -2.4633
14455TIP3    H264857   6.333   5.851   3.802 -0.3241  1.8759  1.2255
14456TIP3   OH264858   1.209   2.129  11.515 -0.2265  0.4499 -0.6340
14456TIP3    H164859   1.194   2.164  11.602  0.2243 -0.4543 -0.1735
14456TIP3    H264860   1.285   2.072  11.525 -1.5299 -1.4794 -1.0777
14457TIP3   OH264861   0.352   4.434   1.676 -0.3692  0.8046  0.4642
14457TIP3    H164862   0.372   4.341   1.689  0.3001  1.3065  4.1086
14457TIP3    H264863   0.367   4.449   1.583 -1.1722 -2.8481 -0.4086
14458TIP3   OH264864   5.080   6.324  14.945  0.0344 -0.0892  0.4617
14458TIP3    H164865   5.092   6.245  14.997  1.9870 -0.3393 -0.3126
14458TIP3    H264866   5.098   6.298  14.855  2.2504  1.5034  0.3590
14459TIP3   OH264867   5.791   5.839  12.264 -0.1450  0.2958  0.3086
14459TIP3    H164868   5.734   5.913  12.240  0.7180  0.7812 -0.2729
14459TIP3    H264869   5.730   5.772  12.296 -0.9683  1.1551  0.6043
14460TIP3   OH264870   5.885   2.017  12.045 -0.7815 -0.2145  0.4999
14460TIP3    H164871   5.798   1.985  12.071  0.5803 -3.5139  1.5763
14460TIP3    H264872   5.945   1.946  12.070  2.1355  1.4792 -1.1268
14461TIP3   OH264873   3.510   1.175  16.217  0.1766 -0.7820  0.1387
14461TIP3    H164874   3.464   1.220  16.288  1.9454  0.6663  0.4520
14461TIP3    H264875   3.524   1.086  16.249 -1.4270 -0.9526  0.4448
14462TIP3   OH264876   5.426   6.417   2.384 -0.3497 -0.2076 -0.4185
14462TIP3    H164877   5.360   6.451   2.445  1.5545  2.0163  0.5309
14462TIP3    H264878   5.453   6.493   2.333  0.9356 -1.2410 -1.3344
14463TIP3   OH264879   6.739   1.426  13.809  0.0123  1.0337  0.2898
14463TIP3    H164880   6.697   1.504  13.774  1.6877  0.8635 -2.3907
14463TIP3    H264881   6.705   1.354  13.754  1.8023  0.5617 -0.2702
14464TIP3   OH264882   0.312   1.215  16.876 -0.4538 -0.7570 -0.2351
14464TIP3    H164883   0.404   1.225  16.853 -1.0507  1.6703 -1.9188
14464TIP3    H264884   0.304   1.255  16.963 -0.0839  0.0422 -0.5601
14465TIP3   OH264885   6.492   0.530   4.822  0.3729  0.2878  0.8185
14465TIP3    H164886   6.506   0.438   4.798 -0.7398  0.1814  0.4879
14465TIP3    H264887   6.425   0.527   4.890  0.8531  0.8223  1.3215
14466TIP3   OH264888   0.353   0.203  14.022 -0.0632  0.1301  0.5452
14466TIP3    H164889   0.319   0.240  14.103  1.3060  0.0831  1.1655
14466TIP3    H264890   0.346   0.275  13.959 -1.4315  0.0677  0.5878
14467TIP3   OH264891   1.815   1.857  14.665  0.1763 -0.0032  0.8135
14467TIP3    H164892   1.739   1.822  14.617  0.5413 -0.5263  0.6102
14467TIP3    H264893   1.891   1.817  14.623  0.6689  1.5660  0.1213
14468TIP3   OH264894   4.649   4.509   0.893 -0.6435  0.1920  0.3548
14468TIP3    H164895   4.741   4.531   0.877 -0.5418  0.8810  1.7814
14468TIP3    H264896   4.608   4.516   0.807  0.5017  0.5175 -0.1905
14469TIP3   OH264897   1.796   3.315  13.135 -0.1907 -0.3166  0.6765
14469TIP3    H164898   1.740   3.377  13.087  1.8808  0.9928 -0.1933
14469TIP3    H264899   1.749   3.232  13.130 -2.7765  0.9834  1.3217
14470TIP3   OH264900   5.199   0.599   2.659 -0.4843  0.2409 -0.0814
14470TIP3    H164901   5.137   0.669   2.641 -0.6110  0.0218 -0.5030
14470TIP3    H264902   5.236   0.621   2.745  0.7063  1.7010 -0.9252
14471TIP3   OH264903   3.600   0.190  17.062  1.1657 -0.7040  0.3388
14471TIP3    H164904   3.563   0.243  17.133  1.5130  1.9225 -1.3294
14471TIP3    H264905   3.686   0.227  17.046  0.6908 -0.4751 -2.1219
14472TIP3   OH264906   3.339   1.442   5.306 -0.1855 -0.1046 -0.1409
14472TIP3    H164907   3.356   1.507   5.373 -1.6550  0.0375  0.1328
14472TIP3    H264908   3.311   1.364   5.355  0.7297 -0.6688 -0.5009
14473TIP3   OH264909   2.481   6.661  11.561 -0.1417  0.9215  0.0215
14473TIP3    H164910   2.522   6.720  11.498  0.2057  0.0126 -0.6378
14473TIP3    H264911   2.388   6.665  11.541 -0.2326  1.9613  0.6175
14474TIP3   OH264912   2.492   5.423  14.095 -0.1350 -0.5964  0.0292
14474TIP3    H164913   2.499   5.516  14.116  1.9260 -1.0826  1.9547
14474TIP3    H264914   2.403   5.399  14.120 -0.2952  0.6048  0.6775
14475TIP3   OH264915   1.227   4.312  12.248 -0.0464  0.1364  0.2068
14475TIP3    H164916   1.151   4.347  12.202 -0.7060 -0.1236  1.0860
14475TIP3    H264917   1.286   4.283  12.178 -0.4285  1.0140 -0.4843
14476TIP3   OH264918   5.793   5.499  16.980  0.2180  0.4414 -0.6055
14476TIP3    H164919   5.856   5.441  16.937  1.5693  1.3023  0.1285
14476TIP3    H264920   5.823   5.587  16.957 -1.6498  0.9007 -1.5057
14477TIP3   OH264921   2.384   6.274   1.802  0.2299 -0.0724  0.4873
14477TIP3    H164922   2.387   6.323   1.885 -2.6146  0.9882  0.0777
14477TIP3    H264923   2.374   6.342   1.735 -0.7146 -1.0480 -0.3926
14478TIP3   OH264924   3.409   4.914  14.006  0.0188 -0.0793 -0.0729
14478TIP3    H164925   3.346   4.891  14.075 -0.4263  1.0537 -0.0787
14478TIP3    H264926   3.355   4.939  13.932  0.4257  1.8061  0.2164
14479TIP3   OH264927   0.972   0.596  16.280 -0.4144  0.1692  0.2107
14479TIP3    H164928   1.017   0.519  16.317 -1.1508 -0.1824  0.3919
14479TIP3    H264929   0.933   0.565  16.199  2.0197  1.1824 -1.4797
14480TIP3   OH264930   4.827   6.085   1.861  0.0178  0.2228 -0.4060
14480TIP3    H164931   4.769   6.128   1.924 -0.5676 -2.2457  0.8721
14480TIP3    H264932   4.839   5.997   1.896  0.5360 -0.9345 -3.2383
14481TIP3   OH264933   1.078   1.563   2.486 -0.5068  0.1002 -0.0802
14481TIP3    H164934   1.061   1.469   2.497 -0.5963  0.2170  0.8133
14481TIP3    H264935   1.155   1.580   2.539 -1.8013  0.9606  1.6022
14482TIP3   OH264936   5.235   6.158  14.256  0.1222 -1.2085  0.2606
14482TIP3    H164937   5.290   6.103  14.199 -1.8425 -2.8809 -0.1640
14482TIP3    H264938   5.238   6.114  14.341 -0.8560 -1.5860  0.1176
14483TIP3   OH264939   6.092   4.804  14.614 -0.0525  0.2631  0.3777
14483TIP3    H164940   6.006   4.760  14.621  0.8473 -1.5020  1.0104
14483TIP3    H264941   6.136   4.758  14.542 -0.6485  3.0954 -1.9833
14484TIP3   OH264942   2.214   4.483   1.111 -0.5395 -0.2703 -0.4467
14484TIP3    H164943   2.166   4.404   1.137 -2.1808  0.8290  0.0411
14484TIP3    H264944   2.181   4.503   1.023  1.7386 -1.4924 -1.6618
14485TIP3   OH264945   3.589   1.794   1.173  0.2383 -0.7125 -0.1053
14485TIP3    H164946   3.683   1.779   1.162  0.0400 -1.3929 -0.9615
14485TIP3    H264947   3.577   1.802   1.268  1.1102 -0.9459  0.0323
14486TIP3   OH264948   1.269   4.931  10.860  0.1605 -0.2520 -0.0384
14486TIP3    H164949   1.219   4.849  10.858  2.5263 -1.7879 -1.1240
14486TIP3    H264950   1.360   4.903  10.866  1.2853  2.1642 -2.9877
14487TIP3   OH264951   2.880   0.023  12.956  0.6266  0.0169  0.2101
14487TIP3    H164952   2.917   0.053  12.873 -0.1323  0.7796  0.1396
14487TIP3    H264953   2.933   0.065  13.023  1.4088 -0.8049  0.1326
14488TIP3   OH264954   6.019   0.515   2.691  0.2840 -0.2269 -0.1049
14488TIP3    H164955   6.110   0.488   2.674 -0.3703 -2.1598 -0.8263
14488TIP3    H264956   6.026   0.608   2.714  2.4612 -0.3672  0.0813
14489TIP3   OH264957   0.870   5.944  12.291  1.1595 -0.6655  1.0877
14489TIP3    H164958   0.806   5.895  12.241  1.1543  0.0590  0.3662
14489TIP3    H264959   0.952   5.934  12.243  0.5038  2.7991 -1.0966
14490TIP3   OH264960   0.202   6.749   2.692  0.1279  0.1195 -0.3453
14490TIP3    H164961   0.110   6.744   2.665 -0.7114  0.9570  2.1457
14490TIP3    H264962   0.217   6.670   2.742  0.1595  0.9036  0.9151
14491TIP3   OH264963   2.310   2.502  12.372  0.1593 -0.4333  0.0644
14491TIP3    H164964   2.337   2.574  12.314  0.3373 -0.4820  0.0877
14491TIP3    H264965   2.363   2.513  12.451 -0.5806  0.0487  0.5053
14492TIP3   OH264966   3.741   1.484  14.014  0.9158 -0.0779 -0.1559
14492TIP3    H164967   3.693   1.413  14.056  0.0762  0.4358 -0.2241
14492TIP3    H264968   3.761   1.451  13.926  0.0364 -0.0339 -0.3859
14493TIP3   OH264969   3.443   5.682  16.063  0.0513  1.1144 -0.0496
14493TIP3    H164970   3.430   5.777  16.057 -0.8290  0.9709 -0.7242
14493TIP3    H264971   3.398   5.657  16.143  0.5119  1.3024  0.2681
14494TIP3   OH264972   5.601   5.781  14.232  0.0214  0.1554 -0.1615
14494TIP3    H164973   5.642   5.698  14.257 -0.0940 -0.2773 -1.3596
14494TIP3    H264974   5.556   5.762  14.150  2.1209  2.0065 -1.8645
14495TIP3   OH264975   3.492   1.851  16.530 -0.3840  0.2508 -0.2523
14495TIP3    H164976   3.552   1.836  16.603  1.0823  1.8756 -1.0712
14495TIP3    H264977   3.486   1.766  16.486  1.4456  0.0777 -0.2358
14496TIP3   OH264978   1.862   2.209   5.368 -0.2190 -0.1215  0.0507
14496TIP3    H164979   1.901   2.217   5.455  0.3045 -0.9383 -0.0981
14496TIP3    H264980   1.913   2.267   5.313  3.1513 -3.5979 -0.8974
14497TIP3   OH264981   0.747   4.823   0.579 -0.0225 -1.1511  0.2308
14497TIP3    H164982   0.782   4.808   0.667 -0.0491 -1.2921  0.2173
14497TIP3    H264983   0.806   4.888   0.541 -0.1936 -0.8523  0.4649
14498TIP3   OH264984   6.705   0.655  16.172  0.0213  0.1499  0.2700
14498TIP3    H164985   6.785   0.689  16.131 -0.8913  2.6486  0.3944
14498TIP3    H264986   6.671   0.593  16.108  0.4318  1.4308 -1.2807
14499TIP3   OH264987   5.518   2.287  16.893 -0.1646  0.1936 -0.4650
14499TIP3    H164988   5.507   2.255  16.983  1.9683  0.5958 -0.0166
14499TIP3    H264989   5.453   2.238  16.843 -2.7077  1.2597  1.5430
14500TIP3   OH264990   1.481   6.535   0.695 -0.6020  0.1094 -0.1012
14500TIP3    H164991   1.466   6.463   0.634  0.1516  1.5824 -2.1007
14500TIP3    H264992   1.564   6.513   0.738 -0.8710 -0.6765  0.0327
14501TIP3   OH264993   2.223   3.757  12.516  0.0042  0.0735 -0.4755
14501TIP3    H164994   2.287   3.700  12.473 -1.4874 -2.3196  0.2241
14501TIP3    H264995   2.246   3.753  12.609 -0.0089  0.7798 -0.4384
14502TIP3   OH264996   5.648   3.887  14.519  0.3014 -0.2601  0.3679
14502TIP3    H164997   5.712   3.821  14.546  0.7067  0.5682  1.5604
14502TIP3    H264998   5.566   3.861  14.561  0.1523 -0.6807 -0.1861
14503TIP3   OH264999   0.574   3.762  12.803 -0.2403  0.5752 -0.5331
14503TIP3    H165000   0.545   3.741  12.892 -1.4795 -0.9277 -1.2384
14503TIP3    H265001   0.511   3.716  12.747  1.6799 -0.1598 -2.1679
14504TIP3   OH265002   5.900   3.720   2.529  0.1404  0.1580 -0.1193
14504TIP3    H165003   5.977   3.668   2.553 -1.5173 -1.3855  2.3495
14504TIP3    H265004   5.859   3.670   2.458  0.0883 -0.3699  0.2772
14505TIP3   OH265005   0.942   5.012   0.188 -0.1547  0.4175  0.7267
14505TIP3    H165006   1.008   5.050   0.131 -0.6154  0.9805  0.5575
14505TIP3    H265007   0.921   4.928   0.148 -0.9565  1.0984 -0.3271
14506TIP3   OH265008   0.223   6.000   1.271 -0.1397 -0.1076  0.1685
14506TIP3    H165009   0.219   5.949   1.190  0.0500 -0.6527  0.5033
14506TIP3    H265010   0.237   6.090   1.241  1.1564 -0.4708 -0.3670
14507TIP3   OH265011   6.422   4.395   4.063 -0.1514  0.4868 -0.0752
14507TIP3    H165012   6.508   4.399   4.104 -0.1242 -0.0921 -0.0803
14507TIP3    H265013   6.375   4.470   4.100  0.3531  0.8203 -0.0856
14508TIP3   OH265014   3.760   3.673  14.990 -0.2850  0.7334 -0.2884
14508TIP3    H165015   3.772   3.581  15.014 -0.0712  1.0508  0.8722
14508TIP3    H265016   3.849   3.706  14.975 -0.3682  0.7279 -0.8157
14509TIP3   OH265017   2.974   0.003  15.082  0.1170  0.0246 -0.2123
14509TIP3    H165018   2.951   0.095  15.075 -0.1292 -0.0637 -0.6052
14509TIP3    H265019   2.983  -0.027  14.991 -0.2630 -0.4479 -0.1023
14510TIP3   OH265020   2.501   6.628  13.050  0.2241  0.3123  0.5690
14510TIP3    H165021   2.412   6.658  13.064 -0.0539 -0.7725  1.2416
14510TIP3    H265022   2.555   6.687  13.102 -0.0573  1.1916 -0.1225
14511TIP3   OH265023   6.203   6.638  16.221  0.1961  0.4762  0.4144
14511TIP3    H165024   6.282   6.609  16.175  1.6035  1.0353  2.3655
14511TIP3    H265025   6.164   6.558  16.256 -0.2719  0.1722 -0.7527
14512TIP3   OH265026   3.470   2.307  13.430  0.7512  0.1126  0.2913
14512TIP3    H165027   3.489   2.214  13.434 -0.1778 -0.2370 -1.9963
14512TIP3    H265028   3.375   2.312  13.427  0.8047  0.9004 -2.3807
14513TIP3   OH265029   3.475   4.969   1.682 -0.1581 -0.2518 -0.1911
14513TIP3    H165030   3.390   4.964   1.725  0.2956 -0.2267  0.7258
14513TIP3    H265031   3.507   4.879   1.680  1.0027  0.0310  2.0079
14514TIP3   OH265032   5.487   3.746   3.333 -0.3792 -0.0404 -0.0793
14514TIP3    H165033   5.424   3.758   3.262 -1.0897 -0.5757  0.4444
14514TIP3    H265034   5.566   3.790   3.303 -0.6427 -0.3345 -1.2434
14515TIP3   OH265035   4.530   5.086   4.450 -0.0225  0.2257 -0.5043
14515TIP3    H165036   4.492   5.122   4.530  0.0898 -0.8431  0.0594
14515TIP3    H265037   4.521   4.991   4.460  1.6305 -0.0173 -0.9089
14516TIP3   OH265038   4.228   1.193   1.875  0.3414  0.1720 -0.0982
14516TIP3    H165039   4.293   1.143   1.924  1.1535 -0.7327 -2.0324
14516TIP3    H265040   4.152   1.135   1.869  1.3227 -0.9869 -2.4380
14517TIP3   OH265041   2.989   0.822   0.920 -0.0499 -0.4061 -0.4910
14517TIP3    H165042   2.952   0.910   0.914  2.3129  1.0575  2.9034
14517TIP3    H265043   3.015   0.800   0.830 -2.2679  1.5677 -1.7173
14518TIP3   OH265044   5.695   3.919  13.411  0.2972 -0.0920 -0.1201
14518TIP3    H165045   5.703   3.824  13.398  0.1516  0.0035 -0.9341
14518TIP3    H265046   5.659   3.928  13.499 -0.0789 -0.8048 -0.1978
14519TIP3   OH265047   6.168   6.519   0.617 -0.1671 -0.0392  0.2018
14519TIP3    H165048   6.223   6.483   0.548 -2.4179  0.6583 -2.1397
14519TIP3    H265049   6.227   6.534   0.690  2.2827 -1.2476 -1.4040
14520TIP3   OH265050   3.139   6.245   6.886 -0.6562 -0.6184  0.1436
14520TIP3    H165051   3.172   6.309   6.949 -0.7494 -1.2935  0.8944
14520TIP3    H265052   3.060   6.208   6.927 -2.0351  0.5127 -1.3422
14521TIP3   OH265053   5.908   0.541   0.720  0.0553 -0.2948 -0.1696
14521TIP3    H165054   5.946   0.461   0.757  0.0590  0.1916  0.9136
14521TIP3    H265055   5.850   0.574   0.788  0.7532  1.1113 -0.2176
14522TIP3   OH265056   4.814   2.815  11.119  0.3166  0.1247 -0.3717
14522TIP3    H165057   4.816   2.856  11.206  0.2036  0.3393 -0.4681
14522TIP3    H265058   4.759   2.874  11.067  2.1861  1.2198 -1.2066
14523TIP3   OH265059   2.729   3.930  17.468 -0.8245  0.3152  0.0256
14523TIP3    H165060   2.656   3.888  17.423 -0.5115  0.9933 -1.1428
14523TIP3    H265061   2.802   3.924  17.407  0.4120 -1.2166  1.5554
14524TIP3   OH265062   0.528   0.376  14.621  0.0896 -0.3199 -0.2009
14524TIP3    H165063   0.435   0.357  14.604 -0.2858  1.5308 -0.5222
14524TIP3    H265064   0.536   0.377  14.716 -0.5148  0.6049 -0.1420
14525TIP3   OH265065   0.556   0.086   1.617 -0.5162  0.0701 -0.1905
14525TIP3    H165066   0.631   0.040   1.577 -0.0851  0.1809  0.4734
14525TIP3    H265067   0.557   0.173   1.576  0.8056  0.6890  1.0789
14526TIP3   OH265068   3.084   1.750  12.364 -0.4359 -0.5976  0.1723
14526TIP3    H165069   3.071   1.827  12.309  1.8070 -0.7408 -0.6744
14526TIP3    H265070   3.084   1.783  12.453  1.0768  0.5350 -0.2021
14527TIP3   OH265071   4.668   4.485   3.707  0.1410 -0.6571  0.2969
14527TIP3    H165072   4.684   4.553   3.774 -1.9765  0.9560 -0.7242
14527TIP3    H265073   4.643   4.408   3.757  3.0776 -0.9413  1.5233
14528TIP3   OH265074   1.246   3.170  15.157  0.6871  0.2792  0.4305
14528TIP3    H165075   1.169   3.227  15.154 -0.3161 -1.0428 -0.2591
14528TIP3    H265076   1.242   3.127  15.242  1.1929  0.8645  0.7646
14529TIP3   OH265077   5.385   0.573   0.006  0.3657 -0.6584 -0.4509
14529TIP3    H165078   5.321   0.503   0.021 -0.1028 -0.0670  0.4119
14529TIP3    H265079   5.465   0.541   0.048 -0.5542  0.3830  2.3036
14530TIP3   OH265080   5.575   4.770   3.255 -0.1204 -0.1468 -0.1050
14530TIP3    H165081   5.562   4.824   3.177 -0.3097  0.2119  0.1750
14530TIP3    H265082   5.558   4.681   3.225 -3.2315  0.2425  0.1980
14531TIP3   OH265083   4.165   1.787   2.473  0.8324  0.0702  0.1099
14531TIP3    H165084   4.248   1.815   2.435  0.9736 -0.1745  0.2381
14531TIP3    H265085   4.127   1.867   2.510  1.1655  0.1198  0.3454
14532TIP3   OH265086   2.729   4.139  14.067 -0.1140 -0.3276 -0.4845
14532TIP3    H165087   2.634   4.129  14.065 -0.1695 -0.1291  0.7403
14532TIP3    H265088   2.743   4.232  14.085  0.3737  0.7199 -5.0614
14533TIP3   OH265089   3.374   6.391   3.968  0.4739  0.0582  0.1165
14533TIP3    H165090   3.451   6.443   3.992  1.2024  0.3642 -2.5547
14533TIP3    H265091   3.302   6.454   3.965  0.6295  0.2431  0.2420
14534TIP3   OH265092   4.410   4.743   6.652 -0.1509  0.9373 -0.2839
14534TIP3    H165093   4.482   4.681   6.640 -1.7595 -1.4117  1.2972
14534TIP3    H265094   4.415   4.768   6.745  0.2576  2.9804 -0.8151
14535TIP3   OH265095   0.563   4.301  16.902  0.2431 -0.1109  0.3771
14535TIP3    H165096   0.529   4.219  16.866  0.8923  0.1284 -0.8685
14535TIP3    H265097   0.657   4.285  16.911  0.5860  0.8621 -1.0561
14536TIP3   OH265098   6.298   3.079  13.674  0.4142 -0.5039  0.1159
14536TIP3    H165099   6.338   2.995  13.653 -0.4567 -1.3840  1.8526
14536TIP3    H265100   6.358   3.144  13.636  1.7004 -1.8630 -0.2496
14537TIP3   OH265101   4.364   5.810   2.687 -0.5900 -0.3433  0.1430
14537TIP3    H165102   4.299   5.790   2.619 -1.1752  0.6391  0.3919
14537TIP3    H265103   4.311   5.822   2.767 -0.1548  0.8908  0.2656
14538TIP3   OH265104   1.516   1.680   0.630 -0.5310  0.0451 -0.1291
14538TIP3    H165105   1.582   1.611   0.627 -1.7592 -1.1490 -1.9488
14538TIP3    H265106   1.432   1.633   0.622 -1.4821  1.6428  0.0282
14539TIP3   OH265107   0.125   4.308  17.450 -0.3877 -0.3504  0.0002
14539TIP3    H165108   0.031   4.327  17.446 -0.7064 -1.0213  2.5606
14539TIP3    H265109   0.144   4.301  17.544  2.4911  0.8947 -0.4062
14540TIP3   OH265110   6.351   4.656   2.535 -0.1796 -0.1741 -0.4215
14540TIP3    H165111   6.277   4.617   2.582  0.1187 -0.5332 -0.2422
14540TIP3    H265112   6.336   4.751   2.541 -0.5737 -0.2418 -0.3035
14541TIP3   OH265113   6.095   5.890  15.652  0.0782  0.4062 -0.4315
14541TIP3    H165114   6.121   5.802  15.678  0.6256  0.1466 -1.7688
14541TIP3    H265115   6.025   5.914  15.714  1.4984 -0.0185  1.4277
14542TIP3   OH265116   3.700   1.492   4.465 -0.6282  0.0426 -0.3548
14542TIP3    H165117   3.763   1.560   4.489 -1.6964  1.1346 -0.5218
14542TIP3    H265118   3.635   1.494   4.535 -0.1946 -1.4634  0.1103
14543TIP3   OH265119   4.154   4.908   2.682  0.3707  0.1556  0.3028
14543TIP3    H165120   4.246   4.930   2.665  0.1153 -0.9646 -3.4623
14543TIP3    H265121   4.104   4.980   2.643 -0.3744 -0.2111  0.5548
14544TIP3   OH265122   5.303   5.877   2.367  0.3245 -0.2640  0.4021
14544TIP3    H165123   5.327   5.968   2.351 -0.0333 -0.5807 -2.5454
14544TIP3    H265124   5.208   5.878   2.375  0.2032 -0.4645 -0.7998
14545TIP3   OH265125   0.236   3.024   0.449  0.7745  0.2523  0.2714
14545TIP3    H165126   0.330   3.010   0.457  0.9056  0.5657 -0.6352
14545TIP3    H265127   0.220   3.104   0.499  1.3095  1.2642 -1.1203
14546TIP3   OH265128   6.599   4.084  15.964  0.1732 -0.0379  0.0711
14546TIP3    H165129   6.523   4.099  16.021  0.0751  0.3916 -0.1702
14546TIP3    H265130   6.639   4.170  15.954  1.8387 -0.5448  1.7590
14547TIP3   OH265131   0.800   2.989   6.149  0.0225  0.4203  0.3595
14547TIP3    H165132   0.758   3.054   6.205 -1.6111  0.9051 -1.3364
14547TIP3    H265133   0.793   3.025   6.061 -1.2210 -2.1790 -0.6936
14548TIP3   OH265134   2.930   0.299   3.160 -0.2300  0.7772 -0.6531
14548TIP3    H165135   2.845   0.324   3.195  0.7468  0.8392  1.9288
14548TIP3    H265136   2.916   0.212   3.123 -1.3382  0.5921  0.1488
14549TIP3   OH265137   1.749   3.433  15.512 -0.1966  0.5116 -0.3367
14549TIP3    H165138   1.703   3.507  15.554  0.7412  1.7027 -1.3247
14549TIP3    H265139   1.681   3.389  15.461 -1.2238 -0.5865  1.8363
14550TIP3   OH265140   5.563   3.045  12.702  0.3755  0.3879  0.1360
14550TIP3    H165141   5.586   2.983  12.771  0.1217 -0.6131 -0.6604
14550TIP3    H265142   5.644   3.091  12.682  1.4368 -1.9851 -1.5333
14551TIP3   OH265143   4.945   2.395   1.020 -0.3730  0.2011  0.0461
14551TIP3    H165144   4.939   2.470   0.962  0.0834  0.0259 -0.2331
14551TIP3    H265145   5.008   2.421   1.087 -0.6312  0.2707  0.2635
14552TIP3   OH265146   1.440   1.950   5.873  0.4287  0.0276  0.1458
14552TIP3    H165147   1.488   1.978   5.951 -2.8298  1.2699  1.8915
14552TIP3    H265148   1.411   1.861   5.894  2.4712 -1.0561 -1.2577
14553TIP3   OH265149   3.297   0.118   0.655 -0.7138  0.2531  0.7771
14553TIP3    H165150   3.373   0.063   0.674 -2.1326 -1.5501  1.5499
14553TIP3    H265151   3.321   0.204   0.689  1.6145  0.2219 -0.5425
14554TIP3   OH265152   4.529   5.157   1.842  0.0752 -0.0376  0.4542
14554TIP3    H165153   4.445   5.118   1.820  0.2709  0.0355 -0.4787
14554TIP3    H265154   4.549   5.215   1.768  0.1164  1.3036  1.4954
14555TIP3   OH265155   2.610   1.017  12.974 -0.4777 -0.5303  0.6859
14555TIP3    H165156   2.681   1.080  12.966  1.6486 -2.7761  0.9213
14555TIP3    H265157   2.594   1.011  13.068 -0.3839 -0.6469  0.6949
14556TIP3   OH265158   1.892   0.044   1.986  0.0273  0.6210  1.0091
14556TIP3    H165159   1.801   0.073   1.989  0.2644  1.5216  0.0951
14556TIP3    H265160   1.886  -0.051   1.976 -0.9197  0.9089 -2.3820
14557TIP3   OH265161   6.352   5.328  11.111  0.2227  0.1413 -0.6053
14557TIP3    H165162   6.438   5.364  11.088  1.2293 -1.9900 -0.4010
14557TIP3    H265163   6.295   5.354  11.039  0.9494  1.8224 -0.6210
14558TIP3   OH265164   5.371   3.002   0.013 -0.2514  0.5294  0.2008
14558TIP3    H165165   5.391   3.057   0.088 -0.3209 -0.5430  1.0365
14558TIP3    H265166   5.290   3.039  -0.023 -2.3108 -0.9848  2.8491
14559TIP3   OH265167   6.155   3.278   0.467  0.4902  0.4786  0.6182
14559TIP3    H165168   6.146   3.190   0.431 -0.2135 -0.7402  3.4330
14559TIP3    H265169   6.168   3.334   0.391 -0.2622 -1.8791 -1.3976
14560TIP3   OH265170   0.247   4.909   4.619 -0.4161 -0.4471 -0.1445
14560TIP3    H165171   0.295   4.963   4.556  1.2175 -2.0270 -0.3443
14560TIP3    H265172   0.223   4.970   4.689  2.1262  0.4334  0.0749
14561TIP3   OH265173   3.725   3.436  15.880 -0.1413 -0.4851 -0.6651
14561TIP3    H165174   3.706   3.444  15.973  0.9993  0.5416 -0.4883
14561TIP3    H265175   3.782   3.359  15.874 -2.1919 -2.0672 -0.8811
14562TIP3   OH265176   5.064   2.080  15.697  0.0864 -0.0844 -0.1606
14562TIP3    H165177   5.071   2.146  15.628 -1.9827  0.5729  0.1705
14562TIP3    H265178   5.030   2.003  15.653  0.4439 -0.2364 -0.1728
14563TIP3   OH265179   3.234   0.327   0.857  0.1055  0.5211 -0.2333
14563TIP3    H165180   3.174   0.339   0.783 -0.5998 -1.2513  0.0179
14563TIP3    H265181   3.229   0.410   0.906 -3.0410  0.0386  0.4144
14564TIP3   OH265182   1.499   1.433  15.292  0.5520 -1.0052  0.1502
14564TIP3    H165183   1.511   1.350  15.245  2.2858 -0.5261 -0.3452
14564TIP3    H265184   1.557   1.494  15.247 -1.2400  0.6977  0.0537
14565TIP3   OH265185   4.409   5.784  12.624 -0.2038  0.6500  0.3897
14565TIP3    H165186   4.316   5.770  12.645 -0.4697 -1.4954 -1.7622
14565TIP3    H265187   4.408   5.820  12.536  1.0167  0.2861  0.2194
14566TIP3   OH265188   3.879   6.326  15.974 -0.1999 -0.4590  0.1715
14566TIP3    H165189   3.956   6.279  16.007 -0.2869 -0.4111  0.4494
14566TIP3    H265190   3.826   6.342  16.052  0.6451  1.6473  0.3831
14567TIP3   OH265191   6.071   1.850   2.744 -0.2209  0.1456  0.5957
14567TIP3    H165192   6.062   1.791   2.669  0.0321  0.9083 -0.0369
14567TIP3    H265193   6.049   1.936   2.711  0.1890  0.5443  1.3266
14568TIP3   OH265194   2.413   0.657   0.553 -0.3540 -0.0959 -0.0340
14568TIP3    H165195   2.375   0.737   0.518  1.0332  0.6955  0.2157
14568TIP3    H265196   2.366   0.642   0.635  0.4002  1.3364  0.6913
14569TIP3   OH265197   4.012   4.943  13.942  0.0675  0.3520  0.5983
14569TIP3    H165198   3.990   4.868  13.996 -0.0881 -0.5908 -0.7219
14569TIP3    H265199   3.933   4.996  13.939 -0.1282  0.0663  0.7402
14570TIP3   OH265200   1.758   1.709  17.141 -0.3087 -0.1785 -0.0802
14570TIP3    H165201   1.852   1.695  17.133 -0.5242 -1.3642 -0.9031
14570TIP3    H265202   1.747   1.759  17.221  1.0564  0.4023 -0.2336
14571TIP3   OH265203   6.343   0.189  15.354 -0.4832  0.2367 -0.0333
14571TIP3    H165204   6.436   0.199  15.331 -0.5081 -1.6070 -1.0374
14571TIP3    H265205   6.332   0.248  15.429  1.6997 -0.1195  0.6468
14572TIP3   OH265206   4.999   5.230  13.282  0.3382  0.3917  0.2582
14572TIP3    H165207   5.083   5.258  13.246 -0.2237  1.3032 -0.3951
14572TIP3    H265208   4.954   5.311  13.305 -0.0851 -0.1066  1.2888
14573TIP3   OH265209   3.383   5.386  16.997  0.1952 -0.7022 -0.4571
14573TIP3    H165210   3.312   5.423  16.943 -0.5917 -0.2108  0.8778
14573TIP3    H265211   3.347   5.306  17.033  0.0259 -0.0689  0.8305
14574TIP3   OH265212   0.719   2.096   4.777 -0.1775  0.3877  0.2080
14574TIP3    H165213   0.679   2.163   4.722 -0.1740 -1.5465 -2.3591
14574TIP3    H265214   0.813   2.106   4.761 -0.2300 -0.9466 -1.2569
14575TIP3   OH265215   6.590   5.436   4.224 -0.0593  0.1481  0.8913
14575TIP3    H165216   6.511   5.480   4.258 -0.4137  1.0652 -0.9739
14575TIP3    H265217   6.646   5.425   4.301 -1.4324  0.7148  2.0296
14576TIP3   OH265218   1.127   2.762   3.641 -0.7040  0.5653 -1.2570
14576TIP3    H165219   1.183   2.839   3.647 -0.4402  0.4131 -1.7599
14576TIP3    H265220   1.043   2.797   3.611  0.1385  0.3614 -4.1121
14577TIP3   OH265221   0.469   3.294   1.126  0.0663  0.2770 -0.5704
14577TIP3    H165222   0.503   3.360   1.066  1.3196  1.5884  1.4776
14577TIP3    H265223   0.374   3.299   1.115  0.2311  1.0632 -1.8211
14578TIP3   OH265224   0.518   5.158   5.544  0.1737  0.0044  0.9045
14578TIP3    H165225   0.549   5.188   5.458 -1.0248  0.5801  0.6437
14578TIP3    H265226   0.594   5.115   5.584  0.6142 -0.7431 -0.6529
14579TIP3   OH265227   3.866   0.213  15.716  0.0822  0.4656  0.4126
14579TIP3    H165228   3.887   0.129  15.757  0.0823 -0.7619 -1.9143
14579TIP3    H265229   3.771   0.213  15.707  0.2024 -0.1721 -1.2250
14580TIP3   OH265230   4.993   1.244   1.257 -0.6111  0.1945  0.1913
14580TIP3    H165231   4.966   1.152   1.257  0.5353 -0.1591 -0.0983
14580TIP3    H265232   4.913   1.293   1.240 -1.4551 -0.6737  1.4726
14581TIP3   OH265233   3.307   6.281  16.417 -0.3405 -0.4771 -0.1445
14581TIP3    H165234   3.273   6.366  16.446 -2.6949  0.0422 -3.7070
14581TIP3    H265235   3.402   6.293  16.414 -0.5660  1.8158  0.1194
14582TIP3   OH265236   1.195   1.744  13.299  0.1500  0.5279 -0.3552
14582TIP3    H165237   1.286   1.714  13.303 -0.1414 -0.4005  3.0896
14582TIP3    H265238   1.144   1.665  13.279 -0.0642  0.2658  1.0804
14583TIP3   OH265239   1.693   4.159   2.069  0.8549  0.3033  0.5758
14583TIP3    H165240   1.662   4.248   2.048 -1.5162 -0.6958 -0.5013
14583TIP3    H265241   1.764   4.144   2.007  1.6553  1.6217  1.1253
14584TIP3   OH265242   2.015   3.033  13.378 -0.0773  0.1416 -0.0332
14584TIP3    H165243   2.020   3.013  13.471 -0.9305 -3.0116 -0.5603
14584TIP3    H265244   1.923   3.018  13.355  0.4874 -0.9815 -1.7182
14585TIP3   OH265245   0.633   6.356   1.362 -0.7237 -0.4350 -0.5977
14585TIP3    H165246   0.679   6.276   1.340 -0.8077 -0.2476 -1.4973
14585TIP3    H265247   0.577   6.373   1.286  0.4947  1.3557 -1.1402
14586TIP3   OH265248   4.518   0.473  17.250 -0.2321 -0.9149  0.2561
14586TIP3    H165249   4.441   0.525  17.228 -1.0491 -2.1452  0.0897
14586TIP3    H265250   4.558   0.453  17.165  1.0637  0.8127  0.3997
14587TIP3   OH265251   1.786   1.159   5.291 -0.0364 -0.1749 -0.2273
14587TIP3    H165252   1.870   1.189   5.257  0.3019  0.6795  1.2578
14587TIP3    H265253   1.740   1.239   5.315 -0.2663 -0.7170  1.2377
14588TIP3   OH265254   0.373   2.933  12.259 -0.2089  0.3590 -0.3428
14588TIP3    H165255   0.466   2.915  12.273 -0.1567 -0.3090 -1.3821
14588TIP3    H265256   0.332   2.919  12.344  0.3985 -1.1145 -0.2582
14589TIP3   OH265257   1.813   6.109  13.427  0.3304  0.6249 -0.0454
14589TIP3    H165258   1.889   6.052  13.418  0.2373  0.2855  1.2082
14589TIP3    H265259   1.769   6.104  13.342  0.6797 -0.6440 -0.1671
14590TIP3   OH265260   6.207   4.421   2.804 -0.1868  0.7617 -0.3988
14590TIP3    H165261   6.300   4.433   2.823 -0.0799 -3.0345  2.4862
14590TIP3    H265262   6.162   4.488   2.856  0.8169  0.1976  1.2292
14591TIP3   OH265263   1.618   0.752   1.295  0.1149  0.9920 -0.4929
14591TIP3    H165264   1.629   0.672   1.347  0.4940  1.0155 -0.5306
14591TIP3    H265265   1.531   0.743   1.256 -0.0006  0.7756 -0.1961
14592TIP3   OH265266   5.045   4.989   3.636 -0.3062  0.0687 -0.9144
14592TIP3    H165267   5.022   4.906   3.679  0.0850 -0.1327 -1.0936
14592TIP3    H265268   5.140   4.990   3.635 -0.2881  0.9651 -0.0676
14593TIP3   OH265269   5.013   2.466   0.608 -0.1385  0.3835  0.8645
14593TIP3    H165270   4.953   2.474   0.533  0.1825  1.0216  0.6638
14593TIP3    H265271   4.976   2.525   0.674  0.4666  1.0665  0.6008
14594TIP3   OH265272   2.540   0.894  12.141 -0.0703  0.0944 -0.5394
14594TIP3    H165273   2.445   0.893  12.157 -0.2109 -1.5156 -1.1956
14594TIP3    H265274   2.553   0.825  12.076  1.7744 -1.0122  0.9170
14595TIP3   OH265275   5.473   6.762   3.127 -0.1855  0.2881 -0.7591
14595TIP3    H165276   5.383   6.731   3.118  0.0074 -1.7935  2.7799
14595TIP3    H265277   5.470   6.821   3.203  0.8027  3.6869 -3.1205
14596TIP3   OH265278   5.261   4.687   2.525 -0.5344  0.2875  0.7152
14596TIP3    H165279   5.231   4.777   2.524 -0.6323  0.3025  2.1229
14596TIP3    H265280   5.182   4.635   2.541 -0.2580  0.0877  1.4816
14597TIP3   OH265281   0.859   0.152  17.089  0.0253  0.2381  0.4656
14597TIP3    H165282   0.864   0.085  17.156  0.8007 -2.7053 -2.2755
14597TIP3    H265283   0.771   0.143  17.053 -0.0295  1.0593  0.3743
14598TIP3   OH265284   4.399   2.976   1.414 -0.4208 -0.9292 -0.4627
14598TIP3    H165285   4.396   3.068   1.441 -0.8845 -0.7519 -1.0868
14598TIP3    H265286   4.449   2.977   1.332  1.2975 -1.5072  0.5137
14599TIP3   OH265287   4.358   0.454   5.789 -0.1423  0.0203 -0.4142
14599TIP3    H165288   4.441   0.456   5.742  2.3882  0.1256  3.5462
14599TIP3    H265289   4.331   0.545   5.796  2.0114  0.5963  2.0447
14600TIP3   OH265290   0.739   0.688  16.464 -0.5461 -0.5506  0.2276
14600TIP3    H165291   0.803   0.708  16.396 -2.2100 -0.4798 -1.3986
14600TIP3    H265292   0.779   0.719  16.545  1.5057 -0.6417 -0.6972
14601TIP3   OH265293   6.766   6.620   6.311  0.4908 -0.2604  0.5656
14601TIP3    H165294   6.774   6.672   6.231  0.1681 -0.3171  0.4935
14601TIP3    H265295   6.686   6.651   6.352 -0.9954 -2.2346 -0.6252
14602TIP3   OH265296   6.536   6.395   3.412  0.3019 -0.7845 -0.5417
14602TIP3    H165297   6.505   6.486   3.421  1.1841 -0.4689 -0.5849
14602TIP3    H265298   6.566   6.390   3.321  2.1411 -0.4931  0.0074
14603TIP3   OH265299   2.627   0.110  12.589  0.2683 -0.1196  0.4433
14603TIP3    H165300   2.612   0.096  12.682 -1.4660  0.6864  0.3229
14603TIP3    H265301   2.722   0.100  12.578  0.8024  1.7545  2.6405
14604TIP3   OH265302   2.460   6.626   4.358 -0.1822 -0.4578  0.2127
14604TIP3    H165303   2.392   6.656   4.298 -0.4717  0.3918  0.9441
14604TIP3    H265304   2.539   6.621   4.304 -0.7102 -0.9880 -0.5323
14605TIP3   OH265305   5.462   3.769  15.919  0.3626  0.0469  0.4482
14605TIP3    H165306   5.383   3.717  15.905  1.9263 -2.4007  0.0947
14605TIP3    H265307   5.459   3.792  16.012 -1.3470  1.1073  0.1721
14606TIP3   OH265308   1.148   3.339  15.442  0.6632 -0.0693  0.3678
14606TIP3    H165309   1.082   3.406  15.461 -0.6207 -1.7486  2.1565
14606TIP3    H265310   1.228   3.373  15.482  0.1851  0.6741  0.7150
14607TIP3   OH265311   2.241   4.296  12.825  0.1665  0.1084 -0.4564
14607TIP3    H165312   2.228   4.322  12.916 -1.3218 -0.0465 -0.5970
14607TIP3    H265313   2.312   4.231  12.829 -1.6668 -1.9969  1.0178
14608TIP3   OH265314   4.973   2.183  14.045 -0.0761  0.0071  0.1879
14608TIP3    H165315   4.926   2.130  13.981 -0.1491 -0.1780  0.3939
14608TIP3    H265316   5.022   2.119  14.098  0.5118  0.2035 -0.1091
14609TIP3   OH265317   0.476   5.912   4.386  0.1808 -0.1394  0.2648
14609TIP3    H165318   0.475   5.833   4.440  0.3846  0.2961  0.9029
14609TIP3    H265319   0.525   5.976   4.436 -1.5720  1.0033  0.6227
14610TIP3   OH265320   4.909   3.813  14.004  0.2950  0.1871 -0.8567
14610TIP3    H165321   4.828   3.864  13.999  0.1916  0.3584  1.3667
14610TIP3    H265322   4.945   3.835  14.091  2.2409 -0.5966 -1.4175
14611TIP3   OH265323   0.728   4.021   2.623 -0.5187 -0.1674  0.2967
14611TIP3    H165324   0.675   4.072   2.562 -1.3785 -0.5523  0.7024
14611TIP3    H265325   0.766   3.951   2.569  0.2104  0.5573 -0.1465
14612TIP3   OH265326   5.491   5.388  16.608 -0.6851  0.3971 -0.1222
14612TIP3    H165327   5.409   5.387  16.560 -0.2721  0.9904 -0.8680
14612TIP3    H265328   5.486   5.466  16.664 -1.0734 -0.1725  0.6662
14613TIP3   OH265329   0.817   5.197  13.772  0.2435 -0.0112  0.7437
14613TIP3    H165330   0.842   5.131  13.706 -0.0785  1.1999 -0.6440
14613TIP3    H265331   0.898   5.244  13.791  0.3969 -0.5485  1.4575
14614TIP3   OH265332   2.172   1.949   0.282 -0.4955 -0.8503 -0.0928
14614TIP3    H165333   2.089   1.971   0.324  0.3367 -1.6506  2.1239
14614TIP3    H265334   2.230   1.926   0.354  1.8094  0.0680 -1.5276
14615TIP3   OH265335   4.084   6.560   4.989 -0.3950  0.4240 -0.6381
14615TIP3    H165336   3.999   6.516   4.994  0.6860 -2.2758 -2.8262
14615TIP3    H265337   4.085   6.600   4.902  0.6449  0.1438 -0.7674
14616TIP3   OH265338   0.018   1.168  11.551 -0.0458 -0.0151  0.1893
14616TIP3    H165339  -0.003   1.103  11.618 -2.5790  0.8089  0.3198
14616TIP3    H265340   0.006   1.121  11.468 -0.2818 -0.1510  0.2985
14617TIP3   OH265341   6.447   5.710   4.641  0.3200  0.7123 -0.5285
14617TIP3    H165342   6.516   5.688   4.703 -0.2297  1.1478  0.2454
14617TIP3    H265343   6.491   5.766   4.576  0.7327  0.8494 -0.1377
14618TIP3   OH265344   6.613   3.849   0.515  0.0962  1.0039 -0.1729
14618TIP3    H165345   6.655   3.763   0.516  0.9559  1.4134  1.0076
14618TIP3    H265346   6.546   3.842   0.447  0.6574 -0.3500 -0.6197
14619TIP3   OH265347   0.395   4.075  13.600  0.0919  0.0542  0.4378
14619TIP3    H165348   0.376   4.169  13.590 -1.4888 -0.2500  0.2659
14619TIP3    H265349   0.479   4.063  13.557 -0.7636  1.0013 -1.6331
14620TIP3   OH265350   6.003   0.397   1.873  0.4887  0.8738 -0.4240
14620TIP3    H165351   5.939   0.466   1.895 -0.1791 -0.0251  0.5760
14620TIP3    H265352   5.978   0.368   1.786 -2.9371 -1.9748  1.2223
14621TIP3   OH265353   6.263   2.664  14.366  0.8056  0.1669  0.0470
14621TIP3    H165354   6.190   2.663  14.304  0.5812  0.0436  0.3086
14621TIP3    H265355   6.282   2.756  14.381  0.8329  0.1969 -0.1722
14622TIP3   OH265356   1.189   2.199  16.053  0.1212 -0.0034 -0.6109
14622TIP3    H165357   1.107   2.169  16.014  0.2257  0.1901 -0.9862
14622TIP3    H265358   1.244   2.120  16.057  1.2774  0.4891 -3.7826
14623TIP3   OH265359   1.314   0.483  12.255  0.1344  0.3468 -0.0731
14623TIP3    H165360   1.388   0.544  12.255  1.0561 -0.7559  0.2507
14623TIP3    H265361   1.245   0.529  12.304  0.8433  1.0744  0.2609
14624TIP3   OH265362   1.474   0.973   0.933 -0.5767  0.3686 -0.3093
14624TIP3    H165363   1.557   0.925   0.934 -1.2211 -0.8085  1.4322
14624TIP3    H265364   1.483   1.038   1.003 -2.2847 -2.0843  2.4490
14625TIP3   OH265365   2.209   1.075  15.750 -0.2964 -0.0369  0.0048
14625TIP3    H165366   2.195   0.999  15.806 -1.5673 -0.6669 -1.1314
14625TIP3    H265367   2.186   1.150  15.805 -0.9675 -0.6035  0.5005
14626TIP3   OH265368   1.215   3.682   2.339  0.1485 -0.0595  0.8386
14626TIP3    H165369   1.173   3.711   2.420 -0.4482 -3.5152  1.9787
14626TIP3    H265370   1.161   3.719   2.269 -1.2301  0.4423  2.1227
14627TIP3   OH265371   3.357   1.587  17.395 -0.0990  0.9606 -0.1352
14627TIP3    H165372   3.286   1.637  17.433  1.2171  1.9251  1.1847
14627TIP3    H265373   3.374   1.517  17.459 -1.9952 -1.3960 -2.0017
14628TIP3   OH265374   0.157   6.664   1.039  0.2459 -0.2290  0.1793
14628TIP3    H165375   0.210   6.688   0.964 -1.2276 -0.1487 -0.8855
14628TIP3    H265376   0.091   6.734   1.045  0.3728 -0.1960  1.6000
14629TIP3   OH265377   1.254   5.357   1.667  0.1230 -0.6040  0.4537
14629TIP3    H165378   1.218   5.302   1.736  1.5286 -1.5636  0.4727
14629TIP3    H265379   1.343   5.323   1.653  0.2276  0.2112 -1.1192
14630TIP3   OH265380   6.677   1.118   4.142  0.1527  0.2696 -0.2052
14630TIP3    H165381   6.589   1.098   4.172  0.6743  1.2583  2.1766
14630TIP3    H265382   6.729   1.042   4.167  0.1904  0.1176 -0.7201
14631TIP3   OH265383   1.264   3.191  14.560 -0.3348  0.1582  0.5190
14631TIP3    H165384   1.345   3.183  14.509 -1.5592  1.0043 -1.6878
14631TIP3    H265385   1.267   3.281  14.594 -0.3242  0.1877  0.4423
14632TIP3   OH265386   0.886   3.057  10.750 -0.2197 -0.3545  0.4509
14632TIP3    H165387   0.813   3.119  10.758  0.0185 -0.1088  0.7483
14632TIP3    H265388   0.877   3.001  10.827 -0.6337 -0.9148  0.0109
14633TIP3   OH265389   0.139   1.193   0.345 -0.2714  0.6753 -1.0276
14633TIP3    H165390   0.107   1.189   0.435 -0.1022 -1.5929 -1.0165
14633TIP3    H265391   0.089   1.126   0.299  0.4889  0.9798 -2.3354
14634TIP3   OH265392   1.770   5.127   5.610  0.1828  0.4538  0.2237
14634TIP3    H165393   1.759   5.195   5.676 -1.9034  0.3264  0.0746
14634TIP3    H265394   1.864   5.107   5.612  0.2984  0.8663  2.7150
14635TIP3   OH265395   2.347   6.546   5.765 -0.0056 -0.4572 -0.2763
14635TIP3    H165396   2.438   6.541   5.793 -0.1126  0.4191  0.3055
14635TIP3    H265397   2.299   6.492   5.828 -0.0435  0.2220  0.3053
14636TIP3   OH265398   0.111   4.988  14.578  0.1345  0.1444  0.0747
14636TIP3    H165399   0.200   5.021  14.573 -0.1661  1.1580  0.9780
14636TIP3    H265400   0.056   5.065  14.566 -0.6071 -0.2419  0.8715
14637TIP3   OH265401   4.621   4.557   1.723 -0.3885  0.0877 -0.1375
14637TIP3    H165402   4.561   4.612   1.673 -0.6878  0.0868  0.2152
14637TIP3    H265403   4.671   4.509   1.657 -0.4625  0.4220 -0.4408
14638TIP3   OH265404   4.025   5.786   3.415  0.5908  0.4026 -0.0858
14638TIP3    H165405   4.009   5.880   3.427  0.4455  0.2570  0.9287
14638TIP3    H265406   4.110   5.770   3.458  0.2079 -0.0794  0.5091
14639TIP3   OH265407   5.565   3.912  16.759 -0.6443  0.3609  0.1888
14639TIP3    H165408   5.584   3.890  16.850  0.5206 -1.6341 -0.4823
14639TIP3    H265409   5.557   3.828  16.715 -2.1569  1.2684 -1.3968
14640TIP3   OH265410   4.275   5.676  16.156 -0.5532  0.6355 -0.6405
14640TIP3    H165411   4.352   5.644  16.203 -1.3291  0.0232  0.2636
14640TIP3    H265412   4.296   5.664  16.063 -0.5543 -1.9638 -0.3624
14641TIP3   OH265413   0.338   4.862  11.612  0.3142  0.5544 -0.0385
14641TIP3    H165414   0.426   4.825  11.603  0.1087  0.2113 -0.6137
14641TIP3    H265415   0.354   4.954  11.636  0.8183  0.2714  0.7783
14642TIP3   OH265416   2.838   3.746  12.069 -0.0300  0.7659 -0.3175
14642TIP3    H165417   2.908   3.694  12.029 -1.3244 -2.4594  1.2677
14642TIP3    H265418   2.777   3.764  11.997  0.1398 -0.5372 -0.8213
14643TIP3   OH265419   2.411   1.668   4.478 -0.0001  0.0306  0.0394
14643TIP3    H165420   2.496   1.650   4.518  0.1700  2.2510  0.8179
14643TIP3    H265421   2.348   1.662   4.550 -0.3724 -0.5870 -0.3265
14644TIP3   OH265422   0.231   6.109   0.708  0.5398 -0.1302  0.0949
14644TIP3    H165423   0.228   6.084   0.616  0.5490 -0.3031  0.1413
14644TIP3    H265424   0.141   6.137   0.728  0.4825 -0.3151  0.0952
14645TIP3   OH265425   4.870   6.596   0.811 -0.3730 -0.1503 -0.1439
14645TIP3    H165426   4.894   6.504   0.811 -1.0254 -0.3621  1.6501
14645TIP3    H265427   4.933   6.638   0.871 -0.7452  0.3600 -0.0998
14646TIP3   OH265428   0.355   4.536  13.627 -0.5955 -0.1052  0.1013
14646TIP3    H165429   0.370   4.631  13.626 -1.4039  0.0317 -0.5976
14646TIP3    H265430   0.260   4.527  13.623 -0.6119 -0.9494  1.7114
14647TIP3   OH265431   1.793   2.554   5.384 -0.3280 -0.0881  0.6798
14647TIP3    H165432   1.808   2.491   5.454 -0.7692 -1.4917 -0.4446
14647TIP3    H265433   1.763   2.633   5.429 -0.0185 -0.7517  2.1053
14648TIP3   OH265434   0.109   0.874   1.192 -0.1707  0.0456 -0.3866
14648TIP3    H165435   0.026   0.869   1.145  0.1080  0.0748 -0.8860
14648TIP3    H265436   0.165   0.928   1.137  0.7528 -1.4147 -0.9484
14649TIP3   OH265437   2.262   5.459  14.367  0.3771 -0.3370 -0.0582
14649TIP3    H165438   2.324   5.530  14.385  0.3237 -0.9423  3.0229
14649TIP3    H265439   2.184   5.483  14.418 -0.7111 -1.2164 -1.2625
14650TIP3   OH265440   3.463   3.681  14.106 -0.0473  0.2685  0.2361
14650TIP3    H165441   3.433   3.759  14.059  0.0211  0.7246  0.9411
14650TIP3    H265442   3.542   3.710  14.152 -1.6546  0.6676  2.9594
14651TIP3   OH265443   4.463   0.369  15.759  0.3626 -0.4778 -0.0787
14651TIP3    H165444   4.534   0.343  15.817 -0.5949 -2.8173  0.1481
14651TIP3    H265445   4.478   0.320  15.678 -1.1221 -1.2589  0.0802
14652TIP3   OH265446   5.085   6.006  13.854  0.5400 -0.0869 -0.0186
14652TIP3    H165447   5.158   6.043  13.804  1.2068 -2.6397 -1.1186
14652TIP3    H265448   5.027   6.080  13.871  1.5441  1.3807 -2.4177
14653TIP3   OH265449   5.583   2.724   5.190 -0.4969 -0.1183 -0.7094
14653TIP3    H165450   5.658   2.745   5.246 -0.4941  1.8604 -1.3930
14653TIP3    H265451   5.577   2.628   5.193  0.0479 -0.1482  1.9405
14654TIP3   OH265452   1.195   2.057   3.246 -0.0314 -0.2347  0.3820
14654TIP3    H165453   1.234   2.085   3.163 -0.7804  1.1100  0.4525
14654TIP3    H265454   1.127   1.994   3.220  0.8906 -1.1639  0.1337
14655TIP3   OH265455   1.334   3.206  13.783 -0.1032 -0.1859  0.0259
14655TIP3    H165456   1.327   3.234  13.692 -1.0426  1.7426  0.6380
14655TIP3    H265457   1.345   3.288  13.832 -0.3092 -1.1248  1.7109
14656TIP3   OH265458   5.260   6.520  12.377  0.2280  0.2124  0.2199
14656TIP3    H165459   5.181   6.519  12.431 -0.3634 -0.0005 -0.6179
14656TIP3    H265460   5.265   6.431  12.340  1.3528 -0.0432  0.9437
14657TIP3   OH265461   1.487   3.603  15.927 -0.0847  0.4557 -0.1733
14657TIP3    H165462   1.439   3.588  16.009 -0.5892  1.7091 -0.2233
14657TIP3    H265463   1.441   3.549  15.863 -1.1166  1.2164 -0.0984
14658TIP3   OH265464   5.892   5.777  13.533  0.3197  0.3905 -0.0685
14658TIP3    H165465   5.944   5.743  13.460  0.4923 -0.0560  0.2574
14658TIP3    H265466   5.931   5.862  13.552  1.3757 -0.2167  0.6067
14659TIP3   OH265467   4.537   4.628  15.870 -0.8819  0.2058  0.3288
14659TIP3    H165468   4.628   4.625  15.843 -0.5546  4.0292  0.4608
14659TIP3    H265469   4.534   4.578  15.952  0.9887 -0.2326  0.1627
14660TIP3   OH265470   5.616   2.618   6.143 -0.1416 -0.3977 -0.4531
14660TIP3    H165471   5.588   2.592   6.231 -1.8951  1.9963 -0.2096
14660TIP3    H265472   5.680   2.688   6.157 -0.1777 -0.2353 -1.0736
14661TIP3   OH265473   1.658   0.810   6.285  0.8572 -0.1591  0.7477
14661TIP3    H165474   1.686   0.754   6.213 -0.3463 -1.9383  1.5612
14661TIP3    H265475   1.731   0.869   6.301  1.5924 -0.5037 -1.1399
14662TIP3   OH265476   1.801   4.832   3.576 -0.2725 -0.2804  0.4118
14662TIP3    H165477   1.820   4.874   3.492 -0.4816 -4.3552 -1.9153
14662TIP3    H265478   1.883   4.791   3.602 -1.0705 -2.0276  0.2910
14663TIP3   OH265479   6.762   0.759  13.127 -0.4827 -0.2343  0.7457
14663TIP3    H165480   6.782   0.823  13.195  0.3620 -0.3741  0.6390
14663TIP3    H265481   6.771   0.674  13.171 -1.9930 -0.2914  0.9951
14664TIP3   OH265482   3.167   6.381  11.834  0.0822 -0.6646 -0.1579
14664TIP3    H165483   3.216   6.299  11.835 -0.5935 -1.0877  1.1424
14664TIP3    H265484   3.081   6.358  11.870 -0.7558  0.2562 -1.4722
14665TIP3   OH265485   1.120   0.884  16.611  0.6800  0.1170  0.1075
14665TIP3    H165486   1.144   0.821  16.679  2.4162 -0.4092 -0.9260
14665TIP3    H265487   1.024   0.882  16.610  0.6570 -2.1620  0.4614
14666TIP3   OH265488   6.217   1.731   5.844  0.1796  0.4877 -0.4634
14666TIP3    H165489   6.231   1.812   5.892  0.1512 -0.7747  1.7951
14666TIP3    H265490   6.122   1.721   5.842  0.2151 -0.1578  0.5001
14667TIP3   OH265491   6.698   2.134  14.978 -0.2868  0.6263  0.1419
14667TIP3    H165492   6.683   2.141  15.072 -1.0117  3.2046 -0.0928
14667TIP3    H265493   6.650   2.055  14.952 -0.1676 -0.0679  1.8877
14668TIP3   OH265494   0.096   4.203   0.673  0.6864 -0.0995 -0.5399
14668TIP3    H165495   0.080   4.132   0.736  1.8792  0.1205  0.0512
14668TIP3    H265496   0.042   4.181   0.598 -3.2899  1.2397  1.6519
14669TIP3   OH265497   4.885   0.397   5.631 -0.2990  0.2155  0.4332
14669TIP3    H165498   4.895   0.402   5.726  1.4049 -0.2485  0.3193
14669TIP3    H265499   4.876   0.488   5.603 -3.2706  0.2511  1.1958
14670TIP3   OH265500   3.629   1.587   4.212  0.0664  0.0174 -0.1089
14670TIP3    H165501   3.654   1.555   4.299 -0.1027  1.3110  0.4401
14670TIP3    H265502   3.712   1.601   4.166  0.2143  0.6112  0.3303
14671TIP3   OH265503   5.537   6.321   5.107 -0.5127 -0.1215 -0.1657
14671TIP3    H165504   5.614   6.353   5.060 -1.3105  1.9206 -0.2081
14671TIP3    H265505   5.570   6.292   5.191  0.3793  0.2392 -0.3747
14672TIP3   OH265506   2.825   2.354   3.021  0.9199 -0.4498  0.5867
14672TIP3    H165507   2.871   2.298   2.959  0.8698 -1.4452  1.4192
14672TIP3    H265508   2.891   2.418   3.049  1.0574 -0.2607 -0.1594
14673TIP3   OH265509   4.004   1.202   2.557  0.1132 -0.5081 -0.1701
14673TIP3    H165510   3.934   1.220   2.494  1.3102 -2.8633 -2.3548
14673TIP3    H265511   3.978   1.120   2.599  0.6949 -0.4402  0.3426
14674TIP3   OH265512   4.710   3.157  15.479 -0.3780  0.2413 -0.1617
14674TIP3    H165513   4.710   3.202  15.394  0.6851  1.4119  0.4244
14674TIP3    H265514   4.618   3.135  15.494 -0.6071  0.1538 -1.5327
14675TIP3   OH265515   1.837   5.184  17.472 -0.1959 -0.3144 -0.0920
14675TIP3    H165516   1.868   5.262  17.426 -1.1971 -0.7520 -1.5746
14675TIP3    H265517   1.868   5.111  17.418  0.1813 -0.9283  0.9351
14676TIP3   OH265518   4.767   1.209   4.769  0.2061 -0.0403  0.0251
14676TIP3    H165519   4.844   1.236   4.719  0.7657  1.1444  1.4594
14676TIP3    H265520   4.693   1.227   4.711  0.7015  2.8160  0.1275
14677TIP3   OH265521   2.389   6.012   3.731 -0.0821  0.4427  0.0135
14677TIP3    H165522   2.452   5.942   3.750  1.1609  0.7856 -2.4298
14677TIP3    H265523   2.436   6.070   3.671 -2.4561  1.1489 -1.2759
14678TIP3   OH265524   0.158   1.596  13.602 -0.8553 -1.4779 -0.1829
14678TIP3    H165525   0.065   1.587  13.582 -0.5989 -0.6769 -1.9139
14678TIP3    H265526   0.193   1.650  13.531  0.9321 -1.7495  0.4342
14679TIP3   OH265527   2.324   3.139   4.171 -0.3599 -0.2622  0.2396
14679TIP3    H165528   2.366   3.200   4.231  0.5602 -0.2870 -0.3695
14679TIP3    H265529   2.234   3.130   4.204  0.4776 -1.3258  2.4108
14680TIP3   OH265530   1.650   1.370   3.154  0.3550  0.2461 -0.0847
14680TIP3    H165531   1.595   1.293   3.169 -0.0580  0.8575  1.7465
14680TIP3    H265532   1.604   1.419   3.087 -0.5951  0.0334  0.3924
14681TIP3   OH265533   4.175   1.941  11.579 -0.3011  0.3452  0.3046
14681TIP3    H165534   4.148   1.975  11.665 -0.1041 -0.1560  0.5662
14681TIP3    H265535   4.196   2.020  11.529  1.0600  0.6069  1.2079
14682TIP3   OH265536   2.917   5.242  17.273 -0.2420  0.4548  0.0037
14682TIP3    H165537   2.992   5.279  17.229  1.7560  0.0232  2.7418
14682TIP3    H265538   2.869   5.317  17.308  0.4783  0.6631  0.5580
14683TIP3   OH265539   5.230   1.438   2.384 -0.5521 -0.0513 -0.1866
14683TIP3    H165540   5.160   1.501   2.400 -0.0687  0.5929 -0.5420
14683TIP3    H265541   5.269   1.466   2.301  1.4303  0.8637  0.9696
14684TIP3   OH265542   0.947   6.555  10.862 -0.7417 -0.6679  0.2698
14684TIP3    H165543   0.896   6.514  10.792 -0.1258  0.2189 -0.7373
14684TIP3    H265544   0.984   6.634  10.821 -0.1080 -0.2949  1.5149
14685TIP3   OH265545   0.763   6.348  11.773 -0.6897 -0.2015 -0.1277
14685TIP3    H165546   0.737   6.410  11.705  1.2504  1.1944  0.3138
14685TIP3    H265547   0.695   6.356  11.840 -2.6896 -1.6762 -1.8570
14686TIP3   OH265548   2.880   1.678   4.304 -0.0759  0.1791  0.3406
14686TIP3    H165549   2.830   1.644   4.378 -1.9186 -0.6064 -1.1864
14686TIP3    H265550   2.944   1.738   4.343  1.5776 -2.9783  2.9158
14687TIP3   OH265551   6.600   0.393   2.351  0.1370 -0.0761  0.1877
14687TIP3    H165552   6.525   0.452   2.346  0.2114  0.0782  0.8719
14687TIP3    H265553   6.642   0.402   2.265 -1.0324 -0.7189 -0.4755
14688TIP3   OH265554   1.566   3.573   0.937  0.1497 -0.3152  0.0280
14688TIP3    H165555   1.515   3.639   0.890 -0.1929 -2.0536 -2.2465
14688TIP3    H265556   1.505   3.535   1.000  0.2704  1.2382  1.1576
14689TIP3   OH265557   2.131   5.994  11.775  0.2481 -0.3392 -0.0052
14689TIP3    H165558   2.187   6.052  11.826  0.9181 -0.2898 -0.7565
14689TIP3    H265559   2.047   5.994  11.820  0.2461  1.1843  0.0305
14690TIP3   OH265560   4.928   4.131  11.635 -0.4236  0.2723 -0.0643
14690TIP3    H165561   4.987   4.068  11.594 -1.9126 -1.0576 -0.2128
14690TIP3    H265562   4.842   4.092  11.630 -1.3249  2.0701  0.3820
14691TIP3   OH265563   3.961   1.278   4.706  0.5805 -0.6411  0.0945
14691TIP3    H165564   3.997   1.359   4.669  1.1005 -1.0421 -0.2907
14691TIP3    H265565   4.027   1.211   4.686 -0.0780 -1.2575 -0.0325
14692TIP3   OH265566   3.865   5.164   4.756  0.2867 -0.5836  0.1041
14692TIP3    H165567   3.810   5.231   4.715 -0.3192 -0.3844  1.2038
14692TIP3    H265568   3.927   5.139   4.688  0.4429  0.9966 -0.3748
14693TIP3   OH265569   5.123   4.892   6.266  0.6281 -0.7625  0.8818
14693TIP3    H165570   5.078   4.812   6.241  0.9225 -0.8621  0.6622
14693TIP3    H265571   5.079   4.961   6.216 -0.1230 -0.6757  1.6434
14694TIP3   OH265572   2.703   3.061   0.621 -0.4641  0.3931 -0.4477
14694TIP3    H165573   2.716   3.097   0.533 -1.3507  1.6904 -0.0708
14694TIP3    H265574   2.616   3.091   0.647 -1.0595 -1.6303  0.1137
14695TIP3   OH265575   3.429   2.993  14.127 -0.7351 -0.2693  0.1177
14695TIP3    H165576   3.352   2.945  14.095 -0.8175  0.6426 -1.1320
14695TIP3    H265577   3.402   3.025  14.213 -1.5014 -0.5318 -0.0109
14696TIP3   OH265578   0.530   0.614  13.595  0.2263  0.0877 -0.4693
14696TIP3    H165579   0.467   0.545  13.574 -0.6356  1.0274 -1.0684
14696TIP3    H265580   0.545   0.658  13.511  1.4266  0.1010 -0.2622
14697TIP3   OH265581   1.264   1.568   0.575 -0.0160 -0.8399  0.2032
14697TIP3    H165582   1.252   1.533   0.663 -0.3736  1.0654  0.9594
14697TIP3    H265583   1.206   1.514   0.520 -1.3427 -0.7869  1.4834
14698TIP3   OH265584   6.245   2.366   0.727  0.2254 -0.2969  0.2551
14698TIP3    H165585   6.163   2.369   0.677 -0.2871 -0.9970  1.0409
14698TIP3    H265586   6.222   2.398   0.814  0.7813 -0.5582  0.5045
14699TIP3   OH265587   6.532   2.051   2.704 -0.2615  0.0130  0.2499
14699TIP3    H165588   6.599   2.072   2.768 -2.1416  0.0144  2.3606
14699TIP3    H265589   6.544   1.958   2.685  0.7090  0.1668  0.0933
14700TIP3   OH265590   3.823   2.387  11.648 -0.8987 -0.0585 -0.1223
14700TIP3    H165591   3.887   2.409  11.580 -2.8883  0.7256 -1.8225
14700TIP3    H265592   3.851   2.439  11.724  0.2504  0.5597 -0.9374
14701TIP3   OH265593   3.624   5.845   1.676 -0.4821 -0.0519  0.4165
14701TIP3    H165594   3.586   5.888   1.752  0.4981 -0.2278  1.0220
14701TIP3    H265595   3.670   5.769   1.712  1.2059  0.6488 -0.1602
14702TIP3   OH265596   3.411   3.412   1.307  0.5683 -0.1973  0.3720
14702TIP3    H165597   3.434   3.329   1.267 -0.8063 -0.8142  0.7922
14702TIP3    H265598   3.431   3.400   1.400  0.1664 -0.1324  0.4676
14703TIP3   OH265599   3.021   1.505   4.152  0.1610 -0.3403  0.1631
14703TIP3    H165600   2.960   1.562   4.198 -0.8027 -0.1832 -1.2248
14703TIP3    H265601   3.106   1.549   4.158  0.1639 -0.5638  2.1272
14704TIP3   OH265602   1.470   0.374  13.461  0.3646 -1.0912 -0.2374
14704TIP3    H165603   1.563   0.363  13.481  0.9179  0.2478 -1.7635
14704TIP3    H265604   1.464   0.357  13.367 -1.3364 -3.1308  0.1797
14705TIP3   OH265605   0.583   1.997  16.281  0.1168 -1.3699 -0.6099
14705TIP3    H165606   0.618   2.067  16.335  1.6659 -2.3247 -0.3146
14705TIP3    H265607   0.489   1.995  16.302  0.2602 -0.1710  0.2425
14706TIP3   OH265608   0.227   0.526   3.124  0.2453  0.4379 -0.0434
14706TIP3    H165609   0.275   0.572   3.055 -2.0258  0.3948 -1.7382
14706TIP3    H265610   0.146   0.576   3.135 -0.5645 -1.0017  0.7988
14707TIP3   OH265611   5.353   4.136   3.923 -0.1561  0.4872 -0.6571
14707TIP3    H165612   5.349   4.041   3.925  2.2950  0.2986 -1.4319
14707TIP3    H265613   5.328   4.163   4.011 -1.4192 -0.8091 -0.5866
14708TIP3   OH265614   5.515   1.175  11.526  0.4555 -0.0064 -0.5088
14708TIP3    H165615   5.563   1.102  11.488  0.8129 -0.0762  0.0667
14708TIP3    H265616   5.449   1.197  11.460 -0.6999 -1.8620 -0.0364
14709TIP3   OH265617   4.388   6.143  17.252 -0.6500 -0.4976  0.0198
14709TIP3    H165618   4.473   6.185  17.254 -0.7799 -0.2366  0.0585
14709TIP3    H265619   4.387   6.086  17.329 -1.1824  0.8103  1.0024
14710TIP3   OH265620   0.517   0.969  17.502 -0.2292 -0.4039 -0.6920
14710TIP3    H165621   0.607   0.944  17.479 -0.1912 -0.1490 -0.8128
14710TIP3    H265622   0.501   1.050  17.454  0.1979  0.6923  0.9281
14711TIP3   OH265623   0.637   0.694  12.503  0.0386 -0.1099 -0.1733
14711TIP3    H165624   0.684   0.692  12.587  1.1900  1.4550 -0.7238
14711TIP3    H265625   0.587   0.776  12.505 -0.3252 -0.3103 -0.7986
14712TIP3   OH265626   0.955   6.465   5.947 -0.1054  0.2091  0.6928
14712TIP3    H165627   0.968   6.558   5.964  1.2754  0.2097 -0.2379
14712TIP3    H265628   1.044   6.428   5.944 -0.3657 -0.4393 -2.7147
14713TIP3   OH265629   2.148   3.199   3.708  0.9856 -0.5866 -0.0810
14713TIP3    H165630   2.110   3.268   3.762  1.4483 -0.1495 -0.3125
14713TIP3    H265631   2.239   3.194   3.736  1.0995 -0.7124 -0.4656
14714TIP3   OH265632   4.725   0.758   5.275  0.7547 -0.4092  1.0090
14714TIP3    H165633   4.797   0.820   5.274 -0.2003  0.7317  0.9721
14714TIP3    H265634   4.695   0.754   5.184  1.6341 -1.9495  0.7515
14715TIP3   OH265635   3.543   5.794   5.174 -0.2888  0.8471 -0.0467
14715TIP3    H165636   3.607   5.816   5.106 -1.3857 -0.5621 -1.6525
14715TIP3    H265637   3.474   5.747   5.126  0.1768 -2.7219  2.4403
14716TIP3   OH265638   0.932   0.042  15.630 -0.0898 -0.5040 -0.6267
14716TIP3    H165639   0.999   0.074  15.691  1.3931 -1.3705 -1.7675
14716TIP3    H265640   0.959   0.074  15.545 -2.7845  1.7143 -0.8024
14717TIP3   OH265641   3.793   5.822  13.468 -0.3214  0.7033  0.5263
14717TIP3    H165642   3.861   5.759  13.495 -0.5495 -0.2951 -1.0704
14717TIP3    H265643   3.787   5.884  13.540  2.3044  0.8282  0.7310
14718TIP3   OH265644   4.094   1.005  15.529 -0.0368  0.0256  0.2120
14718TIP3    H165645   4.023   1.001  15.465  0.2670  0.0735 -0.1252
14718TIP3    H265646   4.067   1.074  15.590 -0.2810  0.0414  0.0897
14719TIP3   OH265647   4.311   5.513   5.649 -0.1029  0.2482  0.4101
14719TIP3    H165648   4.277   5.596   5.681 -0.0197  0.6548 -0.5190
14719TIP3    H265649   4.235   5.454   5.650  0.0426  0.0633  1.9194
14720TIP3   OH265650   4.224   0.094   3.168  0.2209 -0.5413 -0.5032
14720TIP3    H165651   4.294   0.035   3.197 -0.7577 -1.2515  0.5014
14720TIP3    H265652   4.159   0.090   3.238 -1.3642 -0.8058 -1.9202
14721TIP3   OH265653   5.004   2.200  13.530  0.1476  0.2753  0.2473
14721TIP3    H165654   4.953   2.154  13.464  0.7387 -0.5723  0.3595
14721TIP3    H265655   5.043   2.131  13.583 -1.8630  0.8949  2.7558
14722TIP3   OH265656   3.871   5.865  14.293  0.6268  0.9178  0.1067
14722TIP3    H165657   3.847   5.957  14.305 -0.9174  0.4956  0.5522
14722TIP3    H265658   3.903   5.838  14.379  1.1109  1.0405 -0.0336
14723TIP3   OH265659   6.416   4.243  13.822 -0.1904  0.2414  0.0671
14723TIP3    H165660   6.348   4.209  13.764  0.5292  0.2751 -0.8358
14723TIP3    H265661   6.369   4.281  13.896 -1.1818  0.8921 -0.8620
14724TIP3   OH265662   6.084   4.992   0.965  0.6231  0.8318 -0.2961
14724TIP3    H165663   6.170   5.019   0.932  2.0989 -1.8223  0.9390
14724TIP3    H265664   6.059   4.919   0.909  0.8649 -0.5840  1.3449
14725TIP3   OH265665   2.637   1.347  11.338 -0.3948 -0.1334 -0.2140
14725TIP3    H165666   2.681   1.279  11.287  0.3977 -0.4788  0.8993
14725TIP3    H265667   2.551   1.357  11.296 -0.0739 -0.9859 -1.1051
14726TIP3   OH265668   0.479   0.528  12.791  0.4962  0.6368  0.4471
14726TIP3    H165669   0.393   0.567  12.809  0.1028  0.9400 -1.7842
14726TIP3    H265670   0.537   0.567  12.856 -0.9993  0.5843  1.8716
14727TIP3   OH265671   2.967   0.038   1.101 -0.3734 -0.5251 -0.2514
14727TIP3    H165672   2.949  -0.052   1.075 -1.1632 -0.6686  0.6869
14727TIP3    H265673   3.060   0.051   1.083 -0.5942 -0.9865 -1.8977
14728TIP3   OH265674   0.268   4.724   3.743  0.3045 -0.0495  0.2553
14728TIP3    H165675   0.172   4.717   3.741  0.3977 -1.7619 -0.8122
14728TIP3    H265676   0.298   4.633   3.752  1.8315  0.5488  1.5890
14729TIP3   OH265677   0.673   1.929  15.628 -0.1818  0.7052 -0.1494
14729TIP3    H165678   0.663   1.982  15.549  0.3156  0.9765 -0.0407
14729TIP3    H265679   0.614   1.855  15.616  1.9650 -0.8061 -2.0946
14730TIP3   OH265680   4.453   2.548   3.955  0.7459  0.0876 -0.9255
14730TIP3    H165681   4.518   2.514   3.894 -0.6269  0.3532 -2.6098
14730TIP3    H265682   4.420   2.628   3.913  0.0604  0.5140  0.3662
14731TIP3   OH265683   0.166   6.165   5.435 -0.2771  0.4246  0.5818
14731TIP3    H165684   0.174   6.236   5.371 -1.2995  1.1508  1.2376
14731TIP3    H265685   0.094   6.191   5.492 -0.1602 -0.7740  1.3223
14732TIP3   OH265686   5.021   3.541   4.578 -0.2171  0.5145  0.2535
14732TIP3    H165687   4.949   3.478   4.568 -0.4150  0.9706 -1.5992
14732TIP3    H265688   5.031   3.580   4.491  0.6436  2.2632  1.0833
14733TIP3   OH265689   5.448   0.154   2.286  0.0192 -0.3267  0.1601
14733TIP3    H165690   5.421   0.133   2.376 -0.3948  0.8340  0.3363
14733TIP3    H265691   5.366   0.179   2.242  0.2570 -0.6412 -0.4723
14734TIP3   OH265692   2.080   5.688  12.998  0.2266  0.5401  0.0706
14734TIP3    H165693   2.071   5.783  13.004 -1.6294  0.4888 -0.9879
14734TIP3    H265694   2.089   5.670  12.904 -1.8695 -0.4341 -0.0101
14735TIP3   OH265695   0.785   6.634  15.305  0.1139 -1.3296 -0.3907
14735TIP3    H165696   0.797   6.700  15.237  1.3650 -1.3946 -0.2702
14735TIP3    H265697   0.693   6.639  15.329  0.2168  0.5103 -0.2618
14736TIP3   OH265698   4.031   4.687  12.098  0.4625 -0.8719  0.4770
14736TIP3    H165699   4.098   4.737  12.145 -0.7780  0.8685  0.5118
14736TIP3    H265700   3.968   4.662  12.165 -0.1326 -0.4037  0.1031
14737TIP3   OH265701   6.670   2.429  17.277  0.1370  0.2776 -0.0151
14737TIP3    H165702   6.752   2.435  17.228 -0.0378 -0.3375 -0.3959
14737TIP3    H265703   6.608   2.482  17.227 -0.4414 -1.5279 -1.3394
14738TIP3   OH265704   3.816   0.774  11.354 -0.3066  0.1431  0.1696
14738TIP3    H165705   3.816   0.821  11.271  0.9318  0.0527  0.1047
14738TIP3    H265706   3.819   0.844  11.420  0.9281  0.2063  0.0811
14739TIP3   OH265707   0.800   5.586   4.077 -0.1833 -0.4907  0.1090
14739TIP3    H165708   0.756   5.521   4.022 -1.6143 -1.0049  1.7954
14739TIP3    H265709   0.730   5.644   4.108  0.9575  1.4340 -0.7224
14740TIP3   OH265710   4.479   0.295   3.350  0.0100 -0.1262 -0.1508
14740TIP3    H165711   4.496   0.204   3.376  2.4356  0.3777  0.2287
14740TIP3    H265712   4.563   0.326   3.316 -1.1671  1.5294 -1.7176
14741TIP3   OH265713   0.368   3.167  10.960 -0.1924  0.3173 -0.3961
14741TIP3    H165714   0.364   3.231  10.890  0.6158 -1.3734 -2.0849
14741TIP3    H265715   0.454   3.180  11.000 -1.0621  1.9730  1.0297
14742TIP3   OH265716   0.210   2.334   5.641  0.0714 -0.3097 -0.8544
14742TIP3    H165717   0.259   2.295   5.713  1.4014  1.3872 -0.7865
14742TIP3    H265718   0.140   2.384   5.684 -0.6462 -1.2885 -0.8695
14743TIP3   OH265719   5.043   1.484  13.846  0.1766 -0.1352  0.6371
14743TIP3    H165720   5.137   1.467  13.846 -0.2468 -3.1938 -0.4581
14743TIP3    H265721   5.011   1.441  13.925 -0.5536 -1.4755 -0.3366
14744TIP3   OH265722   3.431   5.783  14.723 -0.2635 -0.6066  0.0609
14744TIP3    H165723   3.519   5.765  14.756 -1.1672 -0.5746  2.7708
14744TIP3    H265724   3.401   5.698  14.690  0.9158 -0.5051 -1.3718
14745TIP3   OH265725   3.047   3.038  16.290 -0.1270 -0.6328  0.0713
14745TIP3    H165726   3.141   3.049  16.307 -0.3485 -0.9057  1.6640
14745TIP3    H265727   3.007   3.118  16.323 -0.2941  0.4559 -2.5904
14746TIP3   OH265728   3.174   3.862  11.986 -0.1081  0.4311  0.1130
14746TIP3    H165729   3.202   3.860  11.894  1.4226  0.5257  0.5454
14746TIP3    H265730   3.229   3.796  12.029 -0.4281  0.7708  1.0650
14747TIP3   OH265731   4.769   3.170  16.967  0.0928  0.4060 -0.1455
14747TIP3    H165732   4.690   3.137  17.009 -0.5132  1.9991  0.0267
14747TIP3    H265733   4.737   3.216  16.889  0.8189  1.3757  0.1217
14748TIP3   OH265734   4.828   6.162  11.156 -0.6320 -0.3189 -0.4386
14748TIP3    H165735   4.904   6.210  11.123 -0.3315 -0.1551  0.4459
14748TIP3    H265736   4.754   6.200  11.110 -0.6398  2.3450  1.5218
14749TIP3   OH265737   3.618   5.825  14.115  0.6269 -0.0161 -0.3938
14749TIP3    H165738   3.604   5.731  14.098  0.7930  0.0208 -0.7388
14749TIP3    H265739   3.688   5.827  14.181 -0.0470 -0.1606  0.3465
14750TIP3   OH265740   5.970   0.116  12.989  0.1896 -0.1699  0.0802
14750TIP3    H165741   5.929   0.046  12.938  0.3752  0.6663 -1.2738
14750TIP3    H265742   6.036   0.153  12.930  1.1983  0.1213  1.3436
14751TIP3   OH265743   1.814   4.466   0.718 -0.1505 -0.0519 -0.1273
14751TIP3    H165744   1.871   4.534   0.753 -1.0772 -1.1547  4.0981
14751TIP3    H265745   1.728   4.509   0.711  0.1294  0.2980 -1.7080
14752TIP3   OH265746   2.104   3.914   6.581 -0.2015  0.4827  0.3438
14752TIP3    H165747   2.013   3.938   6.568  0.3215  2.0403 -0.7150
14752TIP3    H265748   2.105   3.819   6.573 -1.5546  0.5361 -0.8601
14753TIP3   OH265749   4.350   6.723  14.543 -0.2583  0.2075  0.3338
14753TIP3    H165750   4.338   6.655  14.477  0.7056  1.5189 -1.2743
14753TIP3    H265751   4.366   6.803  14.492  0.8618  1.2038  2.1580
14754TIP3   OH265752   6.176   2.793   3.017  0.1756  0.3417 -0.4053
14754TIP3    H165753   6.117   2.856   3.059  0.9811  2.3764 -2.1481
14754TIP3    H265754   6.124   2.713   3.010 -2.0093  1.7070 -0.8525
14755TIP3   OH265755   5.006   6.642  16.359  0.6814  0.1654 -0.1127
14755TIP3    H165756   4.999   6.557  16.314 -0.1770  0.3648 -0.3778
14755TIP3    H265757   5.027   6.704  16.289 -1.6934  0.6545 -0.4951
14756TIP3   OH265758   0.331   3.075  12.018  0.4014 -0.0532 -0.4973
14756TIP3    H165759   0.273   3.147  12.041  0.2791 -0.3148  0.0175
14756TIP3    H265760   0.327   3.016  12.093 -0.0075 -0.9159 -1.1758
14757TIP3   OH265761   6.313   1.939   3.415  0.2875  0.3579  0.0407
14757TIP3    H165762   6.361   1.969   3.493  0.9850 -0.0520 -0.2196
14757TIP3    H265763   6.228   1.982   3.421  0.2474  0.1602  1.1492
14758TIP3   OH265764   4.173   0.405  12.336 -0.5277 -0.1565 -0.4884
14758TIP3    H165765   4.191   0.311  12.347 -0.6911 -0.1945 -0.5458
14758TIP3    H265766   4.102   0.423  12.397  2.1411  0.8021  2.6136
14759TIP3   OH265767   4.986   3.311  14.232 -0.0287 -0.1550 -0.3193
14759TIP3    H165768   5.000   3.240  14.169  0.3492 -0.0416 -0.3652
14759TIP3    H265769   4.946   3.380  14.180  0.7388  0.1252 -0.5538
14760TIP3   OH265770   3.797   0.230  16.338  0.2289 -0.0613 -0.2657
14760TIP3    H165771   3.797   0.198  16.248 -1.0864  0.6295 -0.5367
14760TIP3    H265772   3.757   0.317  16.333  0.5107  0.1616  0.9282
14761TIP3   OH265773   5.373   1.378  12.933  0.7556 -0.1765 -0.2446
14761TIP3    H165774   5.279   1.359  12.933  0.8028 -0.5136  1.0212
14761TIP3    H265775   5.387   1.428  13.014  1.6886 -0.2907 -0.3353
14762TIP3   OH265776   5.999   6.733   0.006  0.0468  0.4655  0.0249
14762TIP3    H165777   5.913   6.759  -0.029 -0.4191  1.8962  2.0417
14762TIP3    H265778   5.989   6.640   0.028 -0.0886 -0.0923 -2.1616
14763TIP3   OH265779   4.440   2.738   0.138 -0.2105 -0.7133 -0.1156
14763TIP3    H165780   4.486   2.817   0.168  1.1871 -1.1937 -0.8812
14763TIP3    H265781   4.379   2.718   0.209  1.7226 -0.7985  1.6352
14764TIP3   OH265782   3.958   5.403   0.838 -0.2266  0.6013 -0.6604
14764TIP3    H165783   3.879   5.450   0.867 -1.3501 -0.1930 -2.2529
14764TIP3    H265784   3.936   5.373   0.750  1.0087 -1.5905 -0.2981
14765TIP3   OH265785   4.980   0.370   0.587  0.3660 -0.3024 -1.0845
14765TIP3    H165786   4.970   0.464   0.568  2.0711  0.2927  0.6212
14765TIP3    H265787   4.897   0.345   0.626  1.2766  1.7464  2.7336
14766TIP3   OH265788   5.701   0.675   3.726  0.5518 -0.7221 -0.7866
14766TIP3    H165789   5.704   0.771   3.726 -0.5766 -0.6570 -1.9980
14766TIP3    H265790   5.788   0.648   3.699  0.5726 -0.0022 -1.4786
14767TIP3   OH265791   3.236   6.231   2.618 -0.2252  0.1499  0.0491
14767TIP3    H165792   3.179   6.286   2.564  0.4692  0.5011 -0.3440
14767TIP3    H265793   3.243   6.278   2.701 -0.3191  0.2272  0.0134
14768TIP3   OH265794   3.190   5.165   4.569  0.0899  0.3708 -0.6768
14768TIP3    H165795   3.167   5.085   4.521 -0.5298  1.1319 -1.6597
14768TIP3    H265796   3.284   5.175   4.556  0.0635  0.1367 -1.0507
14769TIP3   OH265797   1.802   4.712   1.639 -0.6731 -0.3099  1.0577
14769TIP3    H165798   1.792   4.805   1.658  1.0776  0.0409  0.4155
14769TIP3    H265799   1.870   4.708   1.572 -0.7009 -2.0658  1.0821
14770TIP3   OH265800   3.760   0.110   4.831  0.0432 -0.2166  0.5156
14770TIP3    H165801   3.816   0.160   4.891  0.3903  0.9131 -0.7052
14770TIP3    H265802   3.672   0.117   4.869 -0.0767  2.0622  0.0015
14771TIP3   OH265803   0.240   0.870  11.618  0.4677 -0.3380 -0.2298
14771TIP3    H165804   0.272   0.838  11.702 -1.1685  0.0103  0.5615
14771TIP3    H265805   0.286   0.953  11.606 -2.6212  2.0999  2.7368
14772TIP3   OH265806   2.298   0.891   5.685  0.5363 -0.0052  0.4138
14772TIP3    H165807   2.354   0.926   5.754  0.9047  0.0750  0.0828
14772TIP3    H265808   2.357   0.838   5.631  0.2111 -0.2374  0.2803
14773TIP3   OH265809   1.215   3.160  13.176  0.0804  0.8591 -0.0753
14773TIP3    H165810   1.237   3.103  13.250  1.2655  0.8164 -0.4343
14773TIP3    H265811   1.257   3.118  13.100 -1.1741  0.8631 -0.7928
14774TIP3   OH265812   6.370   3.084   4.414  0.4692 -0.0296  0.2202
14774TIP3    H165813   6.436   3.140   4.372 -0.2750 -0.1125 -1.1219
14774TIP3    H265814   6.294   3.141   4.425  0.9708  0.2907  2.4934
14775TIP3   OH265815   1.642   5.791   1.129  0.5205 -0.8984 -0.2467
14775TIP3    H165816   1.574   5.857   1.146  0.3697 -0.6364 -1.7109
14775TIP3    H265817   1.653   5.746   1.213  1.6554  1.9136  1.2738
14776TIP3   OH265818   1.132   0.853   0.409 -0.3819  0.5439  0.0554
14776TIP3    H165819   1.173   0.875   0.493 -0.4587  0.6704  0.0592
14776TIP3    H265820   1.162   0.764   0.391 -0.8160  0.3022  0.4967
14777TIP3   OH265821   3.534   4.277  15.571  0.5428  0.1692  0.4238
14777TIP3    H165822   3.475   4.346  15.601  1.3635  1.6277 -1.1615
14777TIP3    H265823   3.481   4.197  15.575 -0.7745  1.0565  1.2838
14778TIP3   OH265824   5.027   2.707   4.096 -0.1290  0.1335  0.1921
14778TIP3    H165825   4.973   2.771   4.049  0.3256  0.8055  0.5703
14778TIP3    H265826   5.021   2.627   4.043  0.4658  0.9070 -1.0782
14779TIP3   OH265827   1.286   5.319  17.416  0.0223  0.3159  0.4082
14779TIP3    H165828   1.380   5.326  17.400 -0.1725  0.8910 -0.6158
14779TIP3    H265829   1.256   5.410  17.424 -0.7368  0.2487 -1.2366
14780TIP3   OH265830   4.875   2.504  13.417  0.7070  0.0606  0.3921
14780TIP3    H165831   4.911   2.467  13.497  1.4860 -0.1990 -0.0614
14780TIP3    H265832   4.921   2.457  13.346  0.3750  0.6051 -0.1975
14781TIP3   OH265833   0.905   2.713  15.243  0.4166  0.3594  0.2480
14781TIP3    H165834   0.877   2.693  15.333 -0.5552  1.1337  0.1347
14781TIP3    H265835   0.922   2.628  15.204 -0.1678 -0.0496  0.8574
14782TIP3   OH265836   1.249   3.687   5.501 -0.3807 -0.1989 -0.0622
14782TIP3    H165837   1.213   3.655   5.418 -1.2076  1.5744 -0.4399
14782TIP3    H265838   1.208   3.631   5.568  0.0575 -1.4473 -0.8098
14783TIP3   OH265839   0.188   1.833  12.942 -0.3764  0.1903  0.4510
14783TIP3    H165840   0.145   1.904  12.990  1.6613  0.7432  1.5767
14783TIP3    H265841   0.177   1.756  12.998  3.2784  1.1258  2.8409
14784TIP3   OH265842   3.134   2.014  12.336  0.6474 -0.1531 -0.0372
14784TIP3    H165843   3.095   2.030  12.251 -0.2765 -0.7610  0.2605
14784TIP3    H265844   3.068   2.042  12.399  0.7620 -0.9774  0.4711
14785TIP3   OH265845   5.568   5.125   4.142  0.1584  0.1047  0.2883
14785TIP3    H165846   5.571   5.195   4.207 -0.1993  0.5485 -0.1660
14785TIP3    H265847   5.608   5.050   4.186 -0.6268  0.2228  1.2388
14786TIP3   OH265848   1.818   4.526  13.657 -0.1237  0.0653 -0.4399
14786TIP3    H165849   1.763   4.488  13.588 -0.5300  1.0847 -0.6923
14786TIP3    H265850   1.851   4.608  13.619  0.4627  0.1438  0.2159
14787TIP3   OH265851   5.890   3.184   3.630 -0.0974 -0.0959  0.2390
14787TIP3    H165852   5.828   3.210   3.698  1.5256  2.2641  0.9238
14787TIP3    H265853   5.957   3.134   3.676  0.0181 -0.1635  0.0006
14788TIP3   OH265854   1.753   3.236  11.478  0.4464  0.2166 -0.0061
14788TIP3    H165855   1.722   3.300  11.414  0.6805 -0.0374 -0.3753
14788TIP3    H265856   1.783   3.289  11.552  0.3178  0.5181 -0.1685
14789TIP3   OH265857   3.478   5.579  10.971 -0.0443 -0.0051  0.1592
14789TIP3    H165858   3.498   5.554  10.880  0.4020  0.4634  0.1252
14789TIP3    H265859   3.383   5.588  10.972  0.0247  1.0097 -0.5407
14790TIP3   OH265860   4.786   5.649   2.803 -0.4404 -0.5027 -0.2629
14790TIP3    H165861   4.740   5.726   2.837 -1.2428 -0.6479 -1.0042
14790TIP3    H265862   4.841   5.621   2.877  1.1157  1.7043 -0.4685
14791TIP3   OH265863   4.894   4.940  11.276  0.2774  0.5143 -0.1316
14791TIP3    H165864   4.837   5.016  11.262 -0.5329 -0.1168 -0.3404
14791TIP3    H265865   4.866   4.905  11.360  0.0023 -0.0948 -0.4711
14792TIP3   OH265866   4.534   0.238   1.426 -1.3253  0.2491  0.0520
14792TIP3    H165867   4.481   0.159   1.436 -2.5165  0.9049 -0.7792
14792TIP3    H265868   4.471   0.306   1.400 -0.0896  1.0846 -0.8914
14793TIP3   OH265869   4.855   2.842   3.510 -0.3516  0.0517  0.4468
14793TIP3    H165870   4.842   2.936   3.500  0.2627  0.1157  0.1723
14793TIP3    H265871   4.906   2.833   3.590 -2.1925 -0.2101  1.6382
14794TIP3   OH265872   0.792   5.817   4.734  0.0354  0.6134  0.6025
14794TIP3    H165873   0.702   5.823   4.767  0.3861  1.4936  1.4354
14794TIP3    H265874   0.787   5.751   4.664 -0.9036 -0.6382  1.7941
14795TIP3   OH265875   5.306   3.112  16.398  0.0791 -0.0566  0.4452
14795TIP3    H165876   5.247   3.163  16.342  0.8904 -0.9102 -1.2982
14795TIP3    H265877   5.370   3.076  16.337  1.5436 -0.3496  2.0851
14796TIP3   OH265878   1.527   2.931   5.128 -0.2849  0.2712 -0.4370
14796TIP3    H165879   1.511   3.024   5.144  0.2345  0.3138 -0.1294
14796TIP3    H265880   1.509   2.890   5.213 -0.3537  0.1133 -0.5287
14797TIP3   OH265881   3.688   6.312  14.789 -0.3590  0.0554 -0.1258
14797TIP3    H165882   3.637   6.364  14.851  0.1998  0.8256 -0.3024
14797TIP3    H265883   3.758   6.370  14.760  0.1111 -0.7017 -0.5497
14798TIP3   OH265884   2.861   5.703   1.005 -0.4630  0.0794  0.1513
14798TIP3    H165885   2.833   5.684   1.095  1.2283 -1.6238  0.4066
14798TIP3    H265886   2.787   5.747   0.965 -2.0420 -0.9377  1.7969
14799TIP3   OH265887   1.290   5.292   2.038 -0.2045 -0.1072 -0.3761
14799TIP3    H165888   1.242   5.257   1.964 -1.1392  0.1734  0.0731
14799TIP3    H265889   1.258   5.243   2.114  2.0322 -1.6570 -0.3261
14800TIP3   OH265890   2.082   3.864  13.505  0.2596  0.3069  0.2900
14800TIP3    H165891   2.011   3.803  13.486  0.0934  0.4777  0.3593
14800TIP3    H265892   2.043   3.929  13.563  0.9683 -0.7073  2.0132
14801TIP3   OH265893   2.823   3.199   6.374  0.5845 -0.4227  0.2885
14801TIP3    H165894   2.916   3.220   6.369  0.7593 -1.2315 -0.0934
14801TIP3    H265895   2.819   3.117   6.422  0.1471 -0.8355 -0.4285
14802TIP3   OH265896   6.742   4.564  16.513  0.4901  0.4957 -0.4234
14802TIP3    H165897   6.731   4.609  16.429 -1.0834  0.7516 -0.1106
14802TIP3    H265898   6.656   4.523  16.530  0.7171  0.6176  1.1474
14803TIP3   OH265899   4.632   5.388  16.591  0.3926 -0.0755  0.4298
14803TIP3    H165900   4.567   5.390  16.520 -0.1348  1.0636  0.9208
14803TIP3    H265901   4.663   5.297  16.592  0.4590 -0.1064 -1.2847
14804TIP3   OH265902   5.300   5.192   4.397  0.2949  0.7472  0.0424
14804TIP3    H165903   5.317   5.286   4.394 -0.8150  0.9569 -0.1182
14804TIP3    H265904   5.205   5.185   4.407  0.3782 -0.3575  0.2010
14805TIP3   OH265905   5.757   3.578   1.531 -0.7340  0.2918  0.3691
14805TIP3    H165906   5.842   3.566   1.574  0.4368  0.2792 -1.8098
14805TIP3    H265907   5.729   3.489   1.509 -0.0382  0.4410 -1.1930
14806TIP3   OH265908   5.971   2.724  16.936 -0.2305 -0.3875 -0.3628
14806TIP3    H165909   6.011   2.800  16.892 -0.5200  0.1466  0.2764
14806TIP3    H265910   5.953   2.755  17.024  0.4246 -1.4738  0.1719
14807TIP3   OH265911   0.889   4.027  11.960 -0.2467  0.5635 -0.4827
14807TIP3    H165912   0.886   3.934  11.941  0.5731 -0.0181  1.8349
14807TIP3    H265913   0.945   4.034  12.038 -1.6723  2.7787  0.4526
14808TIP3   OH265914   5.548   0.071  11.758  0.2457 -0.0793 -0.4989
14808TIP3    H165915   5.469   0.096  11.806  0.2723  0.4211 -0.7093
14808TIP3    H265916   5.516   0.035  11.676  0.1902 -1.1913 -0.0015
14809TIP3   OH265917   3.486   5.127  12.745 -0.2288  0.1059 -0.2479
14809TIP3    H165918   3.458   5.045  12.703 -0.3724  0.1151 -0.1702
14809TIP3    H265919   3.492   5.105  12.838 -3.1800  0.9305  0.2337
14810TIP3   OH265920   6.473   4.011   3.061  0.3979 -0.0210  0.1001
14810TIP3    H165921   6.534   3.979   3.127  1.1637 -1.4995 -1.2627
14810TIP3    H265922   6.422   4.079   3.106  0.2609 -1.5843  2.4439
14811TIP3   OH265923   0.472   6.062  15.983  1.1089 -0.0965  0.2113
14811TIP3    H165924   0.474   6.059  16.079  1.0869 -0.3495  0.2045
14811TIP3    H265925   0.431   6.146  15.963  1.6352  0.2112  0.4186
14812TIP3   OH265926   5.956   4.646  14.145  0.3931  0.1140 -0.2881
14812TIP3    H165927   6.004   4.728  14.155  1.8611 -0.7038 -0.4355
14812TIP3    H265928   5.869   4.665  14.181  0.6456  1.7710 -0.4682
14813TIP3   OH265929   4.022   1.527  15.782  0.0836  0.5464  0.9486
14813TIP3    H165930   4.011   1.499  15.691 -0.7131  1.9343  0.5974
14813TIP3    H265931   4.001   1.449  15.833 -0.5422  0.0527 -0.0284
14814TIP3   OH265932   5.509   4.438   2.318 -0.1295  0.2683  0.3029
14814TIP3    H165933   5.586   4.483   2.282 -0.6687  0.4146 -0.6907
14814TIP3    H265934   5.498   4.476   2.405  1.5649 -0.5160  0.9102
14815TIP3   OH265935   6.390   6.479   6.274  0.0909 -0.3348  0.0417
14815TIP3    H165936   6.366   6.387   6.287 -1.3375 -0.1453 -1.0127
14815TIP3    H265937   6.467   6.475   6.218 -1.5866 -0.9257 -2.4184
14816TIP3   OH265938   1.403   0.288   3.625 -0.2141 -0.6977  0.0914
14816TIP3    H165939   1.374   0.346   3.554 -0.4479 -0.4053  0.4234
14816TIP3    H265940   1.368   0.327   3.704  2.0818  0.3558  0.6750
14817TIP3   OH265941   3.700   4.485  13.199 -0.4951  0.2515 -0.4222
14817TIP3    H165942   3.764   4.443  13.143 -0.2476  1.8811 -1.4155
14817TIP3    H265943   3.617   4.475  13.153 -0.9546 -1.5179  0.6789
14818TIP3   OH265944   2.843   5.979  14.863 -0.3742  0.5104 -0.2339
14818TIP3    H165945   2.913   5.917  14.878 -0.4423 -0.4866 -3.3525
14818TIP3    H265946   2.886   6.064  14.858  0.3140  0.1773  0.0492
14819TIP3   OH265947   3.402   2.251  16.947  0.2546 -0.0933  0.4603
14819TIP3    H165948   3.467   2.216  17.007  0.4985  0.1569  0.3419
14819TIP3    H265949   3.342   2.301  17.002  0.0069 -0.5465  0.6087
14820TIP3   OH265950   3.642   5.449  11.597  0.5506 -0.2214  0.2115
14820TIP3    H165951   3.612   5.482  11.513  1.8711  2.4417  0.6886
14820TIP3    H265952   3.569   5.395  11.629 -0.5043 -0.2164 -1.9883
14821TIP3   OH265953   6.086   2.372   5.398  0.4337  0.0726 -0.2709
14821TIP3    H165954   6.053   2.461   5.381  0.8644  0.4757  0.9153
14821TIP3    H265955   6.018   2.315   5.363 -0.4150  0.8811  0.0136
14822TIP3   OH265956   5.145   0.794   6.302 -0.1597  0.8153 -0.6838
14822TIP3    H165957   5.111   0.705   6.300 -0.3527  0.8715 -0.1990
14822TIP3    H265958   5.233   0.786   6.337 -0.4638  0.8949  0.1106
14823TIP3   OH265959   0.022   1.187   2.881 -0.0855  0.1896 -0.2492
14823TIP3    H165960   0.048   1.279   2.873 -0.6269  0.7115  2.5816
14823TIP3    H265961   0.061   1.159   2.964  0.3606 -2.2790 -1.2193
14824TIP3   OH265962   2.909   4.775   0.830 -0.4260  0.3686 -0.2442
14824TIP3    H165963   2.830   4.809   0.872 -0.1055  1.7206 -0.6988
14824TIP3    H265964   2.886   4.767   0.738 -0.2443  0.0707 -0.2660
14825TIP3   OH265965   4.261   3.180   2.642 -0.4927  0.0965  0.7706
14825TIP3    H165966   4.191   3.153   2.701  0.3894 -1.4777  1.1420
14825TIP3    H265967   4.342   3.157   2.687  0.2396  0.1757 -0.4372
14826TIP3   OH265968   5.982   0.293  16.878  0.3680  0.1828 -0.4081
14826TIP3    H165969   6.034   0.268  16.802  0.3132 -1.4848  0.0784
14826TIP3    H265970   5.896   0.314  16.841  0.5213  0.0229 -0.8707
14827TIP3   OH265971   0.400   3.453  15.918 -0.5767  0.6197  0.6024
14827TIP3    H165972   0.471   3.411  15.871 -0.5719 -0.4913  1.5694
14827TIP3    H265973   0.368   3.387  15.979  0.2232  2.3559  3.0670
14828TIP3   OH265974   1.636   1.183   3.474 -0.3191  0.0725  0.1014
14828TIP3    H165975   1.594   1.157   3.556 -1.9976  0.5523 -0.5536
14828TIP3    H265976   1.563   1.201   3.414  0.8461  0.1533 -1.3722
14829TIP3   OH265977   0.082   3.394  15.861  0.4526  0.3455 -0.0010
14829TIP3    H165978   0.090   3.442  15.943 -1.1583  1.7753 -0.5949
14829TIP3    H265979   0.019   3.324  15.880  0.4235  0.3979  0.0968
14830TIP3   OH265980   6.655   2.478   0.348  0.0439 -0.2467 -0.3806
14830TIP3    H165981   6.598   2.533   0.294  0.5540  0.7751  0.1040
14830TIP3    H265982   6.627   2.495   0.438  1.2012  0.4127 -0.1173
14831TIP3   OH265983   0.608   5.051   5.108 -0.5843 -0.5962 -0.5500
14831TIP3    H165984   0.648   5.133   5.080 -0.0886 -0.2592  1.0521
14831TIP3    H265985   0.600   4.999   5.027 -0.2075  0.7133 -1.4571
14832TIP3   OH265986   4.593   4.851   3.279 -0.1353 -0.2773 -0.2825
14832TIP3    H165987   4.615   4.760   3.299 -0.4112 -0.0783  1.0112
14832TIP3    H265988   4.648   4.902   3.338 -2.0771  0.2968  1.1604
14833TIP3   OH265989   0.716   1.107  10.628  0.0699  0.2933  0.0775
14833TIP3    H165990   0.689   1.192  10.664  0.8282  0.7106 -0.3317
14833TIP3    H265991   0.705   1.117  10.533  0.1335 -0.0792  0.0316
14834TIP3   OH265992   5.287   3.603   1.704  0.7613  0.2975  0.0268
14834TIP3    H165993   5.278   3.693   1.733  1.0222 -0.3267  2.2050
14834TIP3    H265994   5.363   3.569   1.750 -0.0577 -1.3858  0.2431
14835TIP3   OH265995   4.148   4.260  16.928 -0.3904 -0.0066 -0.7335
14835TIP3    H165996   4.055   4.243  16.944 -0.3853  1.6935  1.8157
14835TIP3    H265997   4.155   4.356  16.928  1.7144  0.0245  2.6750
14836TIP3   OH265998   4.084   0.090   2.684  0.1003  0.4989  0.3394
14836TIP3    H165999   4.041   0.032   2.747 -1.2202 -0.0644 -1.0268
14836TIP3    H266000   4.069   0.049   2.599 -1.7022  3.2530 -0.8039
14837TIP3   OH266001   1.305   3.441  11.493  0.0524 -0.8033 -0.0015
14837TIP3    H166002   1.251   3.448  11.572  0.5533 -0.2708  0.3007
14837TIP3    H266003   1.330   3.348  11.490 -1.2200 -1.1589 -0.3928
14838TIP3   OH266004   0.890   6.070   4.770  0.3421 -0.3930  0.0982
14838TIP3    H166005   0.950   6.078   4.843 -1.5229 -1.1882  1.8121
14838TIP3    H266006   0.886   5.976   4.751  0.4775 -0.2406 -0.7654
14839TIP3   OH266007   4.337   3.903   2.288 -0.3579 -0.0162 -0.1830
14839TIP3    H166008   4.309   3.823   2.243 -0.1696 -0.6575  0.8205
14839TIP3    H266009   4.259   3.931   2.337  0.2390 -0.9475  1.3814
14840TIP3   OH266010   0.533   6.680   1.019 -0.1817  0.3598  0.0273
14840TIP3    H166011   0.583   6.630   1.083 -0.7227  0.2029  0.3296
14840TIP3    H266012   0.533   6.626   0.940 -0.3364  0.1166  0.1955
14841TIP3   OH266013   4.133   3.962   2.453  0.1980 -0.4612 -0.5737
14841TIP3    H166014   4.165   3.923   2.534  0.6320 -1.3852 -1.1796
14841TIP3    H266015   4.041   3.982   2.471  0.0046 -1.6412 -0.2046
14842TIP3   OH266016   3.777   3.783   2.596  0.0586  0.8907  0.1202
14842TIP3    H166017   3.865   3.791   2.561  0.8585 -2.0372  1.1818
14842TIP3    H266018   3.724   3.752   2.522  0.9104 -1.4882  0.4266
14843TIP3   OH266019   5.921   3.661  16.368 -0.6292  0.1565 -0.3172
14843TIP3    H166020   5.834   3.680  16.401 -1.0570 -1.1553 -0.6377
14843TIP3    H266021   5.968   3.744  16.374 -2.4265  1.3631 -1.8278
14844TIP3   OH266022   5.284   5.277  17.140  0.1959  0.1005  0.1358
14844TIP3    H166023   5.307   5.310  17.227  3.3661  0.8375 -0.8181
14844TIP3    H266024   5.229   5.345  17.102  1.3112  1.2887  0.5392
14845TIP3   OH266025   3.181   2.403   6.349  0.1318 -0.4080 -0.4029
14845TIP3    H166026   3.112   2.407   6.415  0.6949  0.6545  0.1552
14845TIP3    H266027   3.255   2.449   6.389  0.5877 -0.0090 -1.6465
14846TIP3   OH266028   2.498   1.653  11.562  0.4087 -0.0167  0.0723
14846TIP3    H166029   2.515   1.572  11.609  1.8342  0.0041 -0.3537
14846TIP3    H266030   2.447   1.627  11.485 -1.6999 -0.0875  1.4102
14847TIP3   OH266031   3.043   5.632   0.391  0.5102  0.1671  0.3815
14847TIP3    H166032   3.030   5.711   0.338 -0.9982 -1.1793 -1.3610
14847TIP3    H266033   2.994   5.650   0.471  1.6156  1.6418  0.7883
14848TIP3   OH266034   6.666   4.613  16.020  0.2711  0.1570 -0.2547
14848TIP3    H166035   6.586   4.653  16.054  2.4764  1.2366  4.5317
14848TIP3    H266036   6.705   4.681  15.964 -1.7105 -0.1910 -2.2113
14849TIP3   OH266037   1.552   1.467  12.338  0.6290  0.0404  0.6423
14849TIP3    H166038   1.566   1.531  12.407  2.9146  1.0956 -0.6785
14849TIP3    H266039   1.640   1.438  12.314 -0.1880 -1.5206 -0.7079
14850TIP3   OH266040   2.308   5.100   1.016 -0.0849  0.2873  0.1176
14850TIP3    H166041   2.382   5.104   0.955 -1.1348 -1.0912 -1.3334
14850TIP3    H266042   2.287   5.007   1.022 -1.0926  0.5581  1.2908
14851TIP3   OH266043   4.355   4.791   1.202 -0.4800  0.0950 -0.0775
14851TIP3    H166044   4.447   4.785   1.174 -0.1852 -1.2398  1.0802
14851TIP3    H266045   4.328   4.879   1.175  0.7727  0.1003 -1.4820
14852TIP3   OH266046   0.781   5.052   1.628  0.2821  0.3107 -0.3261
14852TIP3    H166047   0.700   5.051   1.578  0.7925  1.9822 -1.2481
14852TIP3    H266048   0.771   5.123   1.691  0.1871 -0.9085  1.1056
14853TIP3   OH266049   0.411   4.032   1.121  0.5860 -0.4799  0.2144
14853TIP3    H166050   0.437   4.117   1.157 -0.4522  1.4870 -3.2840
14853TIP3    H266051   0.334   4.008   1.172 -0.8773  2.2059 -0.5245
14854TIP3   OH266052   5.476   5.488  10.887  0.0835 -0.0514  0.1492
14854TIP3    H166053   5.507   5.418  10.829  0.0879  1.3588 -1.6516
14854TIP3    H266054   5.555   5.538  10.908 -0.3595  1.4022 -1.4456
14855TIP3   OH266055   5.033   2.297  11.641  0.0112  0.2850  0.1140
14855TIP3    H166056   4.939   2.286  11.660 -0.0208 -1.0263 -0.6685
14855TIP3    H266057   5.056   2.219  11.589  1.0546  1.5997 -1.4885
14856TIP3   OH266058   2.467   2.101  12.674  0.0613  0.4545 -0.4371
14856TIP3    H166059   2.396   2.047  12.709  1.2549 -2.8513 -2.6221
14856TIP3    H266060   2.531   2.106  12.746 -0.9553  0.7312  0.4695
14857TIP3   OH266061   1.778   1.659   4.937 -0.1087  0.7435  0.2019
14857TIP3    H166062   1.781   1.576   4.889  0.8644  0.7618  0.2091
14857TIP3    H266063   1.868   1.674   4.964 -0.4117  1.4250  0.8659
14858TIP3   OH266064   4.471   5.806  16.865  0.1125 -0.0339 -0.2039
14858TIP3    H166065   4.553   5.778  16.825 -0.5102  0.7245 -2.1666
14858TIP3    H266066   4.495   5.840  16.951  2.0381  1.3302 -1.2262
14859TIP3   OH266067   5.639   0.598   5.737 -0.3016  0.0256  0.4293
14859TIP3    H166068   5.681   0.526   5.690  0.6314  0.8752 -0.0733
14859TIP3    H266069   5.621   0.563   5.824  1.3279 -0.4185  0.6130
14860TIP3   OH266070   1.008   0.268   3.767 -0.8318 -0.4934  0.5152
14860TIP3    H166071   0.954   0.331   3.815 -0.3514  0.5421 -0.2908
14860TIP3    H266072   0.948   0.227   3.705 -0.9085 -0.0707  0.3122
14861TIP3   OH266073   5.629   0.055  13.974 -0.3854  0.2023  0.2422
14861TIP3    H166074   5.577   0.106  13.912  0.4756  1.5978  0.6021
14861TIP3    H266075   5.621   0.103  14.057  2.4213  1.2314  0.0414
14862TIP3   OH266076   3.202   3.834  15.244  0.2697 -0.1161 -0.7698
14862TIP3    H166077   3.226   3.837  15.151  0.7324 -0.0562 -0.6482
14862TIP3    H266078   3.285   3.833  15.291  0.0672 -1.6015 -0.3946
14863TIP3   OH266079   2.881   0.770   2.557  0.1887 -0.1622 -0.2647
14863TIP3    H166080   2.834   0.687   2.565  0.6594 -0.2540  2.6134
14863TIP3    H266081   2.874   0.810   2.644  1.1183  2.2133 -1.1892
14864TIP3   OH266082   0.560   2.375   2.339 -0.2295 -0.0485  0.3720
14864TIP3    H166083   0.552   2.315   2.414  0.6766 -0.9378 -0.2174
14864TIP3    H266084   0.471   2.384   2.306 -0.4210 -0.8722  0.6305
14865TIP3   OH266085   0.725   5.050  12.254 -0.0648  0.5635  0.1397
14865TIP3    H166086   0.721   5.013  12.342  0.7843 -1.0866 -0.4731
14865TIP3    H266087   0.786   4.994  12.207 -0.3470  1.5292 -1.4568
14866TIP3   OH266088   5.073   1.642   3.033 -0.5047  0.1379  0.0843
14866TIP3    H166089   5.067   1.656   2.939 -0.1312  1.4935  0.2401
14866TIP3    H266090   5.159   1.677   3.058 -1.9248  3.0452  1.3971
14867TIP3   OH266091   0.944   5.413   1.216 -0.3832 -0.7131 -0.0086
14867TIP3    H166092   0.929   5.392   1.124  0.3431  1.1680 -0.5819
14867TIP3    H266093   0.856   5.414   1.255 -0.9241  0.6860 -1.2000
14868TIP3   OH266094   4.008   5.574   4.382  0.6702  0.3667 -0.2828
14868TIP3    H166095   4.071   5.573   4.310  0.4330 -0.0824 -0.4956
14868TIP3    H266096   4.054   5.615   4.455  1.3870 -0.4117 -0.2779
14869TIP3   OH266097   1.214   4.943  11.317 -0.2294 -0.1595 -0.1421
14869TIP3    H166098   1.235   5.035  11.300  1.0808  0.0418  2.0835
14869TIP3    H266099   1.276   4.894  11.262  0.6698  0.3645  0.3677
14870TIP3   OH266100   5.252   1.089  11.267  0.0043  0.2345 -0.3069
14870TIP3    H166101   5.183   1.128  11.320  0.2270  0.0039  0.1641
14870TIP3    H266102   5.206   1.034  11.204 -0.2626  0.4873 -0.3354
14871TIP3   OH266103   6.291   3.707  17.443  0.0812 -0.3598 -0.3459
14871TIP3    H166104   6.346   3.710  17.364  1.9658 -0.0957  0.9043
14871TIP3    H266105   6.353   3.699  17.515 -1.6434 -1.7706  1.0781
14872TIP3   OH266106   2.401   1.281   4.243 -0.1558  0.4571  0.3285
14872TIP3    H166107   2.470   1.280   4.310 -1.6144  0.4635  1.9117
14872TIP3    H266108   2.433   1.222   4.175  1.3309  0.3214  1.1066
14873TIP3   OH266109   5.366   5.873  12.508  0.1045 -0.0268  0.1728
14873TIP3    H166110   5.327   5.847  12.591  1.2818 -0.5666  0.5894
14873TIP3    H266111   5.409   5.794  12.476 -1.1915 -0.1101 -1.4893
14874TIP3   OH266112   3.145   5.865   3.130 -0.2044 -0.3990 -0.5750
14874TIP3    H166113   3.153   5.807   3.055 -1.2722  1.4634 -2.2282
14874TIP3    H266114   3.058   5.904   3.121  0.2129  0.9528  0.8245
14875TIP3   OH266115   3.206   5.650  11.017  0.1376 -0.4241  0.9169
14875TIP3    H166116   3.136   5.603  11.062 -1.7553 -0.7897 -2.1150
14875TIP3    H266117   3.164   5.730  10.986  1.5391  0.1388  0.4213
14876TIP3   OH266118   5.832   5.557  14.066 -0.4360 -0.1090  0.4380
14876TIP3    H166119   5.845   5.630  14.005 -1.2737 -0.6781 -0.4534
14876TIP3    H266120   5.797   5.597  14.145  3.0479  1.0022  1.5995
14877TIP3   OH266121   4.773   4.881   1.710  0.4998 -0.2457 -0.5099
14877TIP3    H166122   4.727   4.865   1.628 -2.0989 -1.9888  1.1176
14877TIP3    H266123   4.824   4.801   1.724  0.1340 -0.3985  0.0079
14878TIP3   OH266124   3.307   2.832  11.589 -0.8965  0.1665 -0.4567
14878TIP3    H166125   3.383   2.839  11.531 -0.0130  1.0025  0.7526
14878TIP3    H266126   3.245   2.777  11.540  0.4228 -0.4502 -1.5240
14879TIP3   OH266127   4.026   2.846   4.520 -0.8050  0.2814  0.4288
14879TIP3    H166128   4.079   2.816   4.446 -0.2511  0.8698  0.5821
14879TIP3    H266129   3.936   2.846   4.486 -0.4553  1.5237 -0.5859
14880TIP3   OH266130   0.010   3.014   2.340  0.5244  0.2856 -0.3958
14880TIP3    H166131   0.072   3.084   2.361  1.3400 -1.1836  2.6198
14880TIP3    H266132   0.061   2.951   2.289  0.4759  0.7007 -0.9716
14881TIP3   OH266133   5.290   5.819  10.559  0.3671  0.5346  0.4207
14881TIP3    H166134   5.350   5.886  10.592  1.0155 -0.4440  1.2861
14881TIP3    H266135   5.247   5.861  10.484  0.0326  2.2575  1.5045
14882TIP3   OH266136   3.125   4.303  16.340  0.2630  0.7926  0.5386
14882TIP3    H166137   3.118   4.287  16.434  2.3339  0.6225  0.7138
14882TIP3    H266138   3.071   4.380  16.324 -1.2805 -0.0204  1.5837
14883TIP3   OH266139   2.749   2.776  17.150  0.0450 -0.1365  0.0971
14883TIP3    H166140   2.811   2.835  17.107 -1.5972  1.0256 -0.7949
14883TIP3    H266141   2.699   2.833  17.209  1.2238 -1.4360  2.4997
14884TIP3   OH266142   4.178   5.992  16.313  0.4320  0.3992  0.1248
14884TIP3    H166143   4.135   6.016  16.395  0.5574 -0.4416  0.4538
14884TIP3    H266144   4.183   5.896  16.316  1.3196  0.4140 -0.4156
14885TIP3   OH266145   0.104   2.737  15.687  0.1343 -0.0134  0.1606
14885TIP3    H166146   0.199   2.738  15.672  0.3228 -0.7626  1.2050
14885TIP3    H266147   0.070   2.807  15.631  1.5028  1.5644  1.2254
14886TIP3   OH266148   6.372   0.971  12.894  0.1941 -0.0790  0.3448
14886TIP3    H166149   6.403   0.942  12.980 -0.0575  0.0584  0.4840
14886TIP3    H266150   6.325   0.895  12.859  1.1051 -0.4565 -0.0794
14887TIP3   OH266151   3.510   1.403  17.167 -0.1764 -0.4016 -0.1296
14887TIP3    H166152   3.437   1.386  17.227  0.1190 -2.2189 -0.2123
14887TIP3    H266153   3.563   1.469  17.212 -1.9986  1.1991 -0.2173
14888TIP3   OH266154   6.768   4.783  16.909 -0.1998  0.1285 -0.1154
14888TIP3    H166155   6.830   4.754  16.842 -0.8014 -1.9697  0.1600
14888TIP3    H266156   6.682   4.772  16.869 -0.6765 -2.7067  1.4268
14889TIP3   OH266157   5.842   6.191   0.056  0.4430  0.8443  0.2343
14889TIP3    H166158   5.794   6.180  -0.026  0.4703 -2.5486  0.5101
14889TIP3    H266159   5.774   6.192   0.123  0.5421 -0.0150  0.3617
14890TIP3   OH266160   2.991   3.576   2.053 -0.0042  0.5067  0.0544
14890TIP3    H166161   3.083   3.581   2.027 -0.3454  0.5323 -1.2169
14890TIP3    H266162   2.977   3.652   2.108  0.7481  0.4780  0.2964
14891TIP3   OH266163   3.091   2.986  17.324 -0.1452 -0.4880 -0.3132
14891TIP3    H166164   3.150   2.999  17.250  1.6069  0.7119  1.1806
14891TIP3    H266165   3.049   2.902  17.307  2.2480 -1.5902 -1.3438
14892TIP3   OH266166   4.014   4.667  13.291  0.0472 -0.4552 -0.2538
14892TIP3    H166167   3.991   4.591  13.238  0.5963  0.0739 -1.2605
14892TIP3    H266168   4.106   4.654  13.314 -0.0631 -0.4577  0.2127
14893TIP3   OH266169   6.580   3.422   4.624  0.3551 -0.1586 -0.3267
14893TIP3    H166170   6.642   3.460   4.563  1.2676  0.0959  0.7440
14893TIP3    H266171   6.605   3.330   4.630 -0.8663 -0.6232 -1.6937
14894TIP3   OH266172   4.035   3.525  15.786 -0.8417  0.2793 -0.3703
14894TIP3    H166173   4.113   3.487  15.746 -0.7013  1.7573 -1.5618
14894TIP3    H266174   4.058   3.616  15.802 -1.8585  0.3920  0.5475
14895TIP3   OH266175   4.811   1.750   0.411 -0.1694 -0.2180  0.1080
14895TIP3    H166176   4.766   1.708   0.337 -1.0077  2.5500 -1.0985
14895TIP3    H266177   4.867   1.816   0.370 -3.0944  3.7172  1.8728
14896TIP3   OH266178   3.915   0.897  14.970 -0.0846  0.2453 -0.1148
14896TIP3    H166179   3.983   0.866  15.029  0.2488 -2.6829 -1.8637
14896TIP3    H266180   3.834   0.889  15.020  0.4258 -0.0764  0.6689
14897TIP3   OH266181   2.625   0.362   0.503  0.0375 -0.0445  0.2267
14897TIP3    H166182   2.679   0.386   0.579 -1.9279  0.6383  1.4936
14897TIP3    H266183   2.609   0.268   0.514  0.2491 -0.0679  0.3355
14898TIP3   OH266184   3.426   0.840   2.160  0.0463  0.0662  0.2197
14898TIP3    H166185   3.464   0.768   2.112 -0.5007  0.7452 -1.2864
14898TIP3    H266186   3.358   0.800   2.214  0.5734 -0.6852  0.3402
14899TIP3   OH266187   6.684   0.889   1.007  0.0252 -0.4503 -0.2624
14899TIP3    H166188   6.749   0.917   0.942  0.2763 -1.6277 -0.5483
14899TIP3    H266189   6.613   0.850   0.955 -0.6918  0.3712  0.0773
14900TIP3   OH266190   3.604   5.068   4.789  0.4927  0.9875 -0.3448
14900TIP3    H166191   3.694   5.084   4.761  0.6281  2.2218  0.6779
14900TIP3    H266192   3.586   5.138   4.852 -0.7465  0.0060  0.4425
14901TIP3   OH266193   1.278   5.091  12.585  0.9308  0.4322 -0.3102
14901TIP3    H166194   1.261   5.010  12.537 -0.9779  1.3442 -1.2575
14901TIP3    H266195   1.275   5.159  12.518  0.3759  1.5103  0.7900
14902TIP3   OH266196   1.181   5.623  15.486 -0.1789 -0.0334 -0.3699
14902TIP3    H166197   1.235   5.679  15.541  0.3818 -0.0715 -0.8738
14902TIP3    H266198   1.240   5.552  15.459 -0.6142 -0.3387 -0.5362
14903TIP3   OH266199   4.625   5.672  12.125 -0.7171 -0.2884 -0.5724
14903TIP3    H166200   4.632   5.607  12.195  2.9884  0.9410  0.4203
14903TIP3    H266201   4.544   5.719  12.145 -1.0398 -1.5583  1.4291
14904TIP3   OH266202   3.330   6.731  16.116  0.0235 -0.5462 -0.4110
14904TIP3    H166203   3.247   6.693  16.144 -0.8054 -1.0895 -3.2627
14904TIP3    H266204   3.375   6.754  16.198 -2.1960 -1.7447  1.2575
14905TIP3   OH266205   5.591   0.888   5.724  0.0234 -0.0416 -0.2217
14905TIP3    H166206   5.589   0.794   5.707 -2.7932  0.0689 -0.8749
14905TIP3    H266207   5.547   0.898   5.808 -0.0093  0.7126 -0.3238
14906TIP3   OH266208   0.470   4.593   2.366 -0.1882 -0.1163  0.5716
14906TIP3    H166209   0.449   4.671   2.314  1.7393 -0.4400 -0.7940
14906TIP3    H266210   0.506   4.628   2.447 -0.8656  0.4021  0.6585
14907TIP3   OH266211   3.426   3.811  17.369 -0.0351 -0.6875 -0.1413
14907TIP3    H166212   3.365   3.857  17.427  1.4459 -0.2725  1.1860
14907TIP3    H266213   3.371   3.760  17.311 -1.8068  2.3294 -1.3634
14908TIP3   OH266214   3.057   3.102   0.500  0.2962  0.1900 -0.2787
14908TIP3    H166215   3.087   3.107   0.591 -0.4030  0.0590 -0.0317
14908TIP3    H266216   3.031   3.011   0.489  1.1756  0.0036 -0.8783
14909TIP3   OH266217   1.050   2.883  16.440  0.8345 -0.2147 -0.2536
14909TIP3    H166218   1.042   2.968  16.484 -1.5608 -0.5227  0.0228
14909TIP3    H266219   1.046   2.904  16.347 -0.1236 -0.0377 -0.1787
14910TIP3   OH266220   5.986   4.021   1.087  0.1592  0.3804 -0.4589
14910TIP3    H166221   5.923   4.030   1.159 -1.8095  0.0592 -2.0714
14910TIP3    H266222   5.972   4.098   1.033  1.2239  0.3281 -0.8292
14911TIP3   OH266223   2.867   2.270   6.374 -0.1405 -0.0307 -0.3051
14911TIP3    H166224   2.816   2.295   6.451 -0.4512  0.1190 -0.5578
14911TIP3    H266225   2.802   2.235   6.313 -0.1794  1.5536 -1.2250
14912TIP3   OH266226   4.437   5.410  16.084  0.0867 -0.2814  0.0299
14912TIP3    H166227   4.380   5.344  16.047  1.4191 -0.2494 -2.2381
14912TIP3    H266228   4.415   5.491  16.037 -1.8500  1.1675  3.0585
14913TIP3   OH266229   2.189   3.120  16.070  0.0028  0.5128  0.9022
14913TIP3    H166230   2.142   3.096  16.149  0.4966 -0.0703  1.0212
14913TIP3    H266231   2.280   3.133  16.099  0.4396 -0.8708  0.2457
14914TIP3   OH266232   3.890   1.013   5.589  0.2859  0.0062 -0.4047
14914TIP3    H166233   3.934   1.071   5.651  0.7129 -1.1964  0.4444
14914TIP3    H266234   3.927   0.927   5.606 -1.6142 -0.8557 -0.4045
14915TIP3   OH266235   1.571   4.268   3.523 -0.2476  0.5716  0.0820
14915TIP3    H166236   1.644   4.302   3.575  0.6924 -0.9741 -0.1532
14915TIP3    H266237   1.559   4.332   3.453  0.2773  1.3023  0.6515
14916TIP3   OH266238   0.778   1.638   0.720  0.2470 -0.1479  0.7030
14916TIP3    H166239   0.817   1.720   0.691  0.2983 -0.7510 -1.0777
14916TIP3    H266240   0.690   1.661   0.748  0.7913  0.7371  1.7920
14917TIP3   OH266241   2.231   5.825   1.134  0.0899  0.3224  0.1605
14917TIP3    H166242   2.251   5.770   1.210  0.2761  0.0307 -0.0939
14917TIP3    H266243   2.140   5.805   1.112  0.0084  0.4767  0.3675
14918TIP3   OH266244   2.043   0.277   6.846  0.3179 -0.4554  0.5724
14918TIP3    H166245   2.010   0.216   6.780  2.1390 -1.5127  0.5720
14918TIP3    H266246   2.031   0.231   6.929 -0.4535  0.1930  0.8351
14919TIP3   OH266247   6.734   1.199  14.634 -0.0422 -0.6416 -0.0770
14919TIP3    H166248   6.750   1.163  14.547  0.0888  0.9038 -0.7340
14919TIP3    H266249   6.751   1.293  14.624 -0.9167 -0.3017  1.3977
14920TIP3   OH266250   5.600   4.427  12.937 -0.4528  0.7948 -0.7832
14920TIP3    H166251   5.542   4.476  12.995 -0.3760  0.1168 -0.1201
14920TIP3    H266252   5.663   4.492  12.905 -1.0612  1.3610 -0.8503
14921TIP3   OH266253   2.057   5.822   6.378  0.0313  0.1838 -0.7499
14921TIP3    H166254   2.128   5.855   6.433  0.4414 -0.7554 -0.6924
14921TIP3    H266255   2.089   5.831   6.288 -0.6620  1.7720 -0.8591
14922TIP3   OH266256   6.663   3.974  17.375 -0.2428  0.1053  0.1411
14922TIP3    H166257   6.654   4.011  17.463 -0.6865  1.7569 -0.5706
14922TIP3    H266258   6.756   3.952  17.367  0.2314  1.9334  0.2874
14923TIP3   OH266259   0.549   5.189   4.742  0.1473  0.4892 -0.1897
14923TIP3    H166260   0.502   5.231   4.813 -2.9234 -1.9007 -0.5935
14923TIP3    H266261   0.582   5.107   4.779 -1.6647 -0.8889 -1.4440
14924TIP3   OH266262   3.854   2.684   0.432 -0.9703 -0.3784  0.0874
14924TIP3    H166263   3.778   2.659   0.485 -0.9743  2.2378  1.4865
14924TIP3    H266264   3.823   2.759   0.381  0.5456  0.4671  0.3750
14925TIP3   OH266265   4.964   6.106   5.855  0.4203  0.3178 -0.2025
14925TIP3    H166266   5.004   6.063   5.931  0.6911 -0.2114 -0.6317
14925TIP3    H266267   4.876   6.070   5.850  0.2540  0.6712  0.1038
14926TIP3   OH266268   6.722   0.058   6.594  0.0047 -0.1915 -0.0964
14926TIP3    H166269   6.746   0.150   6.589 -2.8225  0.5750 -1.1474
14926TIP3    H266270   6.791   0.012   6.545  0.6131  1.5249 -0.9203
14927TIP3   OH266271   6.778   0.114  15.951 -0.0261  0.1016 -0.0122
14927TIP3    H166272   6.817   0.083  16.034 -2.1203 -0.4210  0.8573
14927TIP3    H266273   6.827   0.068  15.883  2.4495  1.3268  0.8138
14928TIP3   OH266274   0.608   1.129  16.582 -0.4179 -0.1562  0.3413
14928TIP3    H166275   0.574   1.072  16.513 -3.2617  1.0302  0.6182
14928TIP3    H266276   0.657   1.197  16.535  1.2449 -1.5975 -0.1227
14929TIP3   OH266277   6.071   3.699  16.059 -0.0907 -0.0445  0.0420
14929TIP3    H166278   6.163   3.703  16.034 -0.8694  0.7951 -3.1226
14929TIP3    H266279   6.046   3.790  16.076  0.0234 -0.4408  2.7873
14930TIP3   OH266280   6.747   5.007  13.978  0.1683  0.3426 -1.0296
14930TIP3    H166281   6.786   4.952  14.046  0.1892 -0.2016 -1.4709
14930TIP3    H266282   6.735   5.092  14.020 -0.5240 -0.1893 -0.1108
14931TIP3   OH266283   3.080   6.574  12.691 -0.0956  0.0808 -0.1600
14931TIP3    H166284   3.164   6.599  12.729  0.4187 -1.2739 -0.3727
14931TIP3    H266285   3.102   6.517  12.618 -1.1915 -0.0057 -0.4485
14932TIP3   OH266286   6.192   5.859  16.014  0.0846 -0.2940  0.1599
14932TIP3    H166287   6.139   5.789  16.052  0.2774 -1.0068 -0.8423
14932TIP3    H266288   6.275   5.817  15.992  0.2562  0.2767 -0.3233
14933TIP3   OH266289   5.522   0.425   3.324  0.6096  0.2437  0.0458
14933TIP3    H166290   5.433   0.438   3.355  0.4925 -0.2371 -0.0881
14933TIP3    H266291   5.563   0.512   3.332 -0.1897  0.7262 -0.9334
14934TIP3   OH266292   4.335   3.068   3.100  0.2501  0.4318 -0.3746
14934TIP3    H166293   4.336   2.978   3.130  1.9504  0.6118  0.2137
14934TIP3    H266294   4.408   3.110   3.146 -0.7433  2.2123 -0.3190
14935TIP3   OH266295   6.379   2.291  12.193 -0.1638 -0.3250 -0.0947
14935TIP3    H166296   6.295   2.250  12.173  0.2166  0.4356 -4.2306
14935TIP3    H266297   6.359   2.384  12.203  0.0207 -0.3219  0.2489
14936TIP3   OH266298   5.637   2.379  14.138  0.1318  0.2499  0.2713
14936TIP3    H166299   5.542   2.375  14.149  0.2361 -1.2976  0.8706
14936TIP3    H266300   5.649   2.416  14.050 -1.0316 -0.0082 -0.0223
14937TIP3   OH266301   1.856   2.170   1.691  0.1733  0.3503  0.2252
14937TIP3    H166302   1.878   2.203   1.778 -2.2014 -1.0185  1.4614
14937TIP3    H266303   1.785   2.226   1.662  0.5019  0.3766 -0.5295
14938TIP3   OH266304   0.410   5.239   5.195 -0.6325  0.4255  0.0465
14938TIP3    H166305   0.492   5.261   5.150  0.7427 -1.3143  1.5419
14938TIP3    H266306   0.381   5.158   5.154 -0.7695  0.2019  0.5846
14939TIP3   OH266307   2.666   4.496  16.569 -0.0583  0.5684 -0.1402
14939TIP3    H166308   2.653   4.514  16.662 -1.1331 -0.3269 -0.0967
14939TIP3    H266309   2.700   4.406  16.567  0.2259  0.6823 -0.6099
14940TIP3   OH266310   0.250   5.425  16.244  0.2347 -0.2309  0.2379
14940TIP3    H166311   0.215   5.510  16.216 -0.0634 -0.1703  0.7991
14940TIP3    H266312   0.308   5.399  16.172  2.0460  1.4608  1.0025
14941TIP3   OH266313   5.343   2.935   2.701  0.1795 -0.2880  0.1529
14941TIP3    H166314   5.375   2.911   2.788  0.4268 -2.0379 -0.3873
14941TIP3    H266315   5.419   2.972   2.656 -0.2045  1.6441  0.9954
14942TIP3   OH266316   3.472   5.056  15.215  0.2184  0.2221 -0.6935
14942TIP3    H166317   3.407   5.080  15.149 -0.7567  0.3095  0.2582
14942TIP3    H266318   3.457   4.963  15.231  0.9952  0.0064 -1.1611
14943TIP3   OH266319   6.376   3.635  10.621 -0.1716  0.5700 -0.5546
14943TIP3    H166320   6.400   3.551  10.659 -2.0103  0.7773  1.2088
14943TIP3    H266321   6.361   3.616  10.528  0.7401 -0.7357 -0.4592
14944TIP3   OH266322   5.686   2.204   2.180  0.3366 -0.7252 -0.4075
14944TIP3    H166323   5.654   2.114   2.184  0.2364 -0.8142 -2.2202
14944TIP3    H266324   5.622   2.250   2.127  0.0438  0.6058  1.0569
14945TIP3   OH266325   0.197   0.634  16.358  0.0862  0.3487 -0.0315
14945TIP3    H166326   0.212   0.637  16.264 -1.5833 -0.7260 -0.3915
14945TIP3    H266327   0.178   0.724  16.383  3.0206  1.1163 -0.1838
14946TIP3   OH266328   4.611   3.332   0.135  0.0041 -0.0023  0.2799
14946TIP3    H166329   4.517   3.319   0.150 -0.0088 -0.2437 -0.0081
14946TIP3    H266330   4.625   3.305   0.044  0.5005 -0.7522  0.5660
14947TIP3   OH266331   5.815   4.322  14.941 -0.3288 -0.1411 -0.4464
14947TIP3    H166332   5.736   4.350  14.987 -0.2329  0.3492 -0.5748
14947TIP3    H266333   5.810   4.226  14.941  0.6477 -0.2720  2.3517
14948TIP3   OH266334   5.585   6.495  17.042 -0.0632  0.4089  0.4871
14948TIP3    H166335   5.648   6.542  17.096  0.5159 -0.1020  0.2598
14948TIP3    H266336   5.530   6.564  17.004  1.3782  0.9934 -0.6201
14949TIP3   OH266337   1.101   4.276   5.139 -0.0060  0.5816 -0.7240
14949TIP3    H166338   1.087   4.336   5.213 -1.5398  0.6873 -1.0699
14949TIP3    H266339   1.175   4.222   5.166 -2.1229 -1.1804  2.0701
14950TIP3   OH266340   2.898   2.136  16.566 -0.2126  0.1017 -0.2881
14950TIP3    H166341   2.867   2.216  16.609  0.1612 -0.3431  0.8484
14950TIP3    H266342   2.847   2.066  16.607  0.3769 -0.3667 -0.3545
14951TIP3   OH266343   0.131   6.001  11.671 -0.2140 -0.1753  0.5533
14951TIP3    H166344   0.143   5.948  11.592 -0.7860 -1.5814  1.3717
14951TIP3    H266345   0.096   6.084  11.640 -1.7373 -1.1920 -0.5768
14952TIP3   OH266346   3.130   6.384  11.172  0.3719 -0.3363  0.2349
14952TIP3    H166347   3.083   6.351  11.249  1.5488 -0.8550  0.7641
14952TIP3    H266348   3.066   6.381  11.101 -0.7089  0.0482  1.1605
14953TIP3   OH266349   6.288   3.461  12.389 -0.3534 -0.0003  1.0568
14953TIP3    H166350   6.252   3.498  12.308  0.0404 -0.2122  0.7833
14953TIP3    H266351   6.217   3.471  12.453 -1.2052 -1.1702  0.3218
14954TIP3   OH266352   5.778   2.544   4.943  0.1458  0.0130  0.3398
14954TIP3    H166353   5.702   2.554   5.001  0.4402  2.5511  0.3862
14954TIP3    H266354   5.749   2.579   4.859  1.0018  0.2031  0.1158
14955TIP3   OH266355   6.668   6.438  14.019  0.5194  0.1877 -0.2425
14955TIP3    H166356   6.635   6.486  13.942  1.6335 -0.1395 -0.9487
14955TIP3    H266357   6.693   6.507  14.081  1.6482  0.5366 -1.0537
14956TIP3   OH266358   1.068   4.800  15.738  0.1055 -0.1789  0.7640
14956TIP3    H166359   0.998   4.760  15.790 -1.3558  1.7833  0.4454
14956TIP3    H266360   1.041   4.786  15.647 -0.6445  1.7193  0.6414
14957TIP3   OH266361   1.634   1.033  13.513  0.2818  0.0892 -0.8244
14957TIP3    H166362   1.695   1.021  13.586  0.6918 -2.2814 -1.4688
14957TIP3    H266363   1.683   1.088  13.451  0.2019  1.5131  0.3126
14958TIP3   OH266364   6.467   5.075  13.215 -0.3143 -0.1717  0.6416
14958TIP3    H166365   6.381   5.054  13.180 -0.2460  1.6715 -0.7210
14958TIP3    H266366   6.528   5.039  13.151 -0.1623  1.6131 -0.2622
14959TIP3   OH266367   5.012   6.281  13.817  0.6362 -0.3538 -0.2653
14959TIP3    H166368   5.096   6.327  13.814  0.9473 -0.8886 -0.0041
14959TIP3    H266369   4.979   6.286  13.727  0.9995 -0.2255 -0.3945
14960TIP3   OH266370   2.290   1.639   3.410 -0.3425  0.2213 -0.2166
14960TIP3    H166371   2.352   1.645   3.338 -0.8783  0.3745 -0.6719
14960TIP3    H266372   2.266   1.730   3.429  1.4327  0.3812  1.6240
14961TIP3   OH266373   5.312   5.408  17.412 -0.2378  0.0737 -0.3633
14961TIP3    H166374   5.241   5.462  17.446 -0.8626 -1.3975  0.7276
14961TIP3    H266375   5.389   5.465  17.417 -0.6118  0.4824  2.0037
14962TIP3   OH266376   6.085   0.328   4.237  0.8595  0.3461  0.5977
14962TIP3    H166377   6.134   0.397   4.282  0.3156 -0.1757  2.0306
14962TIP3    H266378   6.146   0.254   4.232  0.5625  0.0206  1.5299
14963TIP3   OH266379   5.507   4.700   3.535  1.4039 -0.2452 -0.1861
14963TIP3    H166380   5.573   4.677   3.469  0.4202  2.5747 -2.3621
14963TIP3    H266381   5.518   4.634   3.603  4.6606 -1.4676 -1.6585
14964TIP3   OH266382   1.048   2.733  13.514 -0.3233 -0.2137 -0.2903
14964TIP3    H166383   0.987   2.712  13.443  0.7119 -0.3947 -1.1580
14964TIP3    H266384   1.110   2.660  13.515  0.4277  0.4111 -0.0609
14965TIP3   OH266385   1.796   3.487   5.379 -0.1578  0.6589  0.2277
14965TIP3    H166386   1.780   3.576   5.347 -2.7276  0.4890  0.8564
14965TIP3    H266387   1.773   3.491   5.472 -2.4493 -1.0851 -0.1709
14966TIP3   OH266388   6.345   5.921  14.415  0.0232  0.3119 -0.1914
14966TIP3    H166389   6.266   5.948  14.369 -0.2742 -1.1117 -0.5778
14966TIP3    H266390   6.325   5.935  14.507 -0.2701  0.9563 -0.3463
14967TIP3   OH266391   0.312   3.879   5.217  0.5496 -0.5725 -0.4890
14967TIP3    H166392   0.246   3.892   5.149  0.5592 -0.2901 -0.4483
14967TIP3    H266393   0.358   3.963   5.222  0.6225 -0.6270 -0.2152
14968TIP3   OH266394   5.074   2.073   0.739  0.0074 -0.1662  0.4183
14968TIP3    H166395   5.150   2.127   0.761  0.9750 -1.7948  1.3404
14968TIP3    H266396   5.053   2.096   0.649  0.4517  1.6058  0.7280
14969TIP3   OH266397   2.163   6.179  13.698 -0.1084  0.4527  0.7088
14969TIP3    H166398   2.201   6.186  13.785 -0.8018  2.0885  0.9345
14969TIP3    H266399   2.237   6.190  13.638  0.3427 -0.4858  1.0824
14970TIP3   OH266400   6.292   2.300  14.294  0.1649 -0.0326 -0.0717
14970TIP3    H166401   6.319   2.382  14.252 -0.2679  0.4941  0.6615
14970TIP3    H266402   6.360   2.237  14.269  0.2307  0.4113 -1.0622
14971TIP3   OH266403   5.988   5.990  12.127  0.1937 -0.2212 -0.3785
14971TIP3    H166404   5.931   5.919  12.158 -0.1891  0.6779  1.0427
14971TIP3    H266405   5.981   6.058  12.194  1.3087  0.7778 -1.2342
14972TIP3   OH266406   6.768   0.363  16.051 -0.0707 -0.7983  0.1890
14972TIP3    H166407   6.777   0.344  16.145 -1.8842 -1.2593  0.3022
14972TIP3    H266408   6.767   0.276  16.010 -1.9600 -0.7461  0.0479
14973TIP3   OH266409   5.930   1.177  16.842 -0.5011  0.4194  0.7490
14973TIP3    H166410   5.914   1.247  16.780 -1.1822 -0.9140 -0.6592
14973TIP3    H266411   5.942   1.099  16.787  1.7892 -0.3270  2.1679
14974TIP3   OH266412   6.774   0.937   2.911  0.1190 -0.2293  0.2343
14974TIP3    H166413   6.778   1.007   2.846  0.8114  0.5513  1.0814
14974TIP3    H266414   6.801   0.979   2.993  0.1593 -1.3985  0.8418
14975TIP3   OH266415   6.156   3.920   1.442 -0.2739 -0.1350 -0.7998
14975TIP3    H166416   6.098   3.866   1.388  1.0304 -1.0894 -1.2871
14975TIP3    H266417   6.126   4.010   1.427 -1.7545 -0.6038 -0.8604
14976TIP3   OH266418   4.807   3.940   7.000  0.4482  0.1702  0.2467
14976TIP3    H166419   4.819   3.860   7.051 -0.5145 -1.2928 -1.6585
14976TIP3    H266420   4.893   3.958   6.961  0.2579 -1.1254 -0.8548
14977TIP3   OH266421   5.125   1.127  12.385  0.1046 -0.4269 -0.6606
14977TIP3    H166422   5.169   1.179  12.317  0.2336  1.4115  0.7556
14977TIP3    H266423   5.190   1.119  12.455 -0.2043 -1.8363 -0.5137
14978TIP3   OH266424   3.723   1.626   5.384 -0.8105 -0.0733 -0.0640
14978TIP3    H166425   3.723   1.535   5.356  1.3208 -0.2748  0.3829
14978TIP3    H266426   3.653   1.632   5.449 -0.0872 -1.7656  0.9509
14979TIP3   OH266427   0.052   5.521  15.984  0.0980 -0.3107 -0.0681
14979TIP3    H166428   0.115   5.574  15.934  1.0086 -0.5482  0.7913
14979TIP3    H266429  -0.023   5.579  15.997 -0.0722 -0.1608 -1.4804
14980TIP3   OH266430   0.221   2.429   5.336 -0.0659  0.0268  0.1939
14980TIP3    H166431   0.254   2.509   5.377  0.5732  0.1806 -0.5909
14980TIP3    H266432   0.284   2.410   5.266  0.0360 -1.4086  0.6372
14981TIP3   OH266433   5.537   1.367  12.110 -0.6531  0.3488 -0.3156
14981TIP3    H166434   5.466   1.421  12.075  0.5612  0.9733 -1.9840
14981TIP3    H266435   5.596   1.429  12.153 -0.6400 -0.0266  0.2143
14982TIP3   OH266436   2.749   1.135  15.502 -0.2866  0.1132  0.4019
14982TIP3    H166437   2.749   1.226  15.534 -0.8488  0.5301 -0.7133
14982TIP3    H266438   2.657   1.116  15.485 -0.0963 -0.4033 -0.0729
14983TIP3   OH266439   5.635   0.158   0.072  0.1279 -0.4941  0.2595
14983TIP3    H166440   5.615   0.065   0.071 -0.0159 -0.4674 -0.8852
14983TIP3    H266441   5.553   0.200   0.044  0.6588 -0.1374 -0.7942
14984TIP3   OH266442   6.685   1.971  13.514 -0.8109  0.4095 -0.0537
14984TIP3    H166443   6.713   2.053  13.473  0.2748  0.1188  0.0835
14984TIP3    H266444   6.712   1.980  13.605 -0.8041 -0.0601 -0.0102
14985TIP3   OH266445   4.101   3.994  16.670  0.0360 -0.0575 -0.0387
14985TIP3    H166446   4.039   4.017  16.601 -0.4636  1.4035  0.8624
14985TIP3    H266447   4.179   3.963  16.623 -0.9004 -0.7410 -1.2053
14986TIP3   OH266448   1.520   3.237   0.516 -0.0103  0.2806  0.3674
14986TIP3    H166449   1.492   3.306   0.456  2.5764  0.3889 -0.8579
14986TIP3    H266450   1.558   3.284   0.590 -0.2004  0.1612  0.5400
14987TIP3   OH266451   2.359   2.472  16.052  0.0024 -0.3472 -0.1022
14987TIP3    H166452   2.426   2.537  16.033 -0.9252  0.2685 -1.4350
14987TIP3    H266453   2.367   2.456  16.146  0.9772  0.8668  0.0483
14988TIP3   OH266454   4.315   1.817   2.762  0.0583  0.3118  0.0568
14988TIP3    H166455   4.264   1.858   2.692  0.6064 -0.8607 -1.0692
14988TIP3    H266456   4.361   1.889   2.804 -1.6855  1.2762  0.4315
14989TIP3   OH266457   0.661   2.721  13.936  0.1747 -0.2197  0.2912
14989TIP3    H166458   0.713   2.657  13.888  0.8056 -0.9632  1.9025
14989TIP3    H266459   0.581   2.730  13.884  0.2787 -1.9442 -0.2300
14990TIP3   OH266460   3.287   1.622  11.195 -0.2474  0.6445 -0.0510
14990TIP3    H166461   3.371   1.615  11.150 -0.4823 -2.9431 -0.2066
14990TIP3    H266462   3.236   1.549  11.161 -2.4721  1.1240  2.0184
14991TIP3   OH266463   0.493   5.658   4.124  0.2884  0.0066 -0.0645
14991TIP3    H166464   0.421   5.694   4.176  1.4126 -0.1369  1.6725
14991TIP3    H266465   0.511   5.727   4.059 -1.1171  0.2112 -0.2864
14992TIP3   OH266466   0.545   3.774  11.439 -0.1337 -0.3335 -0.2006
14992TIP3    H166467   0.578   3.864  11.435 -1.2789  0.0542 -1.6241
14992TIP3    H266468   0.514   3.755  11.351  0.3852 -2.2740 -0.0195
14993TIP3   OH266469   1.158   6.415   6.147 -0.3436 -0.5117  0.7300
14993TIP3    H166470   1.177   6.426   6.241  0.3621  0.7623  0.4671
14993TIP3    H266471   1.178   6.323   6.129  2.1207 -0.1598  1.2951
14994TIP3   OH266472   2.819   6.383   5.206  0.4561  0.2309  0.5992
14994TIP3    H166473   2.725   6.370   5.204  0.5776 -0.6518 -0.7940
14994TIP3    H266474   2.856   6.296   5.222  1.0475  0.4363  0.3990
14995TIP3   OH266475   4.984   1.782  12.919 -0.4601 -0.2265 -0.7496
14995TIP3    H166476   5.031   1.862  12.896  0.4210 -0.4485  0.2141
14995TIP3    H266477   4.910   1.811  12.972  0.7666 -0.1472  0.9660
14996TIP3   OH266478   4.916   2.857   0.746 -0.0515 -0.0131 -0.5818
14996TIP3    H166479   4.960   2.868   0.662  1.1109  1.2608  0.1413
14996TIP3    H266480   4.972   2.904   0.808  0.3992 -2.8571  1.3492
14997TIP3   OH266481   0.551   5.602  12.917 -0.1893 -0.0540 -0.1726
14997TIP3    H166482   0.544   5.591  13.012  0.1997  0.6434 -0.0626
14997TIP3    H266483   0.482   5.665  12.895 -0.7620 -0.7658 -0.4610
14998TIP3   OH266484   2.347   1.713  15.129 -0.6365 -0.2033  0.3467
14998TIP3    H166485   2.301   1.721  15.213  0.6087  1.8948  0.8842
14998TIP3    H266486   2.436   1.688  15.153 -0.5333 -0.6343 -0.4487
14999TIP3   OH266487   0.435   1.793   4.832  0.0074  0.0893 -0.1185
14999TIP3    H166488   0.388   1.713   4.806 -0.2236 -0.1470  0.9784
14999TIP3    H266489   0.428   1.795   4.928 -0.9104  1.9964 -0.1814
15000TIP3   OH266490   2.643   6.539   6.313 -0.0404 -0.0067 -0.5395
15000TIP3    H166491   2.639   6.552   6.407  3.6552 -0.6468 -0.1377
15000TIP3    H266492   2.626   6.625   6.275 -1.6814  0.2297  0.6438
15001TIP3   OH266493   2.140   4.727   1.288 -0.3488 -0.0990 -0.0111
15001TIP3    H166494   2.161   4.787   1.216 -0.4410  0.1726  0.1881
15001TIP3    H266495   2.161   4.640   1.253  1.0170  0.1423  0.1317
15002TIP3   OH266496   2.050   2.379  13.407  0.1390 -0.0273  0.1380
15002TIP3    H166497   2.039   2.341  13.494  1.3323 -1.0426 -0.1174
15002TIP3    H266498   2.144   2.400  13.402 -0.1505  1.2035 -0.4431
15003TIP3   OH266499   1.838   3.158  11.947  0.4723 -0.0616 -0.3494
15003TIP3    H166500   1.768   3.180  11.886 -0.7214 -0.4642  0.8371
15003TIP3    H266501   1.881   3.241  11.965 -0.3687  0.3761 -0.3100
15004TIP3   OH266502   3.142   1.936  11.442  0.2186  0.3310 -0.2379
15004TIP3    H166503   3.219   1.992  11.454  1.1855 -1.0704  0.4385
15004TIP3    H266504   3.091   1.948  11.522  1.1070 -0.7245  0.5184
15005TIP3   OH266505   3.081   1.004  15.704 -0.0180  0.1933 -0.3860
15005TIP3    H166506   3.040   0.997  15.618 -1.3751 -0.3203  0.2694
15005TIP3    H266507   3.105   0.914  15.727 -0.8472  0.1383  0.3098
15006TIP3   OH266508   2.772   3.940   0.231 -0.1170  0.1257  0.2170
15006TIP3    H166509   2.832   3.997   0.279 -0.0202  0.4449 -0.2735
15006TIP3    H266510   2.764   3.981   0.144  0.7833 -1.1543 -0.5126
15007TIP3   OH266511   1.681   2.370   1.620 -0.2507 -0.3363 -0.8786
15007TIP3    H166512   1.645   2.411   1.698  0.3301  0.2080 -0.8920
15007TIP3    H266513   1.687   2.440   1.556 -0.1653 -0.6520 -1.2224
15008TIP3   OH266514   0.412   0.322  11.261 -0.0105 -0.1624 -0.0298
15008TIP3    H166515   0.362   0.385  11.208 -0.0135 -0.6399 -0.6022
15008TIP3    H266516   0.455   0.266  11.197  0.1538 -0.6228  0.4780
15009TIP3   OH266517   5.838   1.051   5.621 -0.8156 -0.5793  0.0673
15009TIP3    H166518   5.815   1.139   5.591 -0.1324 -0.7405 -0.9702
15009TIP3    H266519   5.754   1.011   5.646 -1.4492 -0.4785 -1.8067
15010TIP3   OH266520   2.896   6.154   6.994 -0.1839 -0.2511  0.0988
15010TIP3    H166521   2.883   6.231   7.049  1.4397 -1.9072  3.0448
15010TIP3    H266522   2.839   6.087   7.032  0.1750 -1.1593 -0.9090
15011TIP3   OH266523   1.044   2.531   0.551 -0.2254 -0.5079 -0.3271
15011TIP3    H166524   1.082   2.604   0.502 -0.8214 -0.2085 -0.3470
15011TIP3    H266525   1.026   2.567   0.638  1.8307 -1.3219  0.4941
15012TIP3   OH266526   5.762   4.065  12.836  0.0469 -0.0255  0.3242
15012TIP3    H166527   5.810   4.004  12.892  0.2627 -0.1426  0.0197
15012TIP3    H266528   5.805   4.056  12.750 -1.1224 -0.8216 -0.2009
15013TIP3   OH266529   6.076   2.455  12.916 -0.1453 -0.8570  0.1340
15013TIP3    H166530   6.167   2.433  12.899  0.2622  0.3451  0.6324
15013TIP3    H266531   6.053   2.518  12.848 -0.2294 -0.2692  0.6958
15014TIP3   OH266532   2.996   6.664  11.941  0.0458 -0.4173  0.8153
15014TIP3    H166533   3.019   6.572  11.955  0.9387 -0.3572 -0.2301
15014TIP3    H266534   3.079   6.711  11.947 -0.3454  0.2751  0.8650
15015TIP3   OH266535   1.088   4.898   4.380 -0.3454 -0.1260 -0.3177
15015TIP3    H166536   1.131   4.935   4.303 -0.7036  0.7553 -0.1149
15015TIP3    H266537   1.012   4.852   4.345 -0.4246  0.1443 -0.5084
15016TIP3   OH266538   3.177   0.467  13.558 -0.7687 -0.0738 -0.1179
15016TIP3    H166539   3.175   0.562  13.567 -0.0398 -0.0275 -0.3939
15016TIP3    H266540   3.248   0.450  13.496  0.2880 -0.8831  1.2399
15017TIP3   OH266541   2.568   4.009  12.005  0.0485  0.2219 -0.0470
15017TIP3    H166542   2.490   3.990  12.057 -1.2557  0.2615 -1.8997
15017TIP3    H266543   2.583   3.929  11.954 -0.1873  1.0120 -1.3996
15018TIP3   OH266544   2.060   5.456   0.380  0.0203  0.2030 -0.0664
15018TIP3    H166545   2.023   5.404   0.308  0.5237 -1.1114  0.5871
15018TIP3    H266546   2.004   5.533   0.385 -1.0003 -0.4621 -0.8204
15019TIP3   OH266547   3.937   0.956   1.028 -0.0331 -0.5712 -0.1334
15019TIP3    H166548   3.893   0.965   1.112 -0.8876 -0.9714 -0.5191
15019TIP3    H266549   3.966   1.044   1.006  2.2783 -0.8131  1.6464
15020TIP3   OH266550   5.561   2.380  11.559  0.0496 -0.1103 -0.4305
15020TIP3    H166551   5.478   2.345  11.590 -0.1321 -0.3814 -1.2050
15020TIP3    H266552   5.627   2.317  11.588 -0.4229 -2.0285 -3.1435
15021TIP3   OH266553   6.256   0.200  14.029  0.6981 -0.3700 -0.4291
15021TIP3    H166554   6.183   0.189  13.968  0.7065 -0.0362 -0.4967
15021TIP3    H266555   6.294   0.112  14.036 -1.4870 -1.2772  1.8539
15022TIP3   OH266556   2.848   0.138   0.846 -0.1862  0.4144 -0.1420
15022TIP3    H166557   2.781   0.140   0.915 -1.0959 -2.9340 -0.7607
15022TIP3    H266558   2.930   0.135   0.894 -0.6238  1.3066  0.7063
15023TIP3   OH266559   5.100   4.699  17.033  0.4505  0.3999  0.1365
15023TIP3    H166560   5.034   4.702  16.964  0.9710  0.1279 -0.3784
15023TIP3    H266561   5.175   4.655  16.993 -0.2467 -2.4303  1.7285
15024TIP3   OH266562   1.429   6.050  13.468 -0.0016  0.7080 -0.4042
15024TIP3    H166563   1.355   6.110  13.466 -0.1484  0.6096  1.1592
15024TIP3    H266564   1.488   6.087  13.534  0.9936  0.3635 -1.0694
15025TIP3   OH266565   1.143   2.969  15.917  0.4742  0.3189 -0.4387
15025TIP3    H166566   1.066   2.953  15.972  1.3353  1.0998  1.0616
15025TIP3    H266567   1.148   3.065  15.911 -0.0569  0.2579 -2.6094
15026TIP3   OH266568   0.840   2.149   2.578 -0.4045 -0.6743 -0.4917
15026TIP3    H166569   0.861   2.069   2.626 -2.0500  0.2341  1.9265
15026TIP3    H266570   0.848   2.124   2.486 -0.1383 -3.3972  0.1695
15027TIP3   OH266571   2.791   5.855   0.008 -0.0913  0.1346  0.4574
15027TIP3    H166572   2.762   5.855   0.099 -0.6423 -0.4584  0.2920
15027TIP3    H266573   2.750   5.777  -0.030 -0.8824  1.0489 -0.6136
15028TIP3   OH266574   0.212   3.063  16.797  0.0157  0.2445 -0.0204
15028TIP3    H166575   0.252   3.141  16.758  1.3498  0.6265  1.9754
15028TIP3    H266576   0.281   2.996  16.794  0.3180  0.4038  1.9232
15029TIP3   OH266577   5.646   4.334   6.292 -0.2682 -0.0987 -0.5768
15029TIP3    H166578   5.721   4.338   6.233  0.1834 -1.0440 -0.1026
15029TIP3    H266579   5.680   4.368   6.375 -0.7117  0.6155 -0.6873
15030TIP3   OH266580   0.386   3.119  12.613 -0.0260  0.4615  0.1795
15030TIP3    H166581   0.406   3.036  12.571 -0.1969  0.4862  0.0471
15030TIP3    H266582   0.296   3.138  12.588  0.4846  1.4404 -1.0710
15031TIP3   OH266583   0.777   2.551   3.690 -0.2108  0.0887  0.3488
15031TIP3    H166584   0.834   2.546   3.767 -0.1134 -0.7234  0.2384
15031TIP3    H266585   0.735   2.465   3.686  1.7915 -0.9186 -2.0018
15032TIP3   OH266586   2.292   2.683  15.652  0.0434 -0.1356  0.1283
15032TIP3    H166587   2.300   2.729  15.736 -1.9332 -1.2423  0.9782
15032TIP3    H266588   2.269   2.593  15.676 -0.7751 -0.4253 -1.6079
15033TIP3   OH266589   2.394   0.823   2.463 -0.5844  0.2583  0.1936
15033TIP3    H166590   2.390   0.789   2.552  1.8565 -0.9633 -0.0706
15033TIP3    H266591   2.486   0.814   2.438 -1.2391  0.2578 -2.5743
15034TIP3   OH266592   6.446   3.973   3.676  0.3781  0.0326 -0.1987
15034TIP3    H166593   6.377   3.909   3.692 -0.3169  0.4628 -1.4115
15034TIP3    H266594   6.447   4.028   3.755  0.6538 -1.1377  0.6445
15035TIP3   OH266595   1.985   2.257   5.632  0.1705  0.4338  0.1933
15035TIP3    H166596   1.915   2.322   5.644  1.9800  3.2700 -2.8505
15035TIP3    H266597   2.041   2.268   5.710 -1.2302  0.1606  1.2696
15036TIP3   OH266598   5.579   3.979  17.091 -0.6018  0.3990 -0.0890
15036TIP3    H166599   5.586   4.068  17.056 -0.7917  0.4668  0.0444
15036TIP3    H266600   5.490   3.974  17.126 -0.7740 -0.0148 -0.5713
15037TIP3   OH266601   2.718   3.551  13.238 -0.0914 -0.6348 -0.3970
15037TIP3    H166602   2.771   3.499  13.299  2.0494  0.7842 -0.9191
15037TIP3    H266603   2.697   3.631  13.287 -0.8573 -0.7154 -0.5759
15038TIP3   OH266604   4.937   6.531  13.895 -0.1210 -0.3978 -0.8598
15038TIP3    H166605   4.921   6.437  13.901  0.3876 -0.4425  0.0263
15038TIP3    H266606   5.030   6.537  13.874  0.6007 -0.1142  1.9207
15039TIP3   OH266607   5.743   4.460  12.581 -0.4196  0.0309 -0.1173
15039TIP3    H166608   5.792   4.462  12.663  0.4700  0.0370 -0.6328
15039TIP3    H266609   5.753   4.547  12.543  0.6191 -0.4628 -1.0385
15040TIP3   OH266610   6.439   5.412   5.871 -0.1704 -0.0809 -0.2090
15040TIP3    H166611   6.488   5.374   5.944  1.0319  2.0877  0.1790
15040TIP3    H266612   6.383   5.340   5.841 -0.4312 -1.1892  2.5637
15041TIP3   OH266613   5.815   2.704  14.119 -0.0837 -0.2025  0.3000
15041TIP3    H166614   5.812   2.732  14.028  0.1523 -0.7314  0.1315
15041TIP3    H266615   5.725   2.676  14.138 -0.1084 -0.1882  0.2063
15042TIP3   OH266616   5.814   2.790   6.203  0.5605  0.9009  0.1552
15042TIP3    H166617   5.820   2.885   6.191 -1.8620  1.1775  0.5626
15042TIP3    H266618   5.798   2.779   6.296 -1.0207  0.2545 -0.1660
15043TIP3   OH266619   1.258   1.592   5.128  0.2795 -0.8743  0.1616
15043TIP3    H166620   1.292   1.608   5.040 -0.8209  1.0019  0.0343
15043TIP3    H266621   1.307   1.516   5.159 -0.4048 -2.6046 -2.6554
15044TIP3   OH266622   5.592   4.062  10.910 -0.0506 -0.3257  0.3093
15044TIP3    H166623   5.542   3.986  10.882 -0.8168  0.1497  0.3456
15044TIP3    H266624   5.555   4.085  10.995 -0.3822  0.5700 -0.0616
15045TIP3   OH266625   1.084   5.027  16.865  0.4652 -0.2521 -0.7573
15045TIP3    H166626   1.105   4.944  16.823 -0.4682 -0.7272 -0.3271
15045TIP3    H266627   1.167   5.060  16.898  1.3127  0.3109 -3.2464
15046TIP3   OH266628   0.625   2.539   5.293 -0.2388 -0.0272  0.1680
15046TIP3    H166629   0.546   2.542   5.239 -0.6137 -0.4907  0.6728
15046TIP3    H266630   0.598   2.491   5.372  0.4404  0.1595  0.5224
15047TIP3   OH266631   5.320   3.998  16.293 -0.0577 -0.6893  0.8203
15047TIP3    H166632   5.272   3.980  16.374 -1.2553 -2.5042 -0.2025
15047TIP3    H266633   5.332   3.912  16.253  0.3544  0.1697 -1.0197
15048TIP3   OH266634   0.689   3.488  14.370 -0.1110 -0.1024 -0.1075
15048TIP3    H166635   0.612   3.474  14.425  0.6802 -0.4142  0.9496
15048TIP3    H266636   0.687   3.581  14.348 -1.9954 -0.4854 -1.9843
15049TIP3   OH266637   3.590   1.698   4.807  0.3097 -0.0913  0.1595
15049TIP3    H166638   3.662   1.702   4.870  0.1774 -0.2938  0.3251
15049TIP3    H266639   3.519   1.747   4.849 -0.6897 -2.4418  1.3735
15050TIP3   OH266640   1.286   0.205  12.304  0.2414  0.5337 -0.2328
15050TIP3    H166641   1.249   0.233  12.387  1.9115 -0.4940  0.9022
15050TIP3    H266642   1.302   0.286  12.255 -2.0225  1.0860 -0.1861
15051TIP3   OH266643   4.259   1.898   1.255  0.2870  0.2381 -0.3909
15051TIP3    H166644   4.294   1.865   1.172  0.4679 -0.3113 -0.1019
15051TIP3    H266645   4.310   1.977   1.272  1.4951 -0.6159  0.0840
15052TIP3   OH266646   1.264   1.488  14.910 -0.0310 -0.0874 -0.0883
15052TIP3    H166647   1.193   1.525  14.964  0.3476  0.1025  0.2827
15052TIP3    H266648   1.278   1.553  14.841  0.3618  0.2791  0.3328
15053TIP3   OH266649   5.894   1.063  15.626 -0.7758  0.5208  0.3224
15053TIP3    H166650   5.938   1.096  15.704  2.3375 -0.9211 -0.6561
15053TIP3    H266651   5.870   0.973  15.648  0.3906  0.0018 -0.3884
15054TIP3   OH266652   1.869   4.206   1.328 -0.1753  0.5478  0.7885
15054TIP3    H166653   1.805   4.266   1.288  0.7423  0.2717 -1.2018
15054TIP3    H266654   1.817   4.132   1.357 -1.0105  1.2191  1.0576
15055TIP3   OH266655   0.983   4.671  12.951  0.6516 -0.1083  0.2063
15055TIP3    H166656   0.995   4.728  13.027  1.6387 -0.1768  0.1264
15055TIP3    H266657   0.957   4.587  12.987 -0.1370  0.1960  0.3714
15056TIP3   OH266658   4.811   1.892  11.107 -0.6579  0.9267 -0.4223
15056TIP3    H166659   4.778   1.876  11.019 -1.2771 -0.9096  0.1128
15056TIP3    H266660   4.804   1.987  11.118 -2.3184  0.9934 -1.6773
15057TIP3   OH266661   1.721   2.545   0.074 -0.0082  0.3512 -0.8956
15057TIP3    H166662   1.711   2.552  -0.021 -0.4782  2.2456 -0.7490
15057TIP3    H266663   1.772   2.622   0.099  0.1754 -0.1519  0.3964
15058TIP3   OH266664   5.125   0.879  12.538  0.6400  0.0553  0.2469
15058TIP3    H166665   5.077   0.957  12.566  3.1007  1.8781 -0.2563
15058TIP3    H266666   5.060   0.825  12.493 -1.6468  0.6998  2.5792
15059TIP3   OH266667   0.452   3.865   4.860  0.2522 -0.4165 -0.3477
15059TIP3    H166668   0.507   3.801   4.904  1.1211  0.4051 -0.2072
15059TIP3    H266669   0.501   3.889   4.782  0.8851  1.4908  0.5688
15060TIP3   OH266670   4.472   6.131  12.030  0.0072  0.2512  0.8583
15060TIP3    H166671   4.461   6.210  11.978 -0.8521 -0.8377 -0.6984
15060TIP3    H266672   4.516   6.069  11.972 -0.4887 -0.8281  1.5990
15061TIP3   OH266673   4.553   2.218   2.371  0.3795 -0.1114  0.3081
15061TIP3    H166674   4.511   2.173   2.445  0.5445 -1.1753 -0.2156
15061TIP3    H266675   4.645   2.192   2.378  0.4415 -0.0067 -0.1145
15062TIP3   OH266676   1.823   5.745  13.220  0.1201 -0.5823 -0.2341
15062TIP3    H166677   1.881   5.755  13.295 -2.5201 -1.5092  2.0940
15062TIP3    H266678   1.860   5.671  13.171  1.2662 -0.7006  0.7719
15063TIP3   OH266679   6.545   0.396   1.627  0.0170 -0.0376 -0.2330
15063TIP3    H166680   6.507   0.314   1.659 -0.4116  0.3010  0.1352
15063TIP3    H266681   6.635   0.395   1.661 -0.2220 -0.0033  0.4104
15064TIP3   OH266682   0.567   5.781   2.247 -0.4560  0.1384 -0.6480
15064TIP3    H166683   0.596   5.857   2.195  0.5291  0.6718  0.6315
15064TIP3    H266684   0.649   5.742   2.278 -0.9788 -1.1814 -0.8805
15065TIP3   OH266685   2.477   2.784   0.948  0.5303  0.8998 -0.0062
15065TIP3    H166686   2.546   2.807   0.886 -0.7902  1.9094 -1.1553
15065TIP3    H266687   2.418   2.727   0.898 -1.6012  3.2713 -0.4099
15066TIP3   OH266688   4.317   4.492  14.185  0.1783 -0.1968 -0.1573
15066TIP3    H166689   4.274   4.468  14.102 -0.6242  0.0619  0.1686
15066TIP3    H266690   4.259   4.456  14.252  0.5905 -0.0095  0.2969
15067TIP3   OH266691   0.125   5.000   4.073 -0.0975  0.1519 -0.6609
15067TIP3    H166692   0.170   5.010   4.157 -0.9255 -1.6193  0.0397
15067TIP3    H266693   0.067   5.076   4.067  0.5455  0.7107 -0.0184
15068TIP3   OH266694   1.262   6.336   4.526  0.3139  0.2619 -0.1430
15068TIP3    H166695   1.322   6.309   4.596  0.1625  2.0844  0.7317
15068TIP3    H266696   1.195   6.268   4.525  1.2742 -0.7332  0.2365
15069TIP3   OH266697   4.844   5.664   4.211  0.3222 -0.6083  0.2115
15069TIP3    H166698   4.804   5.628   4.290 -2.2944 -0.0394 -0.7605
15069TIP3    H266699   4.868   5.587   4.159 -1.7358 -1.0264 -0.1904
15070TIP3   OH266700   6.443   5.658  13.253  0.5099 -0.0675 -0.4482
15070TIP3    H166701   6.426   5.732  13.195  1.2027 -0.2122 -0.8407
15070TIP3    H266702   6.370   5.598  13.237 -1.1449  1.3396  1.2704
15071TIP3   OH266703   6.361   6.348  15.937 -0.1815  0.3361 -0.1239
15071TIP3    H166704   6.432   6.287  15.914 -0.2087  0.6076 -0.9707
15071TIP3    H266705   6.405   6.418  15.985 -0.1276 -0.2706  0.7326
15072TIP3   OH266706   0.341   2.903   2.474  0.1625  0.1224 -0.1916
15072TIP3    H166707   0.352   2.809   2.458  1.6443  0.0632  0.9494
15072TIP3    H266708   0.426   2.941   2.455 -0.2641  1.1626 -0.0970
15073TIP3   OH266709   6.183   5.070  14.781 -0.2515  0.3797  0.3094
15073TIP3    H166710   6.260   5.126  14.780 -0.1729  0.2718  0.1852
15073TIP3    H266711   6.199   5.007  14.710 -1.2968  1.5137 -1.0059
15074TIP3   OH266712   1.171   0.713  16.809  0.1442  0.7805 -0.0045
15074TIP3    H166713   1.182   0.798  16.852  0.6312  1.1423 -0.8268
15074TIP3    H266714   1.111   0.665  16.867  0.6855  1.2903  1.0211
15075TIP3   OH266715   1.492   5.333   7.041  0.4498  0.6813 -0.1744
15075TIP3    H166716   1.431   5.386   7.092  0.6752  1.9432 -1.1755
15075TIP3    H266717   1.577   5.345   7.084 -0.0108 -1.4787  1.5280
15076TIP3   OH266718   0.507   0.982  16.358  0.2674 -0.3505 -0.2913
15076TIP3    H166719   0.480   1.034  16.282  0.2860 -0.5279 -0.4190
15076TIP3    H266720   0.518   0.894  16.324 -0.8976 -0.6889  0.1500
15077TIP3   OH266721   2.179   0.366   3.788 -0.4335 -0.4428 -0.2230
15077TIP3    H166722   2.208   0.292   3.841 -0.6425 -0.7708 -0.5677
15077TIP3    H266723   2.210   0.443   3.837 -1.2469 -0.7066  0.7490
15078TIP3   OH266724   5.847   5.065   0.586  0.3572 -0.2828  0.0489
15078TIP3    H166725   5.837   5.080   0.492 -0.2542 -0.6051  0.0587
15078TIP3    H266726   5.939   5.042   0.597  0.4755 -0.0622 -0.4448
15079TIP3   OH266727   5.950   4.018  12.641  0.1293 -0.1424  0.4174
15079TIP3    H166728   6.046   4.019  12.637  0.1868  0.8138  1.4647
15079TIP3    H266729   5.925   3.943  12.589  1.5006 -0.9857  0.9101
15080TIP3   OH266730   6.408   6.594   2.159  0.4325 -0.8405 -0.1370
15080TIP3    H166731   6.360   6.548   2.090  0.2573  0.0599 -0.6378
15080TIP3    H266732   6.400   6.538   2.236  0.4794 -1.7751 -0.7993
15081TIP3   OH266733   4.602   4.382   3.945  0.2795  0.4614 -0.4674
15081TIP3    H166734   4.675   4.323   3.963  0.5984  0.5512 -1.4262
15081TIP3    H266735   4.585   4.426   4.028  0.1648 -0.8295  0.2171
15082TIP3   OH266736   3.920   4.393  16.163  0.2355 -0.5963  0.0516
15082TIP3    H166737   3.996   4.422  16.214  0.1674 -0.6472  0.1828
15082TIP3    H266738   3.955   4.374  16.076  0.0805  1.0426 -0.4014
15083TIP3   OH266739   1.664   4.828  14.641 -0.5389 -0.0889  0.3741
15083TIP3    H166740   1.692   4.897  14.581 -0.4486  0.5362  1.1182
15083TIP3    H266741   1.593   4.783  14.595 -1.6191  1.4366  0.4453
15084TIP3   OH266742   3.601   1.059  15.848 -0.0777 -0.2044 -0.1036
15084TIP3    H166743   3.643   1.111  15.917  0.1205  1.0424 -1.1186
15084TIP3    H266744   3.508   1.078  15.856 -0.1616 -0.7752  0.3733
15085TIP3   OH266745   0.262   3.250   5.491 -0.0393  0.4921  0.1558
15085TIP3    H166746   0.193   3.307   5.525 -2.0881 -1.2013 -0.9290
15085TIP3    H266747   0.307   3.304   5.426 -0.7426  1.4398  0.4215
15086TIP3   OH266748   3.965   5.009  16.270 -0.3125  0.0555 -0.1421
15086TIP3    H166749   3.944   5.091  16.315  0.4787  0.8080 -1.0851
15086TIP3    H266750   3.961   4.942  16.338 -1.0601  0.8533  0.6300
15087TIP3   OH266751   2.330   3.077  15.671  0.0636 -0.9492  0.6713
15087TIP3    H166752   2.321   3.158  15.721  0.6745 -0.0200 -0.6779
15087TIP3    H266753   2.244   3.035  15.679 -1.3406  1.3186 -1.0770
15088TIP3   OH266754   1.315   3.193   4.853  0.2119  0.2647 -0.3658
15088TIP3    H166755   1.293   3.263   4.915  1.7110  0.0535  0.4323
15088TIP3    H266756   1.408   3.203   4.837 -0.2671  0.8140 -3.2576
15089TIP3   OH266757   0.203   1.320  13.909 -0.2920  0.0096  0.3706
15089TIP3    H166758   0.122   1.366  13.888 -1.1224 -1.4169  0.3602
15089TIP3    H266759   0.225   1.351  13.997 -0.4981  0.8679  0.1307
15090TIP3   OH266760   6.353   4.253   3.481  0.3895  0.3008 -0.0472
15090TIP3    H166761   6.369   4.248   3.575 -0.4576 -1.3915  0.0385
15090TIP3    H266762   6.259   4.271   3.474  0.4662  0.5065 -0.5794
15091TIP3   OH266763   2.725   6.730   5.571  0.1001  0.2835 -0.3516
15091TIP3    H166764   2.810   6.692   5.548 -0.4311 -0.2241 -1.5483
15091TIP3    H266765   2.716   6.805   5.513  0.5862  1.5740  1.1474
15092TIP3   OH266766   2.088   1.032   2.479  0.1738  0.0453 -0.2703
15092TIP3    H166767   2.019   1.069   2.423 -0.1440  0.8451  0.6212
15092TIP3    H266768   2.150   1.104   2.491  1.9054 -1.0299 -2.1451
15093TIP3   OH266769   3.360   1.605   4.486  0.1456 -0.1981 -0.8626
15093TIP3    H166770   3.331   1.525   4.529  0.4509 -0.2282 -0.7052
15093TIP3    H266771   3.358   1.585   4.392  1.9280 -0.9969 -0.7604
15094TIP3   OH266772   6.095   3.520   5.635  0.0373 -1.1277 -0.1817
15094TIP3    H166773   6.055   3.516   5.722 -1.2779 -0.9735 -0.7451
15094TIP3    H266774   6.186   3.493   5.648 -0.0994 -0.9625  1.2546
15095TIP3   OH266775   6.422   0.179  13.300  0.0589 -0.3579 -0.0544
15095TIP3    H166776   6.391   0.166  13.211 -1.3236 -1.2633  0.5324
15095TIP3    H266777   6.346   0.160  13.355  1.0192 -0.2975  1.3394
15096TIP3   OH266778   6.670   4.088   3.498  0.1948 -0.1455  0.4923
15096TIP3    H166779   6.734   4.018   3.484 -1.2174 -1.2232 -0.8615
15096TIP3    H266780   6.608   4.051   3.560 -0.6973 -0.2281 -0.4198
15097TIP3   OH266781   0.040   4.480  12.268  0.1192  0.0007  0.3500
15097TIP3    H166782   0.008   4.567  12.245 -0.4054 -0.2416  0.1570
15097TIP3    H266783  -0.020   4.449  12.336  0.2052 -0.2808  0.2984
15098TIP3   OH266784   3.489   4.360   2.627 -0.0516  0.0317 -0.6497
15098TIP3    H166785   3.501   4.297   2.697 -0.6435 -0.1066 -0.6681
15098TIP3    H266786   3.506   4.445   2.667 -0.6126 -0.0290 -0.2865
15099TIP3   OH266787   6.254   0.133  14.469 -0.0279  0.3445 -0.1863
15099TIP3    H166788   6.177   0.146  14.523  0.3193  2.5790 -0.1148
15099TIP3    H266789   6.325   0.115  14.531 -0.3213 -0.9148 -0.1975
15100TIP3   OH266790   3.043   0.814   1.224 -0.3847 -0.0161 -0.0759
15100TIP3    H166791   2.974   0.838   1.286 -0.6278  0.1222 -0.3986
15100TIP3    H266792   3.007   0.836   1.138  0.3762  0.8302 -0.1878
15101TIP3   OH266793   4.978   0.364   3.479 -0.1974 -0.2864  0.2328
15101TIP3    H166794   5.007   0.274   3.496  0.9906  0.2053  0.9540
15101TIP3    H266795   5.005   0.413   3.557 -1.3388  0.5882  0.1033
15102TIP3   OH266796   2.404   1.476   3.577  0.2311 -0.4453  0.7573
15102TIP3    H166797   2.347   1.551   3.555  1.2825  0.1186 -0.1365
15102TIP3    H266798   2.393   1.465   3.672 -0.6741  0.2180  0.7500
15103TIP3   OH266799   0.005   5.633  16.503  0.2501 -0.2975  0.3008
15103TIP3    H166800   0.093   5.597  16.495  1.5081  2.6473 -0.9139
15103TIP3    H266801   0.004   5.677  16.588  0.0212 -0.2135  0.2552
15104TIP3   OH266802   1.561   4.046  14.110  0.0439 -0.7741 -0.5947
15104TIP3    H166803   1.481   4.055  14.058  1.4480 -1.0945 -2.9382
15104TIP3    H266804   1.553   4.113  14.178 -2.3560 -1.0495 -0.5452
15105TIP3   OH266805   2.993   0.562   3.944  0.3450 -0.3610  0.9959
15105TIP3    H166806   2.924   0.534   3.884 -0.2129  0.8930  1.0179
15105TIP3    H266807   2.948   0.616   4.009  1.5235  1.9937 -0.0020
15106TIP3   OH266808   6.779   0.768  11.877 -0.0599 -0.1401 -0.3575
15106TIP3    H166809   6.723   0.746  11.952 -1.7422  0.8123 -1.2645
15106TIP3    H266810   6.868   0.763  11.910 -0.7285 -0.6358  1.4527
15107TIP3   OH266811   2.078   2.899  12.316 -0.0021  0.3229  0.0693
15107TIP3    H166812   2.050   2.961  12.249 -0.9718 -0.2022 -0.0402
15107TIP3    H266813   2.026   2.922  12.393 -0.4380 -0.3983 -0.0009
15108TIP3   OH266814   2.258   1.852  14.889 -0.2336  0.0350 -0.2815
15108TIP3    H166815   2.321   1.814  14.950 -0.4339  0.6883  0.3360
15108TIP3    H266816   2.260   1.946  14.907 -1.0781  0.1125 -0.5464
15109TIP3   OH266817   2.118   0.114   0.717  0.6078 -0.3512 -0.0119
15109TIP3    H166818   2.041   0.170   0.707  1.6524  0.7274 -3.3713
15109TIP3    H266819   2.192   0.174   0.708  1.8638 -1.6290  1.3146
15110TIP3   OH266820   1.124   5.845  16.226  0.0645  0.1432  0.0525
15110TIP3    H166821   1.212   5.884  16.223  0.4933 -0.5186  2.1972
15110TIP3    H266822   1.079   5.893  16.295 -1.0158 -0.0347 -0.5102
15111TIP3   OH266823   2.546   0.344  11.917  0.7566  0.4294  0.3027
15111TIP3    H166824   2.550   0.262  11.867  0.8931  0.7755 -0.2566
15111TIP3    H266825   2.588   0.323  12.001 -1.8342 -0.9279  1.3704
15112TIP3   OH266826   3.429   0.567   5.907  0.0596  0.0716 -0.2554
15112TIP3    H166827   3.456   0.635   5.846  4.1088 -2.2065 -1.3798
15112TIP3    H266828   3.472   0.590   5.989 -2.7524  1.4117  0.9674
15113TIP3   OH266829   6.179   6.507   3.962  0.1452 -0.0979 -0.2690
15113TIP3    H166830   6.224   6.423   3.974  0.2515 -0.1239 -0.8094
15113TIP3    H266831   6.089   6.482   3.939 -0.2722 -0.0447  1.1684
15114TIP3   OH266832   5.872   1.348  15.149  0.5772 -0.3985 -0.2836
15114TIP3    H166833   5.776   1.348  15.143  0.4344 -3.8921  0.0816
15114TIP3    H266834   5.902   1.338  15.058  0.7411  1.8431 -0.5423
15115TIP3   OH266835   3.470   3.766  13.543 -0.0532 -0.0381 -0.3679
15115TIP3    H166836   3.518   3.690  13.574  0.4161  1.4932  3.2037
15115TIP3    H266837   3.536   3.820  13.500 -0.1480 -1.0641 -1.8532
15116TIP3   OH266838   4.691   4.238   1.771  0.1825  0.3243  0.0261
15116TIP3    H166839   4.681   4.222   1.865  0.4857  1.5124  0.2706
15116TIP3    H266840   4.627   4.305   1.750 -1.3801 -1.4034 -1.0868
15117TIP3   OH266841   6.094   5.757  12.790 -0.1834 -0.2800  0.0890
15117TIP3    H166842   6.059   5.670  12.773 -1.7842  0.1642  0.8710
15117TIP3    H266843   6.159   5.743  12.859 -0.1398 -0.8983 -0.0697
15118TIP3   OH266844   0.831   5.383   6.702 -0.2276  0.3232  0.2026
15118TIP3    H166845   0.812   5.477   6.706  1.4615  0.8186 -1.6233
15118TIP3    H266846   0.925   5.377   6.721 -0.0550 -0.8456 -0.9012
15119TIP3   OH266847   1.774   1.010   4.302 -1.0244  0.1221  0.1759
15119TIP3    H166848   1.705   1.041   4.361 -0.2301  0.9197  0.7177
15119TIP3    H266849   1.845   0.984   4.361 -2.2092 -4.5318 -0.0726
15120TIP3   OH266850   6.182   0.394  11.389  0.0625 -0.3683 -0.3255
15120TIP3    H166851   6.172   0.463  11.323  1.2155  2.5766  2.3266
15120TIP3    H266852   6.267   0.354  11.369  1.0417  1.4064  0.0640
15121TIP3   OH266853   0.903   6.281   0.097  0.2286 -0.0624  0.3710
15121TIP3    H166854   0.905   6.289   0.192  0.4553 -1.5960  0.5172
15121TIP3    H266855   0.916   6.187   0.080 -1.0782 -0.0147 -1.1234
15122TIP3   OH266856   0.400   2.066   4.771  0.0331  0.0940  0.3053
15122TIP3    H166857   0.418   1.972   4.772 -1.3720 -0.2553 -1.6855
15122TIP3    H266858   0.340   2.078   4.698  0.5396  2.6329  0.2328
15123TIP3   OH266859   6.287   6.731   6.244 -0.6407  0.0973 -0.1616
15123TIP3    H166860   6.318   6.641   6.257  2.0900  0.8200 -0.9560
15123TIP3    H266861   6.337   6.763   6.169 -2.1771  2.0308 -0.4396
15124TIP3   OH266862   0.050   0.816  14.273 -0.0554 -0.8825 -0.1504
15124TIP3    H166863   0.089   0.728  14.274  0.3903 -0.7721 -2.4554
15124TIP3    H266864   0.061   0.845  14.182  1.4815  2.2987  0.9220
15125TIP3   OH266865   2.849   4.206   3.326 -0.4344 -0.2209 -0.3307
15125TIP3    H166866   2.794   4.139   3.366  0.3983 -0.4633  0.4391
15125TIP3    H266867   2.881   4.165   3.245  0.2361 -0.8573  0.2372
15126TIP3   OH266868   1.097   5.874   1.829 -0.0771 -0.0305  0.2321
15126TIP3    H166869   1.137   5.907   1.748  1.6906 -0.0830  1.0373
15126TIP3    H266870   1.009   5.911   1.828 -0.9485 -1.8395 -2.7979
15127TIP3   OH266871   6.074   6.679  14.688 -0.1387 -0.3919  0.1960
15127TIP3    H166872   6.044   6.760  14.647 -0.2738 -0.9036 -0.7595
15127TIP3    H266873   6.008   6.659  14.754 -0.9082 -0.4937 -0.5782
15128TIP3   OH266874   6.306   5.112  13.833 -0.3338  0.7359 -0.0431
15128TIP3    H166875   6.355   5.102  13.751 -0.2467  1.7973 -0.1414
15128TIP3    H266876   6.370   5.143  13.896 -0.2761 -0.6275  0.6042
15129TIP3   OH266877   6.604   5.877   3.300  0.6871 -0.4924  0.1983
15129TIP3    H166878   6.577   5.800   3.249 -2.2424  0.6156 -0.1217
15129TIP3    H266879   6.606   5.948   3.236  0.4482  0.2450  0.9965
15130TIP3   OH266880   1.249   4.340  14.244  0.1733 -0.0673 -0.2446
15130TIP3    H166881   1.312   4.269  14.250 -1.0149 -1.1695 -0.3803
15130TIP3    H266882   1.302   4.420  14.249  1.3478 -0.8970  2.4402
15131TIP3   OH266883   1.545   5.649  11.188  0.4434 -0.2164 -0.2067
15131TIP3    H166884   1.540   5.738  11.154  1.6256  0.7265  1.8145
15131TIP3    H266885   1.639   5.634  11.200  0.1896 -1.1266  0.8682
15132TIP3   OH266886   5.639   4.939  13.780  0.6809 -0.0423 -0.4310
15132TIP3    H166887   5.559   4.886  13.775  1.5059 -1.3515 -0.0630
15132TIP3    H266888   5.691   4.911  13.705  0.7861  0.8606 -0.7071
15133TIP3   OH266889   5.229   2.395   2.160 -0.0942 -0.3900  0.3982
15133TIP3    H166890   5.178   2.385   2.079  1.2094 -0.2876 -0.4766
15133TIP3    H266891   5.183   2.462   2.210  0.1257  0.9776 -1.1537
15134TIP3   OH266892   0.072   6.340   5.941  0.5280  0.0846  0.0729
15134TIP3    H166893   0.078   6.295   6.025  1.4810  1.5404  0.8295
15134TIP3    H266894   0.079   6.270   5.876 -2.4810 -1.3559  1.1289
15135TIP3   OH266895   0.143   1.744   2.792 -0.1221  0.0972 -0.1670
15135TIP3    H166896   0.110   1.806   2.727  0.2369  1.1142  0.5904
15135TIP3    H266897   0.068   1.724   2.847  0.0037  0.6945  0.2271
15136TIP3   OH266898   1.243   3.194   1.525 -0.2311 -0.2954  0.2111
15136TIP3    H166899   1.180   3.226   1.589 -0.5149  1.1242 -0.7186
15136TIP3    H266900   1.286   3.273   1.492  0.4461 -1.0504 -0.7800
15137TIP3   OH266901   2.532   2.944   5.291 -0.0646 -0.0657 -0.2742
15137TIP3    H166902   2.441   2.928   5.267 -0.2764  0.7112 -0.0295
15137TIP3    H266903   2.531   2.950   5.387  0.7383 -2.9569  0.0015
15138TIP3   OH266904   3.765   6.670  12.176 -0.4635  0.2203  0.4874
15138TIP3    H166905   3.771   6.576  12.161 -2.0512 -0.1629  1.9226
15138TIP3    H266906   3.829   6.708  12.115  0.0608 -1.7442 -0.2796
15139TIP3   OH266907   4.356   3.769   5.494 -0.1260 -0.4865  0.1284
15139TIP3    H166908   4.321   3.680   5.480  1.1853 -0.7723 -1.6245
15139TIP3    H266909   4.313   3.822   5.426 -0.1097  0.0128  0.5027
15140TIP3   OH266910   1.017   0.045   3.084 -1.0056  0.4814  0.4183
15140TIP3    H166911   1.042  -0.042   3.115 -0.6885 -0.1712 -1.4864
15140TIP3    H266912   1.092   0.100   3.104 -0.6496 -0.0017  0.4273
15141TIP3   OH266913   3.791   6.501  13.356 -0.0569  0.0966  0.0717
15141TIP3    H166914   3.778   6.468  13.267  0.4637 -0.3918  0.1717
15141TIP3    H266915   3.857   6.570  13.347  0.8516 -0.7435  0.2360
15142TIP3   OH266916   1.854   4.576   6.219  0.3256 -0.2793  0.5280
15142TIP3    H166917   1.764   4.599   6.243 -0.0623 -1.8248  0.6789
15142TIP3    H266918   1.903   4.579   6.301  0.4314  0.5984  0.4401
15143TIP3   OH266919   2.931   0.161  12.029 -0.4651 -0.7730  0.2607
15143TIP3    H166920   2.946   0.095  11.961  0.1684 -0.4328  0.0662
15143TIP3    H266921   2.907   0.240  11.982 -0.4712 -0.6551  0.4602
15144TIP3   OH266922   3.842   5.206   1.207 -0.1205 -0.4604  0.8217
15144TIP3    H166923   3.859   5.132   1.266 -1.2496 -0.0992  1.6238
15144TIP3    H266924   3.747   5.215   1.207 -0.2191 -0.9156 -1.6624
15145TIP3   OH266925   0.990   1.097   5.812 -0.3725 -0.2018  0.9895
15145TIP3    H166926   0.899   1.102   5.782 -0.4819 -1.0201  1.1675
15145TIP3    H266927   0.990   1.027   5.877  0.4919 -0.5812  0.5896
15146TIP3   OH266928   3.857   6.394   3.174 -0.0347 -1.0955 -0.1243
15146TIP3    H166929   3.822   6.375   3.261  0.8278  1.0063  0.7658
15146TIP3    H266930   3.938   6.342   3.169  0.0947 -0.9631  0.4913
15147TIP3   OH266931   6.636   0.549  15.036 -0.4940 -0.0977 -0.4827
15147TIP3    H166932   6.680   0.552  15.121 -1.7317 -4.6591  0.6110
15147TIP3    H266933   6.560   0.605  15.046  0.5848  1.2388  0.5699
15148TIP3   OH266934   0.892   2.253   2.843 -0.2213 -0.5340  0.0919
15148TIP3    H166935   0.899   2.170   2.889 -2.0656 -0.5407  0.4373
15148TIP3    H266936   0.877   2.229   2.752  1.8981 -0.5271 -0.3023
15149TIP3   OH266937   4.953   1.380  11.606 -0.2723 -0.3044  0.3885
15149TIP3    H166938   5.036   1.412  11.640  0.2161 -0.5264 -0.5653
15149TIP3    H266939   4.937   1.433  11.528 -0.0046 -1.6100 -0.5841
15150TIP3   OH266940   0.677   1.051   3.015  0.1296  0.7600 -0.1506
15150TIP3    H166941   0.731   1.039   3.093 -1.0610 -2.7252  0.3466
15150TIP3    H266942   0.740   1.061   2.943  1.4391 -0.6509  0.7261
15151TIP3   OH266943   4.135   2.414   4.239  1.3315 -0.1694 -0.0965
15151TIP3    H166944   4.181   2.331   4.250 -0.5215 -1.2245  0.2518
15151TIP3    H266945   4.118   2.419   4.145  0.5320 -0.7404  0.0061
15152TIP3   OH266946   2.827   1.088   1.065  0.3872  0.4738  0.1844
15152TIP3    H166947   2.813   1.173   1.024 -0.6037  1.0290  1.5849
15152TIP3    H266948   2.741   1.047   1.068  0.4403  0.4070  1.5592
15153TIP3   OH266949   5.520   3.709   2.582  0.0438 -0.3265 -0.8801
15153TIP3    H166950   5.508   3.615   2.595  0.8486 -0.1523  1.7370
15153TIP3    H266951   5.443   3.748   2.623  1.0201  0.2023  0.5193
15154TIP3   OH266952   1.700   3.460  16.741 -0.7164  0.2044 -0.1409
15154TIP3    H166953   1.700   3.554  16.727 -2.6845 -0.0845 -2.7679
15154TIP3    H266954   1.706   3.422  16.653 -1.2406 -2.1056  0.7439
15155TIP3   OH266955   2.590   0.016   3.764 -0.7526  0.0375 -0.1793
15155TIP3    H166956   2.567  -0.002   3.855 -1.6063 -1.0408 -0.5695
15155TIP3    H266957   2.608  -0.071   3.727  2.1958  0.6596 -0.4163
15156TIP3   OH266958   2.272   1.221   6.274  0.0038 -0.6188  0.2064
15156TIP3    H166959   2.266   1.197   6.182  0.0780  1.5268 -0.4167
15156TIP3    H266960   2.313   1.146   6.316 -0.6164 -1.8996 -1.3839
15157TIP3   OH266961   4.417   4.952   2.570 -0.1435 -0.0925 -0.2609
15157TIP3    H166962   4.484   5.009   2.608  0.4754 -1.3167  0.5346
15157TIP3    H266963   4.466   4.885   2.523 -0.8410 -0.2860 -0.7226
15158TIP3   OH266964   2.722   0.448   1.674  0.5632  0.4009 -0.1530
15158TIP3    H166965   2.720   0.371   1.617  0.7981  0.0065  0.3590
15158TIP3    H266966   2.805   0.491   1.655  0.7529  0.1331  0.0684
15159TIP3   OH266967   2.528   2.415  13.859  0.7617  0.5064 -0.1391
15159TIP3    H166968   2.560   2.325  13.851  0.3738  0.4338 -0.9766
15159TIP3    H266969   2.492   2.420  13.947  1.4626  0.0672  0.1813
15160TIP3   OH266970   6.076   5.309  14.568  0.0414 -0.4480 -0.6174
15160TIP3    H166971   6.043   5.222  14.545  1.3491 -0.9699 -0.5844
15160TIP3    H266972   6.155   5.293  14.618 -0.8024  0.7344  1.2417
15161TIP3   OH266973   1.434   4.272  14.621 -0.4454  0.3111  0.3415
15161TIP3    H166974   1.512   4.217  14.629 -0.7839 -0.1706  0.3557
15161TIP3    H266975   1.402   4.281  14.711 -2.2457 -2.1936  0.0437
15162TIP3   OH266976   5.123   1.247   3.946  0.0727  0.4192  0.6277
15162TIP3    H166977   5.164   1.257   3.861 -1.3787 -0.7280 -0.2485
15162TIP3    H266978   5.117   1.152   3.960  1.8133  0.5390  2.8151
15163TIP3   OH266979   6.493   6.210  14.015  0.2233 -0.0860 -0.2085
15163TIP3    H166980   6.509   6.303  13.999 -0.8970 -0.1325 -1.8824
15163TIP3    H266981   6.497   6.200  14.110 -0.3177  1.8049  0.0478
15164TIP3   OH266982   3.446   4.501  14.837  0.3934  0.1395 -0.1381
15164TIP3    H166983   3.431   4.596  14.828  1.0551  0.4368  1.5097
15164TIP3    H266984   3.541   4.493  14.843  0.2825 -0.4766  1.0249
15165TIP3   OH266985   6.307   1.139   5.869  0.8428 -0.0276  0.1095
15165TIP3    H166986   6.302   1.049   5.837  1.9867 -0.5293  1.2174
15165TIP3    H266987   6.288   1.132   5.963 -0.6480  1.1378 -0.0760
15166TIP3   OH266988   6.725   5.191  11.891  0.2207  0.1782 -0.2921
15166TIP3    H166989   6.661   5.191  11.820 -0.3902 -0.6076  0.2419
15166TIP3    H266990   6.745   5.284  11.904 -2.4438  0.6863  0.9285
15167TIP3   OH266991   6.510   4.437  16.542 -0.2655 -0.7977 -0.4221
15167TIP3    H166992   6.519   4.350  16.503 -0.5048 -1.4708  0.9739
15167TIP3    H266993   6.493   4.421  16.634  0.3182  0.7492 -0.0066
15168TIP3   OH266994   4.010   3.989   5.172 -0.3220 -0.5313  0.1483
15168TIP3    H166995   4.101   3.989   5.202 -1.1301 -0.5912  2.8760
15168TIP3    H266996   3.992   4.080   5.149  0.2810 -0.4198  0.1034
15169TIP3   OH266997   6.166   4.397  10.968  0.3295 -0.2929  0.3462
15169TIP3    H166998   6.190   4.489  10.982 -2.1971  0.7654 -1.5086
15169TIP3    H266999   6.110   4.398  10.891 -0.2203 -3.3641  0.5680
15170TIP3   OH267000   5.234   4.593   3.486  0.1633 -0.4047 -0.3631
15170TIP3    H167001   5.322   4.630   3.498 -0.0404  0.0232 -0.1509
15170TIP3    H267002   5.209   4.617   3.397 -0.3834  0.8888  0.1143
15171TIP3   OH267003   3.799   1.213   1.245 -0.1947 -0.3658 -0.3164
15171TIP3    H167004   3.814   1.126   1.281  0.8744  0.9288  2.7152
15171TIP3    H267005   3.885   1.256   1.251 -1.0971  1.4774  0.0061
15172TIP3   OH267006   5.002   5.363   0.260 -0.1017 -0.0750 -0.8415
15172TIP3    H167007   4.922   5.338   0.214  0.4949  0.8171 -2.4315
15172TIP3    H267008   5.027   5.447   0.221  1.4138 -0.1648 -0.1287
15173TIP3   OH267009   6.033   3.334  14.062  0.3169 -0.0549  0.1468
15173TIP3    H167010   6.099   3.375  14.006 -0.4120  0.4264 -0.3910
15173TIP3    H267011   5.951   3.346  14.014 -0.4764  1.1954  1.7213
15174TIP3   OH267012   2.977   5.553  15.757 -0.0631  0.1410  0.0316
15174TIP3    H167013   3.050   5.581  15.702  1.0348  2.3343  2.3672
15174TIP3    H267014   2.986   5.458  15.764  0.8522  0.0320 -1.9611
15175TIP3   OH267015   5.344   2.425  14.217  0.4065  0.8630 -0.7631
15175TIP3    H167016   5.253   2.413  14.247  0.1938 -0.6638 -1.8974
15175TIP3    H267017   5.370   2.510  14.253 -1.3973  1.2415 -0.2420
15176TIP3   OH267018   3.182   5.174  15.692  0.4964 -0.2475  0.8329
15176TIP3    H167019   3.204   5.089  15.730  1.3379  0.3577  1.7393
15176TIP3    H267020   3.227   5.174  15.608  1.8510 -0.0729  1.5350
15177TIP3   OH267021   5.186   4.318  16.843  0.3415  0.0916 -0.3568
15177TIP3    H167022   5.157   4.301  16.754 -0.1623 -0.3405 -0.1187
15177TIP3    H267023   5.105   4.316  16.895  0.6899 -0.1917  0.1843
15178TIP3   OH267024   4.808   2.887  17.104 -0.2355  0.0600 -0.0881
15178TIP3    H167025   4.828   2.923  17.190  1.2388 -0.0297 -0.3769
15178TIP3    H267026   4.845   2.799  17.105 -0.7832 -0.1863 -0.5992
15179TIP3   OH267027   1.177   2.522  13.800 -0.0842 -0.1114 -0.1234
15179TIP3    H167028   1.183   2.532  13.705 -0.7157 -0.4333 -0.2025
15179TIP3    H267029   1.265   2.539  13.831  0.5952 -1.8960 -0.9342
15180TIP3   OH267030   0.975   4.310  14.142 -0.5691  0.5843  0.3795
15180TIP3    H167031   0.993   4.230  14.094 -2.9790  0.0361  0.2870
15180TIP3    H267032   1.058   4.330  14.186  1.4455  0.5359 -3.0361
15181TIP3   OH267033   1.127   5.013   4.082  0.0887  0.2913  0.1282
15181TIP3    H167034   1.182   5.053   4.150  1.2613 -0.6929 -0.2104
15181TIP3    H267035   1.185   5.005   4.006 -0.5724 -0.6031 -0.3023
15182TIP3   OH267036   1.301   5.294  12.406  0.5966  0.0286  0.2049
15182TIP3    H167037   1.354   5.364  12.366  2.3611 -0.7858  0.9813
15182TIP3    H267038   1.232   5.340  12.453  2.2561  1.3608  1.4831
15183TIP3   OH267039   1.733   5.226   3.669  0.2523 -0.1443  0.2098
15183TIP3    H167040   1.775   5.209   3.754  0.3121 -0.6171  0.0859
15183TIP3    H267041   1.658   5.167   3.667  0.0455  0.1214  0.0830
15184TIP3   OH267042   6.252   5.540   4.140 -0.1595 -0.0284  0.1601
15184TIP3    H167043   6.174   5.526   4.195 -0.1495  2.0049  0.7562
15184TIP3    H267044   6.324   5.545   4.203  0.2134 -0.1301 -0.2584
15185TIP3   OH267045   3.152   1.957  15.759  0.0832 -0.3568 -0.1359
15185TIP3    H167046   3.216   2.008  15.709  0.4094 -3.0649 -2.7878
15185TIP3    H267047   3.200   1.878  15.785 -1.1711 -0.7003  1.2191
15186TIP3   OH267048   3.108   3.025  11.745  0.2986 -0.2062  0.0457
15186TIP3    H167049   3.167   2.952  11.766 -0.3337 -0.9224 -0.6085
15186TIP3    H267050   3.124   3.089  11.815  0.7034 -1.0653  0.7694
15187TIP3   OH267051   0.467   1.924  12.370 -0.2261 -0.2345 -0.3333
15187TIP3    H167052   0.416   2.005  12.368 -2.1462 -1.3696 -0.1307
15187TIP3    H267053   0.553   1.951  12.403 -0.4645  1.8611 -1.2467
15188TIP3   OH267054   1.463   0.381   6.002  0.1831 -0.4419 -0.7196
15188TIP3    H167055   1.429   0.464   5.969  0.8758 -0.0915 -0.5771
15188TIP3    H267056   1.395   0.349   6.062 -0.0868  0.0201 -0.7777
15189TIP3   OH267057   0.801   2.002  13.304 -0.3716  0.0772 -0.4069
15189TIP3    H167058   0.829   1.964  13.221 -2.0889 -1.0006 -0.5364
15189TIP3    H267059   0.836   1.943  13.371 -0.0953  0.2155 -0.4291
15190TIP3   OH267060   4.675   0.692   4.031  0.1779  0.1408  0.6166
15190TIP3    H167061   4.661   0.598   4.019  0.6382 -0.0152  1.2628
15190TIP3    H267062   4.588   0.727   4.050  0.0988 -0.2557  1.0098
15191TIP3   OH267063   4.019   1.643  12.071  0.0384 -1.0692 -0.8907
15191TIP3    H167064   4.036   1.550  12.087 -2.9331 -1.5351  0.2165
15191TIP3    H267065   3.976   1.646  11.986 -0.0189 -0.7271 -0.8514
15192TIP3   OH267066   3.473   1.423  14.374  0.6207  0.2357  0.2272
15192TIP3    H167067   3.512   1.356  14.430  2.1104  1.1351  0.2960
15192TIP3    H267068   3.396   1.453  14.422  0.9799 -0.1240  1.0412
15193TIP3   OH267069   6.047   5.239   5.337 -0.0260  0.7972  0.3292
15193TIP3    H167070   6.137   5.217   5.313 -0.1403  1.3901 -0.6847
15193TIP3    H267071   6.012   5.159   5.376  0.3785 -0.0000 -0.8993
15194TIP3   OH267072   5.875   4.351  12.804 -0.1034 -0.2042  0.4014
15194TIP3    H167073   5.825   4.358  12.886  0.8948 -0.1044  1.0279
15194TIP3    H267074   5.954   4.302  12.829  1.8388  2.6555  0.3313
15195TIP3   OH267075   6.566   2.772   0.241  0.4907  0.2997 -0.0296
15195TIP3    H167076   6.553   2.817   0.158  0.0757  0.1980 -0.0222
15195TIP3    H267077   6.618   2.833   0.293  0.4708  0.5040 -0.2455
15196TIP3   OH267078   6.065   2.434  13.195  0.0801  0.1200  0.7698
15196TIP3    H167079   6.078   2.437  13.101 -0.2460 -2.0145  0.5956
15196TIP3    H267080   6.153   2.427  13.232  0.1682  0.1142  0.5573
15197TIP3   OH267081   5.690   3.139  10.817  0.3190  0.3472 -0.3379
15197TIP3    H167082   5.744   3.063  10.800  1.8335  0.9431  1.3836
15197TIP3    H267083   5.708   3.161  10.909 -0.9334  2.0873 -0.4456
15198TIP3   OH267084   1.623   6.087  14.382  0.0416 -0.1365 -0.1085
15198TIP3    H167085   1.536   6.072  14.418 -0.4892 -0.4158 -1.4780
15198TIP3    H267086   1.631   6.024  14.311  0.9510  0.6009 -0.6815
15199TIP3   OH267087   2.724   6.319  16.698 -0.3123  0.3827  0.2063
15199TIP3    H167088   2.701   6.322  16.791  0.3835 -1.2289  0.4797
15199TIP3    H267089   2.820   6.325  16.698 -0.2890  0.0384 -0.3730
15200TIP3   OH267090   1.897   6.531   3.489 -0.2063  0.0113  0.0241
15200TIP3    H167091   1.986   6.515   3.455  0.3622 -0.6947  1.7298
15200TIP3    H267092   1.848   6.452   3.465  0.0609 -0.2775  0.4147
15201TIP3   OH267093   4.418   5.975   1.544 -0.1394  0.4937  0.1863
15201TIP3    H167094   4.495   6.018   1.580  0.9743 -0.7542 -0.6345
15201TIP3    H267095   4.426   5.883   1.572 -1.6538  0.4524  0.5951
15202TIP3   OH267096   2.576   5.689   2.604 -0.1571  0.0022  0.2786
15202TIP3    H167097   2.589   5.677   2.510 -0.1527 -1.6921  0.4791
15202TIP3    H267098   2.539   5.777   2.612  1.1386  0.7203 -1.1854
15203TIP3   OH267099   1.783   0.616   2.699 -0.2943  0.6000  0.0634
15203TIP3    H167100   1.772   0.689   2.637  0.2197  1.0061  0.4344
15203TIP3    H267101   1.813   0.543   2.645  0.9688  1.1885 -0.0614
15204TIP3   OH267102   1.394   0.235  16.367  0.8919 -0.0770 -0.7885
15204TIP3    H167103   1.415   0.181  16.291  3.7361  2.9328 -2.3661
15204TIP3    H267104   1.478   0.245  16.413  0.7820  3.4779 -1.0551
15205TIP3   OH267105   3.277   6.135   3.149  0.1738 -0.3721 -0.3342
15205TIP3    H167106   3.245   6.047   3.131 -0.6244 -0.0128 -0.7247
15205TIP3    H267107   3.217   6.169   3.216  1.2218 -0.5579  0.7444
15206TIP3   OH267108   3.182   2.574   3.499  0.6088  0.0371  0.6110
15206TIP3    H167109   3.216   2.639   3.561 -1.5301  2.5416 -0.6059
15206TIP3    H267110   3.217   2.601   3.414 -1.1929  0.3633 -0.0788
15207TIP3   OH267111   0.379   3.785   2.626 -0.4690 -0.2176  0.5543
15207TIP3    H167112   0.326   3.855   2.588  0.2352  0.5497  0.9433
15207TIP3    H267113   0.376   3.715   2.562 -2.2150 -0.3213  0.7071
15208TIP3   OH267114   4.002   5.386  15.745  0.0537 -0.9114  0.3107
15208TIP3    H167115   3.928   5.379  15.807  0.3706 -0.4478  0.7518
15208TIP3    H267116   3.970   5.344  15.666 -0.7563 -0.5697  0.4375
15209TIP3   OH267117   1.690   0.667  10.832 -0.0994 -0.6372 -0.7050
15209TIP3    H167118   1.722   0.757  10.829  1.4189 -1.1147  0.2629
15209TIP3    H267119   1.724   0.627  10.751 -0.3705 -0.4783 -0.8994
15210TIP3   OH267120   3.811   0.432  10.742 -0.1906 -0.2334 -0.1814
15210TIP3    H167121   3.750   0.498  10.774 -0.0677  0.3882 -1.1659
15210TIP3    H267122   3.884   0.433  10.804 -0.0499  0.7814 -0.3486
15211TIP3   OH267123   6.772   1.101   3.376  0.5643  0.2096  0.0616
15211TIP3    H167124   6.733   1.034   3.320  0.3028  0.7667 -0.4334
15211TIP3    H267125   6.705   1.169   3.382  0.4709  0.0248  1.3063
15212TIP3   OH267126   4.193   5.447   6.621 -0.0779 -0.0734  0.5816
15212TIP3    H167127   4.232   5.529   6.592 -0.1813 -0.1825  0.1159
15212TIP3    H267128   4.112   5.440   6.570 -0.1825 -0.3530  0.7848
15213TIP3   OH267129   3.452   4.978  11.856  0.1821 -0.7088  0.0474
15213TIP3    H167130   3.359   4.963  11.875 -0.2736  0.5483 -1.0137
15213TIP3    H267131   3.497   4.958  11.938 -1.3700  1.7744  1.6287
15214TIP3   OH267132   4.296   6.310   4.240  0.4573  0.1182  0.8933
15214TIP3    H167133   4.227   6.349   4.187 -0.1503 -0.9009  0.9088
15214TIP3    H267134   4.296   6.360   4.321 -0.4561 -0.0465  0.9984
15215TIP3   OH267135   1.555   2.390  16.511 -0.2029 -0.1415 -0.2870
15215TIP3    H167136   1.462   2.413  16.510 -0.6537 -1.6805  1.1077
15215TIP3    H267137   1.600   2.471  16.485 -1.9011  0.6883 -0.8243
15216TIP3   OH267138   1.971   4.976   2.098  0.1089  0.6910  0.2360
15216TIP3    H167139   1.935   5.061   2.075 -1.8718  0.4050  2.0253
15216TIP3    H267140   1.897   4.915   2.093  1.0355 -0.5574  0.8970
15217TIP3   OH267141   4.484   0.325   5.393  0.0047 -0.5672  0.0614
15217TIP3    H167142   4.513   0.327   5.484 -0.1110 -2.1314  0.1574
15217TIP3    H267143   4.439   0.409   5.380  1.8926  0.6061  0.7828
15218TIP3   OH267144   0.255   5.741   5.172 -0.0407 -0.2470 -0.5061
15218TIP3    H167145   0.305   5.790   5.238 -1.0639  2.2021 -1.4328
15218TIP3    H267146   0.240   5.656   5.212  1.0349  0.4936  1.6341
15219TIP3   OH267147   0.106   3.929  16.490 -0.1656 -0.2019 -0.2185
15219TIP3    H167148   0.051   3.939  16.568  0.3237  0.5379  0.0392
15219TIP3    H267149   0.044   3.909  16.419 -0.4421 -3.3852  0.7436
15220TIP3   OH267150   4.316   3.396   1.695  0.4929  0.6160  0.0274
15220TIP3    H167151   4.252   3.452   1.651  1.2197  0.5317 -1.1790
15220TIP3    H267152   4.271   3.366   1.774 -0.5186  1.5173 -0.1826
15221TIP3   OH267153   3.860   1.811  14.457 -0.5770 -0.6348  0.1467
15221TIP3    H167154   3.878   1.900  14.487  1.0523 -0.7859 -0.2802
15221TIP3    H267155   3.947   1.771  14.448 -1.2651 -2.1338 -0.0725
15222TIP3   OH267156   5.039   2.402  14.200 -0.3030  0.1890  0.0447
15222TIP3    H167157   4.995   2.334  14.150 -0.4096  0.7815 -0.6852
15222TIP3    H267158   5.046   2.366  14.289 -3.7777  0.6896  0.6650
15223TIP3   OH267159   2.348   1.845   1.134  0.0107  0.2627  0.1890
15223TIP3    H167160   2.307   1.932   1.133  0.3498  0.4943  2.1380
15223TIP3    H267161   2.302   1.796   1.066  0.0631  2.0633 -1.2229
15224TIP3   OH267162   3.961   6.203  13.708 -0.0410  0.1135 -0.9023
15224TIP3    H167163   3.924   6.175  13.792  0.5070  1.4722 -0.1783
15224TIP3    H267164   3.946   6.297  13.706  0.0785  0.1144 -2.2822
15225TIP3   OH267165   5.330   4.824   4.906 -0.5275  0.6878 -0.0930
15225TIP3    H167166   5.371   4.738   4.898 -0.6147  0.5379  0.8672
15225TIP3    H267167   5.387   4.871   4.968 -0.7059  1.1753 -0.2962
15226TIP3   OH267168   4.008   1.072  17.285  0.2350 -0.4119 -0.4055
15226TIP3    H167169   3.942   1.009  17.314  2.1948 -2.7769 -0.6940
15226TIP3    H267170   3.963   1.127  17.221 -1.7532 -1.0862  0.3518
15227TIP3   OH267171   6.601   6.405   1.011  0.8466 -0.7549  0.1121
15227TIP3    H167172   6.633   6.421   1.099 -1.3289  0.5308  0.7542
15227TIP3    H267173   6.538   6.334   1.020 -1.0330  0.8280  0.0656
15228TIP3   OH267174   5.384   5.302   2.304 -0.3229 -0.5693  0.1452
15228TIP3    H167175   5.365   5.343   2.389  0.3628 -0.1429  0.0989
15228TIP3    H267176   5.423   5.217   2.327 -2.0506 -1.3925  0.2406
15229TIP3   OH267177   4.322   0.438   1.342 -0.2132  0.2157  0.3825
15229TIP3    H167178   4.259   0.385   1.392  0.4501 -0.0581  0.9479
15229TIP3    H267179   4.298   0.423   1.250 -2.2538  1.7032  0.5927
15230TIP3   OH267180   1.354   5.097  14.928 -0.3117 -0.2873 -0.3569
15230TIP3    H167181   1.404   5.023  14.895 -0.1934 -0.3510 -0.0282
15230TIP3    H267182   1.302   5.062  15.000 -1.8317 -0.5352 -1.5157
15231TIP3   OH267183   2.423   6.133  14.485 -0.4198 -0.0916 -0.1155
15231TIP3    H167184   2.425   6.037  14.485 -0.2488 -0.0899 -0.5989
15231TIP3    H267185   2.374   6.156  14.565 -1.4465 -0.6093 -0.5741
15232TIP3   OH267186   3.725   0.636   1.570 -0.3634  0.1996 -0.0873
15232TIP3    H167187   3.707   0.634   1.476  0.2296  0.2756 -0.2052
15232TIP3    H267188   3.687   0.719   1.599 -1.0092 -0.0651 -0.1606
15233TIP3   OH267189   6.329   6.164   2.381 -0.0492  0.1235  0.0363
15233TIP3    H167190   6.291   6.222   2.316  2.6278  1.2189 -0.6695
15233TIP3    H267191   6.313   6.208   2.465 -1.8655 -0.3772 -0.0046
15234TIP3   OH267192   0.749   5.109   0.343 -0.5997  0.0890 -0.5849
15234TIP3    H167193   0.818   5.068   0.290  1.0917 -1.5639  2.6127
15234TIP3    H267194   0.780   5.198   0.357  1.2033 -0.7371  1.1087
15235TIP3   OH267195   6.246   4.179  13.638  0.4666 -0.1159 -0.2773
15235TIP3    H167196   6.179   4.111  13.638  0.3156  0.0292 -0.6522
15235TIP3    H267197   6.253   4.206  13.547  0.7903  0.1118 -0.1871
15236TIP3   OH267198   6.059   2.066   1.556 -0.0388  0.1411 -0.3823
15236TIP3    H167199   5.993   2.023   1.610  0.3112 -1.6933 -1.3525
15236TIP3    H267200   6.046   2.030   1.468  1.6063  0.4785 -0.7998
15237TIP3   OH267201   0.307   4.627  11.983  0.4460 -0.0980  0.0427
15237TIP3    H167202   0.280   4.596  11.896 -0.5108 -1.1745  0.7121
15237TIP3    H267203   0.335   4.718  11.967 -0.1788 -0.1118 -1.3041
15238TIP3   OH267204   0.883   2.281  14.066  0.1049 -0.2913  0.4342
15238TIP3    H167205   0.918   2.301  13.980 -0.8597 -1.4487 -0.2496
15238TIP3    H267206   0.835   2.199  14.055 -2.7494  1.1165  1.2798
15239TIP3   OH267207   1.512   4.837  15.543  0.4617  0.0390  0.0945
15239TIP3    H167208   1.573   4.763  15.540  0.4038 -0.0352  0.5593
15239TIP3    H267209   1.555   4.899  15.602  0.2810  0.1613  0.0948
15240TIP3   OH267210   6.460   0.439   0.253  0.2858 -0.1259 -0.5166
15240TIP3    H167211   6.367   0.419   0.246  0.5742 -1.0179 -2.3673
15240TIP3    H267212   6.498   0.363   0.295  0.1077  0.6124  1.0795
15241TIP3   OH267213   2.936   3.842   2.964  0.2218  0.3117 -0.9623
15241TIP3    H167214   2.871   3.786   3.006 -1.5588  1.2263 -2.3542
15241TIP3    H267215   2.999   3.780   2.926  0.7989 -0.5692  1.2443
15242TIP3   OH267216   4.277   6.602   4.402  0.1150  0.5257  0.0255
15242TIP3    H167217   4.182   6.600   4.386  0.0841 -1.2915  0.2518
15242TIP3    H267218   4.291   6.537   4.470  1.7959 -0.9904 -1.6755
15243TIP3   OH267219   6.223   5.516  12.837  0.1561  0.5818 -0.1754
15243TIP3    H167220   6.138   5.475  12.823 -0.0104  0.8144  0.1419
15243TIP3    H267221   6.272   5.453  12.891 -0.0390  0.7223  0.1697
15244TIP3   OH267222   1.845   4.144   0.640  0.2345 -0.8819  0.1014
15244TIP3    H167223   1.907   4.166   0.710  0.0960  1.0275 -0.3136
15244TIP3    H267224   1.780   4.215   0.643  0.6429 -0.3085 -2.4443
15245TIP3   OH267225   0.102   0.050  15.215 -0.6381  0.9303  0.2034
15245TIP3    H167226   0.017   0.025  15.180  0.7494 -0.7828 -2.2355
15245TIP3    H267227   0.133  -0.029  15.261  0.2370  1.0252 -0.2088
15246TIP3   OH267228   4.091   4.139  17.254  0.1831 -0.3718  0.0659
15246TIP3    H167229   4.053   4.052  17.241  0.5170 -0.7904  1.6960
15246TIP3    H267230   4.181   4.130  17.222 -0.2763 -0.1059 -1.3853
15247TIP3   OH267231   6.744   6.251  15.495 -0.3196 -0.7950 -0.1204
15247TIP3    H167232   6.729   6.292  15.410 -1.4198 -0.3554  0.2594
15247TIP3    H267233   6.695   6.305  15.556  1.6100 -0.2468  1.0314
15248TIP3   OH267234   1.503   4.593  14.568 -0.4375 -0.0934  0.0291
15248TIP3    H167235   1.496   4.507  14.610 -0.6955  0.6586  1.5856
15248TIP3    H267236   1.487   4.576  14.476  1.9641 -2.1071 -0.1230
15249TIP3   OH267237   4.761   5.893  12.075  0.7247  0.0223 -0.1736
15249TIP3    H167238   4.732   5.907  11.985  0.6348  0.8533 -0.0192
15249TIP3    H267239   4.715   5.814  12.103 -0.8286  0.9019 -0.1726
15250TIP3   OH267240   0.679   3.611  15.263 -0.0828 -0.0026  0.0331
15250TIP3    H167241   0.657   3.523  15.292 -2.4860  1.0993  1.9595
15250TIP3    H267242   0.602   3.641  15.215  0.4979  1.2015 -0.1840
15251TIP3   OH267243   1.967   5.925  15.538 -0.4754  0.1877  1.2876
15251TIP3    H167244   1.975   5.833  15.512  0.1502  0.6318 -0.2029
15251TIP3    H267245   2.056   5.951  15.562 -0.6614  0.4007  1.7617
15252TIP3   OH267246   2.775   0.757   0.698 -0.2565  0.0878  0.5071
15252TIP3    H167247   2.786   0.689   0.765 -0.3563  1.2400  1.7206
15252TIP3    H267248   2.685   0.787   0.708 -0.6523 -0.4877 -0.9308
15253TIP3   OH267249   0.017   2.806   6.339  0.3673  0.0516 -0.2439
15253TIP3    H167250  -0.062   2.800   6.286  0.1449  2.2137 -0.2415
15253TIP3    H267251   0.088   2.786   6.278 -0.0367  0.4337 -0.8593
15254TIP3   OH267252   1.528   0.100   0.131 -0.0477 -0.1411  0.4367
15254TIP3    H167253   1.514   0.009   0.157 -0.2044 -0.2422  0.0047
15254TIP3    H267254   1.485   0.151   0.199 -1.0930 -0.4163  0.0008
15255TIP3   OH267255   6.549   2.070  14.418 -0.2107  0.1536 -0.0826
15255TIP3    H167256   6.533   2.077  14.512  2.0989  0.2633  0.3702
15255TIP3    H267257   6.498   1.994  14.390  0.0467 -0.6600  1.5411
15256TIP3   OH267258   2.753   1.406  15.586  0.4440  0.0763 -0.5165
15256TIP3    H167259   2.777   1.492  15.553  1.0817 -0.4558 -1.4668
15256TIP3    H267260   2.672   1.421  15.635  0.7346  1.2669 -0.3768
15257TIP3   OH267261   6.024   1.006   4.876  0.5686  0.4457  0.1879
15257TIP3    H167262   6.015   0.917   4.909 -0.9439  1.1479  1.8356
15257TIP3    H267263   6.083   1.049   4.937 -0.1509  1.0437  0.4843
15258TIP3   OH267264   6.567   5.846   0.964  0.2212  0.6574  0.0582
15258TIP3    H167265   6.488   5.878   1.008 -0.7969 -1.9535  0.3371
15258TIP3    H267266   6.574   5.900   0.886 -2.1577  0.6854 -0.2237
15259TIP3   OH267267   6.009   2.687   4.338  0.4006  0.0101  0.5481
15259TIP3    H167268   5.934   2.725   4.291  1.5504 -0.3477 -1.6979
15259TIP3    H267269   5.991   2.705   4.430 -1.6035  1.4300 -0.0544
15260TIP3   OH267270   3.583   2.585  10.855 -0.2595  0.8632  0.1209
15260TIP3    H167271   3.563   2.567  10.947 -0.2313 -0.3728 -0.0936
15260TIP3    H267272   3.578   2.499  10.812  2.5051  0.9290 -0.5139
15261TIP3   OH267273   5.792   4.060  17.382  0.4102 -0.4412 -0.8051
15261TIP3    H167274   5.872   4.035  17.427  1.1531  0.8276 -1.3663
15261TIP3    H267275   5.812   4.051  17.288 -0.4973 -1.2288 -0.9502
15262TIP3   OH267276   5.801   0.256  13.586  0.0792  0.0308  0.0992
15262TIP3    H167277   5.855   0.202  13.528 -0.9165  1.0230 -1.8443
15262TIP3    H267278   5.851   0.337  13.597 -0.6190  0.6528 -1.0936
15263TIP3   OH267279   1.390   2.199  13.589  0.2987 -0.2248  0.0754
15263TIP3    H167280   1.444   2.278  13.592  0.9590 -0.4907 -2.4061
15263TIP3    H267281   1.432   2.140  13.651  2.3494 -0.0680 -1.0421
15264TIP3   OH267282   5.245   5.341   5.802 -0.1939  0.1214  0.0227
15264TIP3    H167283   5.336   5.364   5.784 -0.3349  0.4918 -0.2470
15264TIP3    H267284   5.249   5.284   5.879  0.2188  0.6086  0.3736
15265TIP3   OH267285   4.130   3.920   1.084 -0.7051 -0.4088  0.8495
15265TIP3    H167286   4.107   3.836   1.125 -0.6752 -1.0077 -0.3056
15265TIP3    H267287   4.184   3.895   1.009  1.8553  0.8226  2.1591
15266TIP3   OH267288   2.831   4.949  16.825  0.4171  0.0199  0.0408
15266TIP3    H167289   2.860   4.930  16.914 -2.2222 -0.3844  0.9047
15266TIP3    H267290   2.833   5.044  16.818  0.7600  0.0442  0.4702
15267TIP3   OH267291   4.477   4.678   1.520  0.1601  0.5669  0.4321
15267TIP3    H167292   4.435   4.609   1.469  2.2638 -1.2261  0.9972
15267TIP3    H267293   4.548   4.710   1.464  0.7234  0.5497  1.1201
15268TIP3   OH267294   4.224   2.750   4.868 -0.4223  0.1929 -0.1021
15268TIP3    H167295   4.263   2.830   4.832 -0.4199  0.1727 -0.1451
15268TIP3    H267296   4.290   2.718   4.930  1.6794 -2.1756 -3.2050
15269TIP3   OH267297   1.786   3.367   0.146  0.1418 -0.3303 -0.0659
15269TIP3    H167298   1.716   3.313   0.108  0.6645  0.2333 -1.9333
15269TIP3    H267299   1.865   3.315   0.132  0.4123  0.1199 -0.2078
15270TIP3   OH267300   2.176   0.409  12.923 -0.2431 -0.6290 -0.2395
15270TIP3    H167301   2.239   0.469  12.883 -1.3235  1.0228  0.4301
15270TIP3    H267302   2.212   0.389  13.009  0.7111 -1.9775 -0.9020
15271TIP3   OH267303   3.466   3.853   5.532 -0.7130  0.2318  0.0752
15271TIP3    H167304   3.388   3.870   5.586 -1.3134  0.0404 -0.7074
15271TIP3    H267305   3.480   3.935   5.485 -1.4289 -0.2390 -0.9950
15272TIP3   OH267306   2.916   2.570  16.997  0.4210  0.5683 -0.4738
15272TIP3    H167307   2.860   2.638  17.034  0.1669  0.3116 -0.3791
15272TIP3    H267308   2.930   2.597  16.906 -0.5744  0.1947 -0.7517
15273TIP3   OH267309   1.206   5.690  12.063  0.5486 -0.4076 -0.5930
15273TIP3    H167310   1.196   5.595  12.061  1.6266 -0.5754  0.6486
15273TIP3    H267311   1.146   5.722  11.996  0.6934 -1.9990 -1.5294
15274TIP3   OH267312   0.343   4.993   2.491  1.1396 -0.2061 -0.1857
15274TIP3    H167313   0.285   5.067   2.476  0.0041 -0.7916  1.0749
15274TIP3    H267314   0.288   4.928   2.535  2.4185 -1.3084 -0.1448
15275TIP3   OH267315   2.631   5.853  16.590 -0.6232  0.4830  0.0170
15275TIP3    H167316   2.629   5.830  16.683 -0.0272 -1.3509 -0.3804
15275TIP3    H267317   2.548   5.898  16.574 -0.6778  0.9319  1.4445
15276TIP3   OH267318   5.487   5.094   1.081  0.4247  0.3775  0.5287
15276TIP3    H167319   5.452   5.169   1.033  1.7433  1.2156  0.8270
15276TIP3    H267320   5.581   5.095   1.062  0.8372  0.1780  2.3579
15277TIP3   OH267321   5.601   6.350  17.492 -0.2196 -0.0231 -0.3544
15277TIP3    H167322   5.628   6.290  17.423 -0.9249 -0.5139 -0.2255
15277TIP3    H267323   5.583   6.293  17.567  0.3032  0.4790  0.1608
15278TIP3   OH267324   1.581   5.548  13.031  0.2285  0.3877  0.2303
15278TIP3    H167325   1.589   5.575  13.123  0.8593 -2.7263  1.2284
15278TIP3    H267326   1.671   5.549  12.998 -0.1570  3.2216 -1.0418
15279TIP3   OH267327   2.805   3.036   1.036 -0.1547  0.3199 -0.5370
15279TIP3    H167328   2.879   2.987   1.000 -0.5244 -0.7338  0.1098
15279TIP3    H267329   2.838   3.126   1.044  1.0267 -0.1078 -0.3709
15280TIP3   OH267330   5.578   0.153  13.708  0.9503  0.0547 -0.2590
15280TIP3    H167331   5.669   0.157  13.679  1.3052  1.5301  0.8984
15280TIP3    H267332   5.547   0.243  13.700 -0.3930 -0.4292 -0.5889
15281TIP3   OH267333   0.835   6.752  17.291 -0.3840  0.3438  0.3481
15281TIP3    H167334   0.867   6.753  17.381  1.6457 -0.9693 -0.2857
15281TIP3    H267335   0.810   6.662  17.276 -0.2041  0.4348 -0.5443
15282TIP3   OH267336   0.513   3.370  14.556  0.4073 -0.0362 -0.2384
15282TIP3    H167337   0.505   3.305  14.486 -0.4498  1.0944 -1.2135
15282TIP3    H267338   0.456   3.337  14.625  0.6355 -0.7489 -0.3807
15283TIP3   OH267339   4.246   6.616  12.351  0.2163 -0.3887 -0.1420
15283TIP3    H167340   4.220   6.577  12.435  0.7545 -0.0373  0.1939
15283TIP3    H267341   4.255   6.542  12.292  0.9115 -0.7455  0.4065
15284TIP3   OH267342   4.669   5.002  11.827  0.0256  0.1494 -0.1687
15284TIP3    H167343   4.680   5.076  11.886  0.5378  0.9007 -1.1671
15284TIP3    H267344   4.726   4.934  11.862  0.2920  0.5690  0.2245
15285TIP3   OH267345   1.315   0.478  16.994 -0.1009  0.1858  0.3018
15285TIP3    H167346   1.370   0.441  16.925 -2.7043  0.7173 -2.1969
15285TIP3    H267347   1.342   0.570  16.999 -0.0992  0.2144 -0.2052
15286TIP3   OH267348   5.176   4.105  15.282 -0.0200  0.0620 -0.1738
15286TIP3    H167349   5.184   4.174  15.217  0.4465  0.9901  0.8363
15286TIP3    H267350   5.267   4.080  15.301 -0.1044  0.4304  0.7612
15287TIP3   OH267351   2.217   3.208  12.974 -0.4198 -0.3441  0.7180
15287TIP3    H167352   2.210   3.151  13.050 -1.3533  0.8359  1.5589
15287TIP3    H267353   2.134   3.255  12.971  0.5565  1.4638  0.4921
15288TIP3   OH267354   5.584   0.589   5.036 -0.6421  0.1643 -0.4701
15288TIP3    H167355   5.583   0.496   5.014 -0.0552  0.0895 -0.2165
15288TIP3    H267356   5.622   0.592   5.124  0.6256  0.7335 -1.0032
15289TIP3   OH267357   4.321   1.657  15.231 -0.0339  0.0810  0.4886
15289TIP3    H167358   4.317   1.746  15.267  1.9213 -0.0638  1.1806
15289TIP3    H267359   4.244   1.613  15.267 -0.8006  1.3557  0.4727
15290TIP3   OH267360   2.980   5.285  15.846  0.2440 -0.1641 -0.3382
15290TIP3    H167361   3.030   5.214  15.805 -0.2040 -1.2619  0.9583
15290TIP3    H267362   3.043   5.326  15.906  0.7366  1.0911 -1.6427
15291TIP3   OH267363   4.470   0.761   4.777 -0.2231 -0.1994 -0.4193
15291TIP3    H167364   4.474   0.775   4.682 -0.4214 -2.7629 -0.8982
15291TIP3    H267365   4.519   0.680   4.791 -3.0772 -1.8595  1.0946
15292TIP3   OH267366   1.911   0.453  11.797  0.2273 -0.0602  0.0485
15292TIP3    H167367   1.896   0.384  11.861  0.4403 -0.1904 -0.0424
15292TIP3    H267368   1.857   0.526  11.828 -0.5658 -0.5043 -0.2536
15293TIP3   OH267369   3.630   0.875   1.592 -0.2167  0.5759  0.3190
15293TIP3    H167370   3.579   0.938   1.644 -2.3153 -0.1309 -0.7909
15293TIP3    H267371   3.597   0.885   1.503 -0.6996 -2.1111  0.1074
15294TIP3   OH267372   4.647   4.366   0.467  0.3564  0.0982  0.9749
15294TIP3    H167373   4.653   4.386   0.373  0.5010 -0.9203  0.7578
15294TIP3    H267374   4.562   4.401   0.493 -0.5799 -1.3418  0.0070
15295TIP3   OH267375   6.019   0.461   1.144  0.7172  0.7517 -0.1985
15295TIP3    H167376   6.006   0.406   1.066  0.7006  1.3821 -0.6503
15295TIP3    H267377   5.930   0.483   1.172  0.6936 -0.3829  0.6682
15296TIP3   OH267378   5.098   2.913  17.260 -0.0360 -0.5558  0.3160
15296TIP3    H167379   5.079   2.881  17.171  0.7273 -1.3533  0.4329
15296TIP3    H267380   5.059   2.847  17.318  1.8298 -1.5058  0.5582
15297TIP3   OH267381   0.053   4.918  14.864 -0.6253  0.2546 -0.5313
15297TIP3    H167382  -0.022   4.860  14.852 -1.2701  1.2776 -1.5018
15297TIP3    H267383   0.077   4.945  14.776  0.0582  0.9857 -0.1274
15298TIP3   OH267384   2.510   0.753  12.587 -0.2003  0.4584  0.4498
15298TIP3    H167385   2.587   0.699  12.566 -0.4292 -0.1825  1.1997
15298TIP3    H267386   2.533   0.794  12.671  0.0903  1.7794 -0.2624
15299TIP3   OH267387   3.343   5.758   4.942 -0.8831  0.0172 -0.0840
15299TIP3    H167388   3.311   5.690   5.001 -0.3500  0.2405  0.4724
15299TIP3    H267389   3.268   5.817   4.930 -0.6704  0.5952  1.2943
15300TIP3   OH267390   1.214   2.844   4.637 -0.4495 -0.3700  0.3345
15300TIP3    H167391   1.205   2.857   4.731 -0.8513  0.7902  0.1488
15300TIP3    H267392   1.309   2.842   4.622 -0.3720  0.6424  0.6191
15301TIP3   OH267393   0.426   5.204  16.961  1.1397  0.0013 -0.0409
15301TIP3    H167394   0.372   5.137  16.919  0.5197  0.3402  0.2065
15301TIP3    H267395   0.473   5.157  17.030  1.4951 -0.3800 -0.5329
15302TIP3   OH267396   2.865   5.744  13.487 -0.2389 -0.5532 -0.1011
15302TIP3    H167397   2.817   5.666  13.515 -0.6807  0.2128  1.3375
15302TIP3    H267398   2.947   5.709  13.451 -1.8340 -1.9006 -2.8210
15303TIP3   OH267399   0.348   1.901  11.509  0.2869  0.2494 -0.3130
15303TIP3    H167400   0.425   1.958  11.517  0.3011 -0.0356  2.4233
15303TIP3    H267401   0.378   1.827  11.457  1.8560  0.2010  0.6010
15304TIP3   OH267402   0.361   1.020   5.043 -0.2167  0.2140 -0.7074
15304TIP3    H167403   0.276   0.984   5.018  0.3375 -0.9000 -1.0323
15304TIP3    H267404   0.425   0.955   5.015  0.8715  1.6234 -1.6628
15305TIP3   OH267405   0.260   5.333   4.609  0.3025  0.0932  0.5924
15305TIP3    H167406   0.256   5.388   4.531 -0.2346  0.1408  0.6531
15305TIP3    H267407   0.314   5.382   4.671  0.8669 -0.0158  0.1979
15306TIP3   OH267408   3.653   6.379  15.199 -0.4450  0.2801 -0.1435
15306TIP3    H167409   3.607   6.300  15.229 -1.3045  0.4976 -0.8635
15306TIP3    H267410   3.584   6.443  15.184  0.2878  1.4241  1.1087
15307TIP3   OH267411   3.171   5.922   2.014 -0.0401  0.1587 -0.1111
15307TIP3    H167412   3.227   5.952   1.942  0.1469  0.1200  0.0165
15307TIP3    H267413   3.232   5.882   2.076  0.2187  2.8360  1.4907
15308TIP3   OH267414   3.818   3.010   6.320  0.0404  0.0058  0.3469
15308TIP3    H167415   3.869   3.075   6.368  0.2444 -0.2642  0.4998
15308TIP3    H267416   3.759   3.062   6.264  1.7658  0.3522 -1.2401
15309TIP3   OH267417   6.384   5.971  13.958 -0.1767 -0.1125 -0.3100
15309TIP3    H167418   6.452   5.910  13.929  0.4110 -0.7603  2.2013
15309TIP3    H267419   6.431   6.053  13.975 -0.5392  0.3025 -1.2233
15310TIP3   OH267420   5.179   6.446  15.463 -0.0603  0.4760  0.3974
15310TIP3    H167421   5.088   6.475  15.466 -0.5799 -1.0111  0.1839
15310TIP3    H267422   5.174   6.354  15.437  1.4449  0.0665  1.3814
15311TIP3   OH267423   3.385   5.643  12.885  0.4907 -0.0217 -0.6430
15311TIP3    H167424   3.384   5.685  12.971  0.6349  0.2216 -0.7592
15311TIP3    H267425   3.417   5.711  12.825 -1.5792  0.5003 -1.2385
15312TIP3   OH267426   0.528   3.920   1.526 -0.1162  0.8240  0.1740
15312TIP3    H167427   0.476   4.000   1.514 -0.9110  0.4655  1.0606
15312TIP3    H267428   0.470   3.862   1.575  0.4791 -0.2796 -0.3982
15313TIP3   OH267429   3.701   4.684  16.131  0.0785 -0.0147  0.3497
15313TIP3    H167430   3.734   4.773  16.145  1.8192 -0.6990  0.7614
15313TIP3    H267431   3.758   4.628  16.183 -1.1566 -1.3763  0.3072
15314TIP3   OH267432   6.324   4.664  14.269 -0.6060 -0.3033 -0.1335
15314TIP3    H167433   6.406   4.653  14.222 -1.4758 -3.0829 -1.1572
15314TIP3    H267434   6.264   4.703  14.205 -0.5422  0.2386  0.1280
15315TIP3   OH267435   5.380   6.307   4.320 -0.0219  0.0750  0.0625
15315TIP3    H167436   5.414   6.266   4.399 -0.6140 -0.6051 -0.0197
15315TIP3    H267437   5.451   6.363   4.289 -0.1947  1.3052  1.7359
15316TIP3   OH267438   0.972   0.592   5.270 -0.5118 -0.6202 -0.1849
15316TIP3    H167439   1.012   0.528   5.211 -1.1190 -0.2076 -1.0540
15316TIP3    H267440   1.040   0.609   5.336 -0.1175 -1.6838 -0.3021
15317TIP3   OH267441   6.402   2.378   3.665  0.0188  0.3593  0.3870
15317TIP3    H167442   6.358   2.426   3.736 -0.2679 -0.7739  0.9880
15317TIP3    H267443   6.331   2.334   3.619  0.2859  0.4908 -0.1545
15318TIP3   OH267444   6.176   4.053   0.712  0.1560 -0.8469  0.0775
15318TIP3    H167445   6.169   3.985   0.645  0.6919  0.4917 -1.4399
15318TIP3    H267446   6.162   4.135   0.663  0.8894  0.2052  1.5521
15319TIP3   OH267447   4.213   3.026   4.239 -0.4055 -0.1830  0.4155
15319TIP3    H167448   4.161   3.063   4.167  1.5870 -0.1271 -1.0874
15319TIP3    H267449   4.261   3.100   4.275 -0.5701 -0.4018  1.0885
15320TIP3   OH267450   5.333   2.141   3.506  0.8947  0.0160  0.3903
15320TIP3    H167451   5.256   2.149   3.450  0.9978 -4.1178 -0.6801
15320TIP3    H267452   5.298   2.113   3.591  1.0932 -0.5621  0.2884
15321TIP3   OH267453   4.573   2.715  16.323  0.5596 -0.1917 -0.1738
15321TIP3    H167454   4.658   2.729  16.365  0.2923 -1.8859  1.0553
15321TIP3    H267455   4.513   2.696  16.396 -0.5840 -0.2989 -1.1108
15322TIP3   OH267456   4.412   5.733  11.713 -0.1540 -0.0105 -0.2655
15322TIP3    H167457   4.317   5.744  11.708 -0.3173 -1.6451 -1.3500
15322TIP3    H267458   4.448   5.802  11.657 -0.7174  0.3583 -0.1721
15323TIP3   OH267459   3.264   2.432   3.869  0.5644 -0.2367  0.2682
15323TIP3    H167460   3.243   2.422   3.776  2.3279 -0.4595 -0.1421
15323TIP3    H267461   3.319   2.510   3.872  1.0114 -0.5748  1.0440
15324TIP3   OH267462   0.429   4.725  12.749  0.3281  0.0607  0.8692
15324TIP3    H167463   0.362   4.664  12.720 -0.2923  0.1454  2.0619
15324TIP3    H267464   0.509   4.695  12.707 -0.7822  1.2323 -2.3751
15325TIP3   OH267465   4.921   3.122   4.851 -0.4504 -0.5344  0.0502
15325TIP3    H167466   4.904   3.067   4.928 -0.6295  1.6241  1.6613
15325TIP3    H267467   4.964   3.064   4.789  1.2638 -1.9921  2.4352
15326TIP3   OH267468   0.529   5.774  15.319 -0.1472 -0.0691 -0.3832
15326TIP3    H167469   0.474   5.840  15.277  0.0817  0.2908 -0.1189
15326TIP3    H267470   0.585   5.742  15.248 -1.3903 -1.1926 -0.9002
15327TIP3   OH267471   1.936   5.312  14.306 -0.5093 -0.3155  0.0394
15327TIP3    H167472   1.959   5.298  14.214 -0.4808  1.8334 -0.3192
15327TIP3    H267473   1.841   5.309  14.308 -0.7114  2.6478 -0.6893
15328TIP3   OH267474   0.317   1.746   1.882 -0.5466  0.5607 -0.0544
15328TIP3    H167475   0.356   1.833   1.889  0.4845 -0.0452  3.5090
15328TIP3    H267476   0.223   1.763   1.873 -0.3613  2.0313  0.4660
15329TIP3   OH267477   0.933   4.170  13.067  0.2453 -0.1934 -0.0338
15329TIP3    H167478   0.962   4.164  13.158  0.4049 -0.4601 -0.1009
15329TIP3    H267479   0.927   4.079  13.037 -1.2584 -0.1785  0.1584
15330TIP3   OH267480   6.779   1.678  14.812 -0.5453 -0.6582  0.1324
15330TIP3    H167481   6.750   1.700  14.901  0.9218 -1.1875  0.7684
15330TIP3    H267482   6.808   1.587  14.817 -1.4038 -1.0283 -1.1515
15331TIP3   OH267483   2.993   6.017   4.067  0.5188  0.2814  0.8569
15331TIP3    H167484   3.057   5.968   4.016  0.5462 -1.9166  2.8253
15331TIP3    H267485   2.922   6.035   4.006  1.3611 -0.5582 -0.4117
15332TIP3   OH267486   3.408   3.945  15.835 -0.1627 -0.3236  0.5626
15332TIP3    H167487   3.349   3.928  15.909  0.0546  0.4267  0.9164
15332TIP3    H267488   3.396   3.870  15.777 -3.4179  0.9328 -0.6495
15333TIP3   OH267489   3.612   0.357   1.449  0.6677 -0.9944 -0.0030
15333TIP3    H167490   3.692   0.312   1.477  0.0552 -1.4200  1.1555
15333TIP3    H267491   3.598   0.425   1.515 -1.1585 -2.4214  1.2192
15334TIP3   OH267492   3.980   4.249   6.233  0.7218  0.7110 -0.0795
15334TIP3    H167493   3.962   4.342   6.219  0.8791  0.6866 -0.4807
15334TIP3    H267494   3.896   4.211   6.256  0.6570  0.9525  0.0908
15335TIP3   OH267495   2.424   2.307   0.146  0.2230 -0.1920 -0.4982
15335TIP3    H167496   2.455   2.389   0.184  1.0616  0.4503 -2.4177
15335TIP3    H267497   2.434   2.242   0.215  0.0651  1.2116  0.8896
15336TIP3   OH267498   2.995   2.353  15.773 -0.1360 -0.2460  0.2091
15336TIP3    H167499   2.899   2.349  15.776 -0.1317 -0.0952  0.6485
15336TIP3    H267500   3.018   2.321  15.686 -0.5507 -0.9544  0.3563
15337TIP3   OH267501   3.294   2.787   2.192 -0.7378  0.2932  0.0928
15337TIP3    H167502   3.215   2.828   2.228 -1.1566  1.2282 -1.7706
15337TIP3    H267503   3.281   2.790   2.097  0.4822 -1.7302 -0.1859
15338TIP3   OH267504   4.901   3.091  16.376 -0.4656  0.2669 -0.6526
15338TIP3    H167505   4.890   3.078  16.470  1.6224 -0.6987 -0.4890
15338TIP3    H267506   4.866   3.012  16.336  0.1701 -0.0720 -0.5530
15339TIP3   OH267507   6.206   6.667   6.479  0.2299  0.1465 -0.2745
15339TIP3    H167508   6.237   6.579   6.499 -0.9822 -0.4839 -1.0900
15339TIP3    H267509   6.232   6.681   6.388 -0.5083  0.2108 -0.4774
15340TIP3   OH267510   1.009   0.677   4.392 -0.5323 -0.0834 -0.1589
15340TIP3    H167511   1.013   0.756   4.446 -0.1796  0.7019 -1.3187
15340TIP3    H267512   1.027   0.606   4.454  2.8161  0.9771  0.2943
15341TIP3   OH267513   5.124   3.273   2.192  0.3008 -0.1375 -0.6830
15341TIP3    H167514   5.031   3.293   2.193  0.3985  0.4724 -1.7942
15341TIP3    H267515   5.130   3.190   2.144  0.1809 -1.2613  1.1404
15342TIP3   OH267516   0.782   2.466   0.445  0.5893 -0.5580 -0.5056
15342TIP3    H167517   0.749   2.400   0.507 -0.1997  1.1135  0.9338
15342TIP3    H267518   0.873   2.478   0.469 -0.1380  1.3642  1.6356
15343TIP3   OH267519   0.555   6.084   1.931 -0.3055  0.6044  0.1204
15343TIP3    H167520   0.520   6.023   1.866  1.1407  0.2421 -0.3649
15343TIP3    H267521   0.610   6.144   1.880  1.0168  0.1933  1.0175
15344TIP3   OH267522   5.560   2.528   4.225  0.4470 -0.0334  0.4718
15344TIP3    H167523   5.470   2.556   4.239  0.4319 -0.1230  0.5595
15344TIP3    H267524   5.553   2.448   4.172  0.5334  0.5856 -0.4786
15345TIP3   OH267525   2.023   5.914   2.353  0.1841 -0.3590 -0.0918
15345TIP3    H167526   2.117   5.896   2.361 -0.0718 -2.1077 -0.6787
15345TIP3    H267527   2.018   5.984   2.287  1.0686 -0.1884  0.0023
15346TIP3   OH267528   2.173   5.937  12.228 -0.5193 -0.0520  0.3098
15346TIP3    H167529   2.118   5.862  12.250 -1.6359  0.2599 -1.1917
15346TIP3    H267530   2.117   6.013  12.245  0.2838  0.4091  0.9588
15347TIP3   OH267531   1.600   5.546   3.135 -0.2772 -0.0654 -0.0183
15347TIP3    H167532   1.610   5.461   3.178 -0.3156 -0.8191 -1.4167
15347TIP3    H267533   1.670   5.600   3.172  0.4084 -1.0360  0.1431
15348TIP3   OH267534   4.001   4.397   2.479 -0.0453 -0.2608 -0.0325
15348TIP3    H167535   4.030   4.364   2.394  0.6471  2.4407 -0.9248
15348TIP3    H267536   4.048   4.342   2.543  0.9442 -1.0559 -1.3924
15349TIP3   OH267537   3.538   2.290   5.601  0.2301  0.3741  0.0946
15349TIP3    H167538   3.618   2.238   5.609 -0.7414 -1.2200 -0.1195
15349TIP3    H267539   3.473   2.242   5.650 -0.0597  3.0177  2.5692
15350TIP3   OH267540   1.574   0.723  14.242 -0.0470 -0.2024 -0.2654
15350TIP3    H167541   1.518   0.672  14.183  1.2382 -0.1404 -1.5994
15350TIP3    H267542   1.524   0.730  14.323 -0.8371 -2.4409 -0.4909
15351TIP3   OH267543   0.149   5.557   1.361  0.0619  0.5189 -0.2314
15351TIP3    H167544   0.233   5.526   1.396  0.6315  0.0585 -1.9114
15351TIP3    H267545   0.139   5.510   1.278 -1.6454  0.9202 -0.2781
15352TIP3   OH267546   1.985   1.183   0.945  0.0881  0.2382  0.0695
15352TIP3    H167547   2.042   1.223   1.012  0.6910  0.2318 -0.4241
15352TIP3    H267548   2.038   1.113   0.908  0.0863  0.7760 -0.9865
15353TIP3   OH267549   2.325   6.597  16.817 -0.2109 -0.2093  0.1206
15353TIP3    H167550   2.359   6.619  16.904 -0.5866  2.3292 -0.3040
15353TIP3    H267551   2.287   6.678  16.785 -0.8657 -1.3132 -2.0908
15354TIP3   OH267552   0.311   3.442   5.101  0.4623 -0.5066  0.0903
15354TIP3    H167553   0.260   3.519   5.074  0.6112 -0.3311  0.3054
15354TIP3    H267554   0.360   3.417   5.023 -0.9990 -1.5327 -0.5534
15355TIP3   OH267555   0.569   3.070  15.337  0.3017  0.0950 -0.0954
15355TIP3    H167556   0.549   3.002  15.400  0.7240 -0.3054 -0.3818
15355TIP3    H267557   0.637   3.031  15.281 -0.3412  0.2968 -1.0306
15356TIP3   OH267558   5.726   5.392   3.252  0.1993  0.5832 -0.2188
15356TIP3    H167559   5.671   5.391   3.330  0.6358 -0.5547  0.1001
15356TIP3    H267560   5.815   5.382   3.286  0.2916 -1.3046 -0.9181
15357TIP3   OH267561   4.141   2.758  14.064 -0.1076  0.6069  0.2612
15357TIP3    H167562   4.234   2.764  14.087 -0.0351  0.9846 -0.1037
15357TIP3    H267563   4.136   2.687  14.000 -0.4597 -1.1353  2.1140
15358TIP3   OH267564   3.357   1.322   0.133  0.5397  0.3659  0.4695
15358TIP3    H167565   3.302   1.384   0.181 -1.6760  1.3294 -2.9380
15358TIP3    H267566   3.305   1.241   0.131 -0.5343  1.0337 -2.0816
15359TIP3   OH267567   0.524   3.823   2.095 -0.2319 -0.4096 -0.1953
15359TIP3    H167568   0.551   3.793   2.181  0.9324  1.5950  0.1752
15359TIP3    H267569   0.441   3.868   2.110 -0.8060 -1.3521 -0.4026
15360TIP3   OH267570   3.227   3.923   1.190  0.3395  0.4511  0.3139
15360TIP3    H167571   3.253   3.836   1.220 -0.2025  0.3358  0.4566
15360TIP3    H267572   3.304   3.957   1.144  0.8025  0.1883  0.8856
15361TIP3   OH267573   5.744   2.255  13.599  0.5440  0.5326  0.3912
15361TIP3    H167574   5.826   2.249  13.649  0.0935  1.6282  1.2950
15361TIP3    H267575   5.772   2.251  13.507  1.3907 -1.5925  0.6739
15362TIP3   OH267576   2.633   2.863  16.171  0.4433  0.3536  0.5432
15362TIP3    H167577   2.680   2.803  16.229 -0.6526  0.8279  1.9802
15362TIP3    H267578   2.600   2.807  16.101  0.9316 -0.4102  0.9056
15363TIP3   OH267579   4.951   0.971  15.917  0.3331  0.1614 -0.2137
15363TIP3    H167580   4.888   0.991  15.987  1.1135 -1.0624  0.8811
15363TIP3    H267581   5.031   1.016  15.943  0.1718  1.0762 -1.2117
15364TIP3   OH267582   2.133   0.557  14.289 -0.1079 -0.1378  0.3918
15364TIP3    H167583   2.199   0.599  14.233 -1.3002  0.2430 -0.7697
15364TIP3    H267584   2.155   0.463  14.285  1.3498  0.1190  1.3867
15365TIP3   OH267585   6.735   1.505   2.616 -0.4417  0.0147 -0.4053
15365TIP3    H167586   6.742   1.436   2.549  0.9669 -0.3044  0.0179
15365TIP3    H267587   6.767   1.584   2.572  0.6672 -0.2358 -0.0834
15366TIP3   OH267588   3.225   6.412   4.238 -0.2417 -0.8681 -0.3733
15366TIP3    H167589   3.249   6.459   4.318  2.5264  0.0541 -1.6250
15366TIP3    H267590   3.187   6.479   4.181  1.8144 -0.4947 -1.3881
15367TIP3   OH267591   0.219   1.551  12.031  0.1407  0.0244 -0.0498
15367TIP3    H167592   0.269   1.612  12.086 -0.3854 -0.9147  1.5388
15367TIP3    H267593   0.233   1.466  12.071  1.8248 -1.1988 -2.9164
15368TIP3   OH267594   3.267   0.978   3.203  0.1842  0.0333 -0.2889
15368TIP3    H167595   3.280   0.931   3.285  1.5098 -0.6798 -0.8641
15368TIP3    H267596   3.185   0.943   3.167  0.0525 -0.2761  0.3068
15369TIP3   OH267597   1.977   4.794  13.111  0.4235 -0.5721 -0.0202
15369TIP3    H167598   1.984   4.854  13.037  0.9817 -1.5595 -0.7937
15369TIP3    H267599   2.068   4.783  13.140  0.1568  0.2781  1.2243
15370TIP3   OH267600   6.432   4.329   5.110  0.1494 -0.1826 -0.0379
15370TIP3    H167601   6.453   4.335   5.204  1.9121  1.3818 -0.4658
15370TIP3    H267602   6.394   4.415   5.090 -1.2484 -0.8955 -0.5720
15371TIP3   OH267603   3.832   3.959  14.304 -0.2405 -0.1591  0.5507
15371TIP3    H167604   3.866   3.993  14.221 -1.0256 -1.5625 -0.3818
15371TIP3    H267605   3.903   3.904  14.337  0.9766  2.1139  1.9935
15372TIP3   OH267606   3.263   4.641   2.015 -0.1368 -0.1950  0.5314
15372TIP3    H167607   3.236   4.550   2.030 -0.0531 -0.1717  0.8313
15372TIP3    H267608   3.353   4.633   1.982 -0.3583 -0.2522 -0.0705
15373TIP3   OH267609   5.691   5.830  11.191  0.1525 -0.3719 -0.2125
15373TIP3    H167610   5.655   5.826  11.280  0.2918 -0.2365 -0.1492
15373TIP3    H267611   5.702   5.738  11.166  0.2768 -0.4112 -0.0205
15374TIP3   OH267612   3.890   1.610   4.108 -0.6314  0.0591 -0.6927
15374TIP3    H167613   3.960   1.546   4.119 -0.0212  0.9634  1.0557
15374TIP3    H267614   3.915   1.661   4.032  1.7782  1.7296  1.0827
15375TIP3   OH267615   0.032   0.244   1.944  0.0401  0.0107  0.4797
15375TIP3    H167616   0.080   0.167   1.913  0.5389  0.4866  0.0578
15375TIP3    H267617   0.090   0.285   2.008  0.1555  0.5270  0.0537
15376TIP3   OH267618   6.186   2.266   3.526  0.0955  0.0648 -0.0610
15376TIP3    H167619   6.130   2.191   3.504  1.1769 -0.5074 -0.9711
15376TIP3    H267620   6.156   2.336   3.468 -0.7163  0.2725  0.5802
15377TIP3   OH267621   1.828   6.608  11.379  0.1234  0.0238 -0.7029
15377TIP3    H167622   1.841   6.585  11.287  2.0101 -1.3604 -0.1443
15377TIP3    H267623   1.862   6.533  11.428 -0.0999  1.0575  1.1504
15378TIP3   OH267624   3.057   4.097  13.572 -0.2176  0.0006  0.2689
15378TIP3    H167625   3.036   4.006  13.594  0.3192  0.4565  2.8911
15378TIP3    H267626   3.039   4.147  13.652  0.4706  2.0661 -0.7860
15379TIP3   OH267627   1.586   4.982   3.605  0.0204  0.1840 -0.6661
15379TIP3    H167628   1.511   4.940   3.646 -0.8127  1.4679 -0.7994
15379TIP3    H267629   1.653   4.914   3.601 -0.4974 -0.4767  1.1394
15380TIP3   OH267630   2.379   4.745   2.072  0.1998  0.2089  0.6718
15380TIP3    H167631   2.469   4.777   2.075  0.2917  0.1433 -0.7565
15380TIP3    H267632   2.384   4.653   2.097  0.7035 -0.0858 -0.4474
15381TIP3   OH267633   6.653   4.348   4.232  0.0790 -0.2869  0.1537
15381TIP3    H167634   6.734   4.330   4.183  0.0491  1.5003 -0.6173
15381TIP3    H267635   6.677   4.418   4.293 -0.8198  0.0842  0.0956
15382TIP3   OH267636   3.777   4.411   4.261  0.1374  0.1343  0.0180
15382TIP3    H167637   3.832   4.483   4.230  0.0454  1.0595  1.8800
15382TIP3    H267638   3.765   4.428   4.354 -0.5121 -1.9090  0.3593
15383TIP3   OH267639   2.272   0.890   3.206  0.9790  0.0043  0.1598
15383TIP3    H167640   2.286   0.911   3.298  1.1206  2.5251 -0.3491
15383TIP3    H267641   2.361   0.879   3.171  0.9736  0.0087  0.1444
15384TIP3   OH267642   0.864   2.438   3.446  0.8149  0.3493  0.0271
15384TIP3    H167643   0.830   2.499   3.512  1.2173  0.2432  0.3383
15384TIP3    H267644   0.887   2.360   3.496  0.3808 -0.0269 -0.3599
15385TIP3   OH267645   3.196   3.510   5.857  0.3632  0.5820 -0.6725
15385TIP3    H167646   3.260   3.479   5.794  0.2323  1.4894 -1.2745
15385TIP3    H267647   3.182   3.436   5.917  0.9317 -0.0821 -1.3508
15386TIP3   OH267648   6.332   1.709  10.754 -0.0048  0.4676  0.1845
15386TIP3    H167649   6.322   1.803  10.770  0.9758  0.7670 -0.8559
15386TIP3    H267650   6.420   1.701  10.716  0.0166 -0.9021  0.4968
15387TIP3   OH267651   2.290   0.030  14.288  0.0423 -0.1695  0.2818
15387TIP3    H167652   2.246   0.026  14.373 -0.5512  1.4817  0.0923
15387TIP3    H267653   2.312  -0.061  14.268 -2.3810 -0.9621  0.8683
15388TIP3   OH267654   6.193   0.283  12.379  0.1986  0.4073 -0.1061
15388TIP3    H167655   6.100   0.298  12.362 -0.3329 -1.5345  0.8299
15388TIP3    H267656   6.216   0.347  12.446 -0.2182  1.4350 -0.9026
15389TIP3   OH267657   1.088   0.063  14.487 -0.0100  0.2469 -0.2430
15389TIP3    H167658   1.180   0.045  14.468 -0.5544 -1.3152 -1.6579
15389TIP3    H267659   1.042   0.038  14.407 -1.5430  2.4329 -0.1196
15390TIP3   OH267660   5.128   2.841  16.596  0.0993  0.5248  0.2276
15390TIP3    H167661   5.093   2.780  16.531 -0.4430  0.2560  0.7580
15390TIP3    H267662   5.221   2.847  16.576 -0.1221  0.7032 -0.7741
15391TIP3   OH267663   5.977   1.412   4.037 -0.1242  0.7113  0.0087
15391TIP3    H167664   5.936   1.422   3.951 -0.4384  1.5047  0.2356
15391TIP3    H267665   6.008   1.501   4.058 -0.5380  0.6362  0.9553
15392TIP3   OH267666   1.595   4.205   2.327 -0.5636 -0.4435 -0.0943
15392TIP3    H167667   1.628   4.196   2.238  0.6653 -0.7450  0.3696
15392TIP3    H267668   1.505   4.237   2.316 -0.1179  0.4311 -1.4030
15393TIP3   OH267669   1.726   2.035   3.076 -0.3856  0.4972  0.2462
15393TIP3    H167670   1.792   2.099   3.103 -1.3952  1.2081  1.1194
15393TIP3    H267671   1.730   2.036   2.981 -0.3919  1.9033  0.2285
15394TIP3   OH267672   2.393   3.203  16.487  0.0173  0.0320  0.1565
15394TIP3    H167673   2.386   3.246  16.572  0.4898 -1.4771  0.9856
15394TIP3    H267674   2.470   3.146  16.494 -0.0822 -0.3153 -1.1897
15395TIP3   OH267675   5.176   0.198   3.939  0.7170 -0.7053  0.4277
15395TIP3    H167676   5.112   0.225   3.873  0.2114  0.5460  1.4038
15395TIP3    H267677   5.260   0.202   3.894  0.2399 -1.3376 -0.5645
15396TIP3   OH267678   4.510   6.328  16.845  0.2726  0.0258  0.0902
15396TIP3    H167679   4.549   6.323  16.932 -1.5431 -0.0294  0.9408
15396TIP3    H267680   4.440   6.393  16.854 -2.3302 -2.5517 -0.3073
15397TIP3   OH267681   6.387   3.676  11.084 -0.3774 -0.7893  0.4775
15397TIP3    H167682   6.334   3.632  11.150 -0.9543 -1.9250 -0.6855
15397TIP3    H267683   6.420   3.605  11.029  1.0240  0.0312  0.2086
15398TIP3   OH267684   4.932   4.983   5.210 -0.2950  0.1061  0.0050
15398TIP3    H167685   4.910   4.901   5.164  1.7209 -0.0129 -0.8470
15398TIP3    H267686   4.861   4.994   5.273 -0.6603 -2.2850  0.1222
15399TIP3   OH267687   2.019   5.174  13.456 -0.4865 -0.1945  0.1119
15399TIP3    H167688   2.045   5.129  13.376 -2.0779  0.2953 -0.7136
15399TIP3    H267689   2.102   5.194  13.500  0.6567  1.8358 -2.6799
15400TIP3   OH267690   5.177   0.717   5.158 -0.2953  0.3077  0.4164
15400TIP3    H167691   5.123   0.641   5.136  0.4484 -0.3127  0.6786
15400TIP3    H267692   5.251   0.680   5.207  0.5764  1.0792 -0.2896
15401TIP3   OH267693   0.267   2.845  11.535 -0.9743  0.0453 -0.3078
15401TIP3    H167694   0.173   2.856  11.549 -0.9437 -0.2047  0.0994
15401TIP3    H267695   0.304   2.835  11.622 -0.1324  3.2571 -0.1577
15402TIP3   OH267696   3.726   1.236  17.145 -0.4124  0.1157  0.3469
15402TIP3    H167697   3.715   1.166  17.080 -0.8544 -1.8723  2.4442
15402TIP3    H267698   3.637   1.267  17.162 -0.4342 -0.2700  0.9387
15403TIP3   OH267699   5.158   1.041   2.929  0.1448  0.1290 -0.2968
15403TIP3    H167700   5.082   1.071   2.879 -1.4019 -0.8568  1.3267
15403TIP3    H267701   5.133   0.954   2.960  2.1309 -0.3895 -0.0391
15404TIP3   OH267702   1.583   6.361  14.878  0.1654  0.4447 -0.0789
15404TIP3    H167703   1.571   6.284  14.933 -0.2302 -0.8907 -1.9182
15404TIP3    H267704   1.662   6.403  14.912 -0.0482 -0.3227  1.4439
15405TIP3   OH267705   3.333   2.121  16.723 -0.2354 -0.2582  0.5679
15405TIP3    H167706   3.261   2.071  16.761 -0.8504  0.6919  0.6677
15405TIP3    H267707   3.365   2.176  16.794 -1.6438  1.8211 -0.2953
15406TIP3   OH267708   2.267   2.838   1.276 -0.0608 -0.5136 -0.3146
15406TIP3    H167709   2.201   2.773   1.299 -1.5499  1.1791  0.4777
15406TIP3    H267710   2.267   2.899   1.350 -0.0232  1.3679 -1.7871
15407TIP3   OH267711   0.343   6.658  17.460 -0.0552 -0.8209  0.6350
15407TIP3    H167712   0.267   6.605  17.437  0.5023 -1.3186 -0.1184
15407TIP3    H267713   0.414   6.594  17.472  0.2956 -0.3489  1.1131
15408TIP3   OH267714   0.288   0.573  15.779  0.0096 -0.4985 -0.1935
15408TIP3    H167715   0.261   0.527  15.700 -1.5630 -1.2815  0.7455
15408TIP3    H267716   0.233   0.651  15.782 -1.2405 -1.3785  1.0079
15409TIP3   OH267717   1.909   3.531  16.545  0.1936  0.2316  0.2198
15409TIP3    H167718   1.854   3.585  16.602 -0.5358  0.6522 -0.8387
15409TIP3    H267719   1.883   3.556  16.457  0.5257 -1.1727 -0.3014
15410TIP3   OH267720   6.697   1.495  17.177 -0.1666 -0.2480 -0.0172
15410TIP3    H167721   6.664   1.463  17.261 -0.9745 -1.0166 -0.5979
15410TIP3    H267722   6.625   1.481  17.116  0.5871 -0.2080 -0.9517
15411TIP3   OH267723   1.486   3.745   3.869  0.2701  0.6631  0.1502
15411TIP3    H167724   1.419   3.776   3.808 -0.5893  0.6012  1.0479
15411TIP3    H267725   1.472   3.796   3.948  0.1581 -0.5571  0.9474
15412TIP3   OH267726   2.336   1.399   2.786  0.5793  0.4360 -0.8608
15412TIP3    H167727   2.366   1.470   2.730  0.2664  0.4514 -1.0085
15412TIP3    H267728   2.416   1.351   2.808  1.1364  2.0754  0.9955
15413TIP3   OH267729   1.125   2.513  12.874  0.2690  0.3872 -0.2433
15413TIP3    H167730   1.066   2.535  12.946 -0.4692 -1.2993 -0.2819
15413TIP3    H267731   1.119   2.417  12.867  1.5328  0.3743 -1.5215
15414TIP3   OH267732   4.901   2.959   6.012 -0.2954 -0.4947 -0.3808
15414TIP3    H167733   4.973   2.948   6.074 -1.2641 -2.5759  0.4674
15414TIP3    H267734   4.926   2.904   5.937 -1.1380 -1.5635  0.0920
15415TIP3   OH267735   4.374   1.674   3.396  0.0181 -0.1734  0.1695
15415TIP3    H167736   4.443   1.642   3.454 -0.4169 -0.6322  0.4466
15415TIP3    H267737   4.301   1.614   3.411 -0.5243  0.4530  0.0575
15416TIP3   OH267738   1.089   1.082   3.721 -0.1419 -0.0780  0.3508
15416TIP3    H167739   1.015   1.029   3.749 -0.9921  1.3544  0.9329
15416TIP3    H267740   1.096   1.066   3.626 -0.9838 -0.4730  0.3488
15417TIP3   OH267741   1.057   6.053   0.206  0.4154 -1.0268  0.0641
15417TIP3    H167742   1.044   5.982   0.269  0.9527 -0.3479  0.9729
15417TIP3    H267743   1.151   6.056   0.193  0.2254 -2.0700 -1.8964
15418TIP3   OH267744   6.397   4.017  12.873 -0.7367  0.0509  0.2124
15418TIP3    H167745   6.335   3.947  12.850  0.5547 -0.6369 -1.3767
15418TIP3    H267746   6.482   3.974  12.874 -0.0953  1.2926  0.8214
15419TIP3   OH267747   3.856   3.399   0.827  0.3709 -0.0397 -0.1778
15419TIP3    H167748   3.885   3.403   0.918  1.1162  0.9191 -0.4378
15419TIP3    H267749   3.820   3.485   0.810 -1.5027 -0.8036 -0.2632
15420TIP3   OH267750   1.882   1.229  11.371  0.2796  0.5025  0.3395
15420TIP3    H167751   1.903   1.305  11.425  0.7402  1.1293 -0.6956
15420TIP3    H267752   1.869   1.264  11.283 -0.8982 -0.4323  0.1020
15421TIP3   OH267753   5.066   6.609  15.723 -0.1997 -0.5703  0.0670
15421TIP3    H167754   5.032   6.538  15.778 -1.5189 -1.9038 -2.3460
15421TIP3    H267755   5.012   6.608  15.645  0.9276  1.9577 -0.8533
15422TIP3   OH267756   2.241   6.329  16.976 -0.3980 -0.3678 -0.1637
15422TIP3    H167757   2.304   6.399  16.957 -0.7276 -0.2581 -0.9173
15422TIP3    H267758   2.156   6.368  16.955 -0.7547 -0.4126  1.1397
15423TIP3   OH267759   4.197   4.746   1.461 -0.1392  0.3488 -0.3722
15423TIP3    H167760   4.290   4.747   1.484 -0.2543  1.6346  0.1488
15423TIP3    H267761   4.193   4.796   1.379 -0.4849  1.1851  0.1455
15424TIP3   OH267762   2.416   0.628  15.626 -0.1645  0.2762 -0.7323
15424TIP3    H167763   2.322   0.628  15.606 -1.0657  1.9261  2.6015
15424TIP3    H267764   2.439   0.721  15.630  1.0342 -0.0385  0.5717
15425TIP3   OH267765   1.217   2.386  16.835 -0.2720  0.0907 -0.0119
15425TIP3    H167766   1.176   2.462  16.876  1.4732  0.3874  1.3163
15425TIP3    H267767   1.185   2.311  16.885 -1.9653 -0.0935 -1.2994
15426TIP3   OH267768   1.752   3.354   4.787  0.5687 -0.7969  0.3628
15426TIP3    H167769   1.761   3.282   4.850  2.4657  0.5136  1.7124
15426TIP3    H267770   1.679   3.406   4.821  0.6601 -0.8753  0.6873
15427TIP3   OH267771   2.826   2.499  14.149 -0.2540  1.1357  0.1690
15427TIP3    H167772   2.887   2.516  14.221  1.0139  0.7707 -0.7733
15427TIP3    H267773   2.866   2.541  14.073 -1.7079  1.7636 -0.2912
15428TIP3   OH267774   2.279   1.745  17.082 -0.2543 -0.7012 -0.5958
15428TIP3    H167775   2.332   1.683  17.033  1.7035  0.8801 -0.6052
15428TIP3    H267776   2.305   1.733  17.174  1.3649  1.0920 -0.7454
15429TIP3   OH267777   4.298   1.242   6.036  0.5680  0.8598 -0.0265
15429TIP3    H167778   4.259   1.251   5.949 -0.0649  2.8189  0.4071
15429TIP3    H267779   4.241   1.292   6.094  1.6379  0.6055  1.3097
15430TIP3   OH267780   1.811   0.417   3.336  0.0460  0.1282 -0.3180
15430TIP3    H167781   1.728   0.370   3.339 -0.9147  1.7356 -0.4912
15430TIP3    H267782   1.853   0.399   3.420  0.2472 -1.8991 -0.8093
15431TIP3   OH267783   1.014   2.967  13.228 -0.5000  0.2965  0.4161
15431TIP3    H167784   1.088   2.992  13.173 -0.1082  0.7560  1.1451
15431TIP3    H267785   1.021   2.871  13.234  0.1171  0.3431  0.5813
15432TIP3   OH267786   0.101   0.849   0.823 -0.8381  0.1680  0.3665
15432TIP3    H167787   0.060   0.765   0.804 -0.6253  0.2492 -0.5155
15432TIP3    H267788   0.179   0.827   0.875  0.1985 -0.3678 -1.3384
15433TIP3   OH267789   5.973   0.466  13.579  0.0550  0.1273 -0.7325
15433TIP3    H167790   6.012   0.463  13.491  1.0874 -0.3395 -0.2724
15433TIP3    H267791   6.023   0.534  13.625 -0.1316  0.0003 -0.3403
15434TIP3   OH267792   2.515   3.481   3.866  0.0064 -0.0806  0.1192
15434TIP3    H167793   2.444   3.521   3.916 -0.9918 -0.9155 -0.5720
15434TIP3    H267794   2.571   3.440   3.932 -0.4272  0.1643  0.6469
15435TIP3   OH267795   4.368   4.856  17.291  0.7140 -0.0645 -0.2879
15435TIP3    H167796   4.401   4.941  17.322  3.2911 -1.6187  1.6136
15435TIP3    H267797   4.332   4.814  17.369 -1.3186 -0.4799 -1.3749
15436TIP3   OH267798   0.596   6.546   4.078 -0.8488 -0.0749 -0.1956
15436TIP3    H167799   0.682   6.536   4.120  0.4786 -0.2137 -2.7326
15436TIP3    H267800   0.579   6.641   4.081 -0.3319  0.0205 -0.1642
15437TIP3   OH267801   0.483   2.183  14.430  0.5329 -0.3444  0.3664
15437TIP3    H167802   0.569   2.143  14.423  2.0038  2.5854  0.0932
15437TIP3    H267803   0.476   2.238  14.352  0.9871  3.8348  2.9496
15438TIP3   OH267804   0.671   4.107   3.855 -0.3715  0.7418 -0.2383
15438TIP3    H167805   0.686   4.199   3.836 -1.6682  1.0015 -0.1324
15438TIP3    H267806   0.675   4.063   3.770 -1.6948  1.2095 -0.5606
15439TIP3   OH267807   0.876   2.916  14.027  0.1716 -0.1762  0.1572
15439TIP3    H167808   0.800   2.859  14.020 -0.6273  0.7825  0.8450
15439TIP3    H267809   0.906   2.929  13.937 -1.5732  0.8848 -0.3068
15440TIP3   OH267810   6.227   6.085   2.859  0.0710 -0.0905 -0.3932
15440TIP3    H167811   6.239   6.019   2.926  1.0897 -2.1847 -2.4927
15440TIP3    H267812   6.142   6.124   2.878  0.1480 -0.8705  1.8132
15441TIP3   OH267813   4.968   1.254  14.808 -0.0716  0.0976 -0.0345
15441TIP3    H167814   4.949   1.161  14.825 -1.4938  0.0403 -1.7164
15441TIP3    H267815   5.061   1.255  14.784 -0.2510 -1.0304 -0.8607
15442TIP3   OH267816   0.101   5.071  12.073 -0.1699  0.4409 -0.2561
15442TIP3    H167817   0.148   5.010  12.017 -1.3679 -0.2160 -0.5677
15442TIP3    H267818   0.052   5.127  12.012 -0.2584  0.7385  0.0849
15443TIP3   OH267819   3.570   0.046   4.056 -0.2003 -0.1430 -0.2290
15443TIP3    H167820   3.496   0.082   4.007 -0.7336 -0.7001  0.1507
15443TIP3    H267821   3.637   0.114   4.052 -0.6882  0.3167 -0.6883
15444TIP3   OH267822   0.640   4.631  13.121 -0.0216 -0.1829  0.1325
15444TIP3    H167823   0.667   4.601  13.208 -0.8148 -1.1799  0.0617
15444TIP3    H267824   0.680   4.567  13.061 -0.0837  0.0708 -0.1796
15445TIP3   OH267825   3.426   4.515  13.528 -0.0395 -0.0694 -0.2478
15445TIP3    H167826   3.372   4.591  13.507  0.6167  0.0094 -1.7739
15445TIP3    H267827   3.428   4.513  13.624 -0.7089  1.3736 -0.1779
15446TIP3   OH267828   3.789   6.664  16.765 -0.7509  0.2379 -0.0578
15446TIP3    H167829   3.811   6.723  16.838  0.4958  0.0314 -0.2320
15446TIP3    H267830   3.772   6.723  16.692 -1.5362  0.4332  0.2788
15447TIP3   OH267831   2.811   0.892   4.745 -0.1236  0.4642 -0.2941
15447TIP3    H167832   2.858   0.858   4.822  1.1934  0.1058 -1.2178
15447TIP3    H267833   2.719   0.874   4.763  0.3988 -2.6521 -0.2484
15448TIP3   OH267834   1.855   1.398   2.198 -0.4177  0.4493  0.3590
15448TIP3    H167835   1.906   1.366   2.124 -1.0965  1.1219 -0.4294
15448TIP3    H267836   1.764   1.383   2.173 -0.6324 -0.4841  1.6235
15449TIP3   OH267837   5.538   0.838   5.987  0.3087  0.2650 -0.1710
15449TIP3    H167838   5.503   0.912   6.037 -2.2115  0.3163 -1.8588
15449TIP3    H267839   5.551   0.769   6.052  0.8409  1.5265  1.1150
15450TIP3   OH267840   5.089   1.067   6.299 -0.3677  0.4409 -0.3245
15450TIP3    H167841   5.027   1.082   6.370  0.3691 -0.2473  0.4914
15450TIP3    H267842   5.113   0.975   6.308 -0.9202  0.0924 -2.0220
15451TIP3   OH267843   3.280   0.251   5.651 -0.3782 -0.0962  0.4335
15451TIP3    H167844   3.254   0.205   5.571 -1.1771  0.0600  0.5973
15451TIP3    H267845   3.227   0.330   5.651  0.0087  0.1644  0.8475
15452TIP3   OH267846   1.056   2.636  11.840 -0.6449  0.1861 -0.0709
15452TIP3    H167847   1.114   2.624  11.915  0.5991  1.2292 -0.8161
15452TIP3    H267848   1.114   2.665  11.769 -1.8818 -0.0808 -1.2448
15453TIP3   OH267849   6.286   4.045  16.881  0.1210 -0.0389 -0.6281
15453TIP3    H167850   6.276   3.957  16.917 -1.5535  0.9489  1.4918
15453TIP3    H267851   6.362   4.082  16.927 -0.0575  0.1098 -0.4495
15454TIP3   OH267852   3.258   1.182   5.746  0.4058  0.4504 -0.0801
15454TIP3    H167853   3.199   1.119   5.705 -0.3014  1.5060 -0.7180
15454TIP3    H267854   3.344   1.161   5.710  0.3392 -0.7229  0.4079
15455TIP3   OH267855   0.778   1.272   6.545 -0.0291  0.4751  0.8294
15455TIP3    H167856   0.748   1.227   6.466  0.0500  1.2134  0.3703
15455TIP3    H267857   0.742   1.360   6.538  0.2894  0.6641  1.4399
15456TIP3   OH267858   5.886   4.760  11.889 -0.1094 -0.3008 -0.1798
15456TIP3    H167859   5.956   4.773  11.953 -1.0078  1.0268  0.5771
15456TIP3    H267860   5.853   4.848  11.871 -1.2029 -0.8463 -0.9584
15457TIP3   OH267861   2.430   4.188  12.462  0.1802 -0.0434  0.4496
15457TIP3    H167862   2.363   4.127  12.494  0.1288  0.0568  0.5378
15457TIP3    H267863   2.394   4.222  12.380  2.0526 -3.2919 -1.9257
15458TIP3   OH267864   2.606   2.146  11.141  0.5127 -0.0701 -0.2859
15458TIP3    H167865   2.582   2.059  11.175 -2.1254  0.1509 -1.3415
15458TIP3    H267866   2.621   2.132  11.048 -0.4849  0.6500 -0.5770
15459TIP3   OH267867   0.145   4.314  16.573 -0.1704  0.2404 -0.5768
15459TIP3    H167868   0.109   4.275  16.493 -0.7687  0.4356 -0.4098
15459TIP3    H267869   0.085   4.386  16.593  0.4730  0.7492 -0.4387
15460TIP3   OH267870   1.329   5.914  13.027 -0.5628 -0.3348 -0.0728
15460TIP3    H167871   1.379   5.889  13.104  0.3591  1.4792 -0.0175
15460TIP3    H267872   1.340   5.841  12.966  1.8122 -0.2040  0.1122
15461TIP3   OH267873   6.182   1.086   1.223 -0.0131 -0.3391  0.0540
15461TIP3    H167874   6.218   1.127   1.144  0.6991  0.7906  0.9232
15461TIP3    H267875   6.247   1.021   1.248  0.9501  0.9258  0.9907
15462TIP3   OH267876   6.103   2.483   3.369 -0.6496  0.0505  0.0227
15462TIP3    H167877   6.178   2.475   3.309 -0.7756 -0.1305 -0.1132
15462TIP3    H267878   6.027   2.465   3.314 -0.9067  1.5448 -0.1486
15463TIP3   OH267879   4.197   6.714   2.190 -0.8098 -0.3088  0.3066
15463TIP3    H167880   4.120   6.769   2.177 -0.6176  0.0433  0.6436
15463TIP3    H267881   4.261   6.748   2.128 -1.3877 -1.5161 -1.0014
15464TIP3   OH267882   2.092   1.567  11.699 -0.3622 -0.4215 -0.4740
15464TIP3    H167883   2.109   1.641  11.757 -1.0070 -0.8134  0.2378
15464TIP3    H267884   2.133   1.493  11.743 -1.3971 -0.8383 -0.1808
15465TIP3   OH267885   0.216   0.210   2.880 -0.1038 -0.6248  0.2468
15465TIP3    H167886   0.193   0.179   2.968  1.9841 -1.3197  0.5871
15465TIP3    H267887   0.219   0.132   2.826 -0.7665 -0.2681 -0.3303
15466TIP3   OH267888   5.694   1.857  13.828 -0.2562  0.1885  0.1517
15466TIP3    H167889   5.686   1.952  13.818 -0.7930  0.3114  1.5021
15466TIP3    H267890   5.637   1.836  13.902  0.8526 -1.0119  0.7025
15467TIP3   OH267891   2.007   0.345  13.532 -0.1236 -0.6008 -0.3296
15467TIP3    H167892   2.090   0.327  13.576 -1.1327 -0.0545  1.9512
15467TIP3    H267893   2.026   0.417  13.472  0.8758  0.1534  0.8404
15468TIP3   OH267894   5.646   1.904   4.522 -0.3382 -0.4827 -0.4595
15468TIP3    H167895   5.650   1.899   4.617  1.1725 -0.1183 -0.4746
15468TIP3    H267896   5.575   1.845   4.497  0.3030 -1.8521  0.7982
15469TIP3   OH267897   0.949   5.495   7.015 -0.0041 -0.0184 -0.1696
15469TIP3    H167898   0.860   5.482   6.980 -0.6368 -2.7687  2.0771
15469TIP3    H267899   1.006   5.455   6.950 -0.5462  0.1768 -0.7872
15470TIP3   OH267900   0.852   6.265   0.379  0.6015  0.2145 -0.1896
15470TIP3    H167901   0.842   6.335   0.443 -1.2999  0.0118 -0.2181
15470TIP3    H267902   0.779   6.206   0.396  1.1073 -0.7998 -1.3681
15471TIP3   OH267903   1.730   6.123  16.045 -0.0561  0.0334  0.2653
15471TIP3    H167904   1.737   6.028  16.050  0.7737  0.1343  1.3800
15471TIP3    H267905   1.738   6.153  16.135 -1.7061  1.0938  0.1057
15472TIP3   OH267906   1.363   1.739  11.721  0.2438  0.3961  0.0027
15472TIP3    H167907   1.414   1.723  11.642  0.9490  1.4438  0.2341
15472TIP3    H267908   1.337   1.831  11.715 -0.1513  0.3420  0.7416
15473TIP3   OH267909   3.097   2.035   5.321 -0.4049  0.4939 -0.3126
15473TIP3    H167910   3.146   1.953   5.327 -0.2328  0.5368 -1.0058
15473TIP3    H267911   3.132   2.089   5.391 -0.4012  0.0360  0.0427
15474TIP3   OH267912   0.588   6.103   4.796 -1.2674 -0.0378  0.2359
15474TIP3    H167913   0.584   6.141   4.884 -0.3773 -1.6349  1.0027
15474TIP3    H267914   0.667   6.049   4.796 -0.4111  1.0938 -2.0544
15475TIP3   OH267915   5.591   1.092   4.570 -0.2108  0.4787  0.0279
15475TIP3    H167916   5.517   1.066   4.515 -0.9558  0.7736  0.8662
15475TIP3    H267917   5.598   1.024   4.636  0.2033  0.5057  0.0140
15476TIP3   OH267918   6.144   5.269  12.390  0.4516  0.1965  0.0561
15476TIP3    H167919   6.098   5.304  12.313  1.7325 -0.1132 -0.8878
15476TIP3    H267920   6.109   5.181  12.401  1.3242 -0.3245 -1.1348
15477TIP3   OH267921   0.273   6.212  16.267 -0.5411 -0.5352 -0.3979
15477TIP3    H167922   0.202   6.232  16.328  0.2362  0.8531  0.1104
15477TIP3    H267923   0.269   6.282  16.202 -0.0093 -0.7849 -0.7082
15478TIP3   OH267924   3.419   2.094   4.943  0.7492 -0.2773  0.5545
15478TIP3    H167925   3.414   2.166   5.006 -0.6459 -0.2552  0.4496
15478TIP3    H267926   3.478   2.126   4.875  1.9824 -0.1528  1.6362
15479TIP3   OH267927   3.480   4.150  14.149  0.4461  0.2142 -0.5919
15479TIP3    H167928   3.471   4.080  14.084  0.7405  0.8112 -1.2892
15479TIP3    H267929   3.573   4.150  14.171  0.1159 -0.9683  0.9669
15480TIP3   OH267930   3.982   2.233  15.585  0.0443 -0.1088  0.5242
15480TIP3    H167931   4.045   2.237  15.656  0.2286  1.3508  0.3229
15480TIP3    H267932   3.947   2.144  15.587  0.9639 -0.4568  1.6244
15481TIP3   OH267933   0.396   6.282  13.244 -0.4825  0.4225  0.3998
15481TIP3    H167934   0.358   6.202  13.278  0.6706 -0.2427  0.1796
15481TIP3    H267935   0.455   6.313  13.313 -0.6603  0.8961  0.3461
15482TIP3   OH267936   4.194   5.045   2.043 -0.0872 -0.4932  0.2620
15482TIP3    H167937   4.161   5.076   2.128  0.8589  0.2292  0.3720
15482TIP3    H267938   4.137   4.970   2.023 -1.6059  0.5096  0.5913
15483TIP3   OH267939   2.789   5.481   4.046 -0.4666  0.2346  0.3308
15483TIP3    H167940   2.833   5.566   4.039 -0.5128  0.4512  2.2982
15483TIP3    H267941   2.746   5.483   4.131 -0.9238 -1.5708  0.1748
15484TIP3   OH267942   2.462   3.595  13.392  0.1179 -0.0522 -0.4663
15484TIP3    H167943   2.468   3.514  13.341  1.8931 -0.7212  0.6677
15484TIP3    H267944   2.390   3.580  13.454  1.3457 -1.4408  0.7211
15485TIP3   OH267945   2.715   6.217  12.349 -0.1075 -0.1518 -0.0066
15485TIP3    H167946   2.672   6.298  12.322  1.5619  1.3189  1.4805
15485TIP3    H267947   2.740   6.232  12.440  0.9241 -2.0517  0.0714
15486TIP3   OH267948   0.394   2.815  15.388 -0.9243 -0.0989  1.3480
15486TIP3    H167949   0.340   2.737  15.376  0.1224 -0.7011  0.3242
15486TIP3    H267950   0.346   2.885  15.344 -0.2809 -0.9108 -0.7673
15487TIP3   OH267951   5.808   3.698   4.956 -0.2176  0.1506  0.0557
15487TIP3    H167952   5.896   3.661   4.944  0.2756  1.1779  0.4414
15487TIP3    H267953   5.760   3.629   5.001  0.4410 -0.3469  0.0222
15488TIP3   OH267954   6.257   3.808   5.672  0.0822 -0.3880 -0.3330
15488TIP3    H167955   6.246   3.717   5.643 -0.5556 -1.2613  2.3742
15488TIP3    H267956   6.321   3.803   5.743  0.0710  1.3045 -0.1600
15489TIP3   OH267957   5.922   4.459  11.252  0.2231 -0.2212  0.2795
15489TIP3    H167958   5.924   4.367  11.226  1.1498 -0.2260  0.3304
15489TIP3    H267959   5.829   4.481  11.254  0.0051 -1.0546 -0.0805
15490TIP3   OH267960   6.531   4.405  10.475 -0.1004 -0.2562  0.0892
15490TIP3    H167961   6.509   4.477  10.417  0.8408  0.5373  0.6825
15490TIP3    H267962   6.476   4.418  10.552  3.4106  2.8847  2.4608
15491TIP3   OH267963   4.572   1.554   2.144  0.6378 -0.8728 -0.0989
15491TIP3    H167964   4.628   1.481   2.118  2.5289 -0.3273  2.1549
15491TIP3    H267965   4.518   1.519   2.215  0.3710 -0.4944 -0.1117
15492TIP3   OH267966   0.696   2.623   2.440  0.3492  0.2638  0.6237
15492TIP3    H167967   0.707   2.687   2.369 -0.4094  0.9839  1.1406
15492TIP3    H267968   0.657   2.547   2.398 -0.4727  0.8366  0.3243
15493TIP3   OH267969   2.946   6.040   4.332 -0.1822  0.4042  0.3709
15493TIP3    H167970   2.968   6.034   4.239 -1.9554 -0.8507 -0.0154
15493TIP3    H267971   3.004   5.978   4.375 -0.9471 -0.7572 -0.2343
15494TIP3   OH267972   2.879   3.481  13.503  0.4175  0.6357  0.5349
15494TIP3    H167973   2.833   3.494  13.586  0.5748  1.4273  0.5061
15494TIP3    H267974   2.939   3.555  13.497 -1.6289  2.2545 -1.6630
15495TIP3   OH267975   0.245   3.726  15.514  0.4869  0.5281 -0.0318
15495TIP3    H167976   0.199   3.731  15.430 -1.4584 -0.0491  0.9244
15495TIP3    H267977   0.268   3.633  15.523 -0.7301  0.2739  0.7354
15496TIP3   OH267978   5.154   4.431   1.505 -0.1850 -0.3413  0.1928
15496TIP3    H167979   5.187   4.458   1.419 -1.2105  0.3329 -0.0074
15496TIP3    H267980   5.077   4.486   1.520 -0.5989 -1.1362  1.1127
15497TIP3   OH267981   4.331   0.113   5.496 -0.0832 -0.0442 -0.8389
15497TIP3    H167982   4.411   0.060   5.500 -0.0036 -0.0456 -1.9974
15497TIP3    H267983   4.361   0.198   5.463 -0.0016  1.1991  2.1747
15498TIP3   OH267984   0.760   0.812  13.987  0.4149 -0.1532 -0.2053
15498TIP3    H167985   0.785   0.752  13.916  0.5250 -0.1965 -0.1297
15498TIP3    H267986   0.838   0.817  14.042  0.3540 -0.0588 -0.1287
15499TIP3   OH267987   2.159   1.195  15.109  0.5773 -0.0271 -0.0842
15499TIP3    H167988   2.109   1.229  15.184  1.2937  0.4093  0.2138
15499TIP3    H267989   2.099   1.203  15.035 -0.3062 -0.8844  0.5082
15500TIP3   OH267990   0.928   2.356   1.804  0.0120  0.3218  0.2306
15500TIP3    H167991   0.978   2.382   1.881  0.9367 -2.9204  0.8521
15500TIP3    H267992   0.977   2.283   1.767 -1.5879  0.3555 -2.2033
15501TIP3   OH267993   5.357   5.682   1.681 -0.0363 -0.8577 -0.0941
15501TIP3    H167994   5.382   5.624   1.753  0.1698 -0.0089  0.5296
15501TIP3    H267995   5.430   5.677   1.620  1.4719  1.1267  1.4287
15502TIP3   OH267996   5.478   5.971   0.576 -0.1896 -0.7915 -0.1810
15502TIP3    H167997   5.464   6.017   0.494  0.1625 -1.6811 -0.7558
15502TIP3    H267998   5.404   5.997   0.631 -1.0670 -1.0616 -1.1904
15503TIP3   OH267999   0.245   4.762   1.560  0.5804  0.2478  0.4978
15503TIP3    H168000   0.239   4.689   1.499  1.4307 -0.3666  1.1236
15503TIP3    H268001   0.336   4.761   1.589  0.4190  1.1137  1.0621
15504TIP3   OH268002   5.158   2.888  15.135  0.1275  0.0187  0.2111
15504TIP3    H168003   5.154   2.938  15.053  0.6237 -0.2767  0.0054
15504TIP3    H268004   5.104   2.811  15.119  0.7926 -0.3865 -0.0793
15505TIP3   OH268005   4.949   4.159   5.181  0.2171 -0.8111 -0.4617
15505TIP3    H168006   4.862   4.123   5.200  0.8267 -1.5335  1.1298
15505TIP3    H268007   5.007   4.113   5.241  1.4836  0.7446 -0.4429
15506TIP3   OH268008   5.962   3.025   4.501 -0.1483  0.3870 -0.2104
15506TIP3    H168009   5.880   3.059   4.464 -0.3634 -0.1922 -0.2758
15506TIP3    H268010   5.949   2.930   4.506  0.4729  0.3002 -0.1075
15507TIP3   OH268011   0.991   4.507   1.268  0.0577 -0.2822 -0.0530
15507TIP3    H168012   0.914   4.499   1.324 -0.0393  0.4504 -0.0750
15507TIP3    H268013   1.058   4.547   1.324  0.4520 -0.9967 -0.0066
15508TIP3   OH268014   2.856   2.016   4.601  0.0569 -0.2557 -0.0551
15508TIP3    H168015   2.863   2.094   4.545  1.3580 -0.0970  0.2911
15508TIP3    H268016   2.840   2.052   4.689  0.3265 -0.3876  0.0487
15509TIP3   OH268017   0.034   2.197  13.417 -0.2100  0.1822 -0.4616
15509TIP3    H168018   0.050   2.286  13.386 -0.9349  0.0536 -1.2621
15509TIP3    H268019   0.120   2.156  13.419 -0.0371  0.4806 -1.4696
15510TIP3   OH268020   1.166   5.529   2.736  0.0068 -0.0336 -0.2786
15510TIP3    H168021   1.187   5.567   2.651  1.7976 -1.7733 -0.6628
15510TIP3    H268022   1.070   5.532   2.740 -0.0434  1.8086 -1.4996
15511TIP3   OH268023   2.570   4.246  11.332 -0.2177 -0.1123  0.3589
15511TIP3    H168024   2.502   4.183  11.308 -0.3870  0.0938  0.2861
15511TIP3    H268025   2.628   4.248  11.256 -1.3438  1.3351 -0.5235
15512TIP3   OH268026   3.419   4.906  13.616 -0.2820  0.3291 -0.1923
15512TIP3    H168027   3.380   4.886  13.701  0.9317 -0.5842  0.1655
15512TIP3    H268028   3.512   4.888  13.627 -0.1385 -0.0274 -1.7789
15513TIP3   OH268029   0.521   4.369  13.213 -0.1025  0.1966 -0.2574
15513TIP3    H168030   0.548   4.335  13.128 -2.0731  3.1257 -2.2495
15513TIP3    H268031   0.599   4.413  13.247  1.1742 -2.3274  0.3428
15514TIP3   OH268032   5.573   4.900  14.090  0.5834  0.3388 -0.4506
15514TIP3    H168033   5.534   4.916  14.004  2.5322  0.6053 -1.3354
15514TIP3    H268034   5.632   4.974  14.104 -0.3614  0.7656  1.5574
15515TIP3   OH268035   6.742   1.275  12.453  0.3799  0.2397  0.1539
15515TIP3    H168036   6.752   1.182  12.473  0.7103  0.5165  1.3292
15515TIP3    H268037   6.811   1.293  12.389 -0.8274 -0.7048 -1.5069
15516TIP3   OH268038   2.372   3.969  15.889  0.2449  0.0199  0.2055
15516TIP3    H168039   2.356   3.980  15.982  0.0368 -0.3766  0.2197
15516TIP3    H268040   2.302   3.910  15.859  1.7227 -1.9034  0.2903
15517TIP3   OH268041   2.400   2.009   1.570 -0.1558  0.0494 -0.6907
15517TIP3    H168042   2.435   2.052   1.492  1.2982  1.6928  0.7923
15517TIP3    H268043   2.374   1.922   1.540  1.2161  0.3072 -2.7979
15518TIP3   OH268044   1.375   0.052  12.014 -0.4654 -0.2448  0.3478
15518TIP3    H168045   1.333   0.059  12.100  1.3731  0.8903  1.2368
15518TIP3    H268046   1.365   0.139  11.975 -1.7294 -0.8910 -0.8608
15519TIP3   OH268047   4.424   4.121  14.689 -0.2736  0.1333 -0.0624
15519TIP3    H168048   4.384   4.085  14.768 -0.8511  0.6099 -0.1338
15519TIP3    H268049   4.472   4.198  14.720 -0.4921  0.3144 -0.1713
15520TIP3   OH268050   5.785   1.758   3.187  0.2391  0.6616 -0.3816
15520TIP3    H168051   5.847   1.778   3.117  2.8200  1.2394  1.8914
15520TIP3    H268052   5.780   1.663   3.189 -2.4568  0.5616 -3.2941
15521TIP3   OH268053   2.314   1.139   0.264 -0.3159 -0.2683  0.2107
15521TIP3    H168054   2.227   1.143   0.305  0.2770 -0.0462  1.4825
15521TIP3    H268055   2.304   1.074   0.194 -1.8594  0.7252 -0.5733
15522TIP3   OH268056   6.086   0.654  16.196 -0.0149  0.4067  0.1195
15522TIP3    H168057   6.181   0.652  16.193  0.0491  1.7063  0.7357
15522TIP3    H268058   6.059   0.678  16.107  0.1504 -1.3397 -0.4333
15523TIP3   OH268059   5.478   0.972   2.223 -0.3104 -0.1478 -0.3951
15523TIP3    H168060   5.399   0.929   2.191 -2.1116  1.5380  1.4911
15523TIP3    H268061   5.522   0.905   2.275 -0.8055 -0.9281 -0.9454
15524TIP3   OH268062   3.110   2.918   3.127 -0.0724 -0.4038 -0.2134
15524TIP3    H168063   3.154   2.900   3.044 -0.8810 -1.5369 -0.4200
15524TIP3    H268064   3.181   2.932   3.190  0.5537  1.1568 -1.2139
15525TIP3   OH268065   2.853   2.098  16.044  0.0207  0.5054  0.6370
15525TIP3    H168066   2.794   2.174  16.039  1.4393  1.6552  0.6442
15525TIP3    H268067   2.903   2.112  16.125 -1.1066 -1.5650  1.7854
15526TIP3   OH268068   5.208   4.790  14.296 -0.5877 -0.1895 -0.2857
15526TIP3    H168069   5.205   4.885  14.290  1.0271  0.0993  2.0157
15526TIP3    H268070   5.121   4.765  14.327 -0.6217  0.7003  0.3809
15527TIP3   OH268071   0.922   2.151   4.156 -0.1827  0.0807  0.3099
15527TIP3    H168072   0.868   2.078   4.126  0.9713 -1.2259  1.2631
15527TIP3    H268073   0.979   2.171   4.082  0.6247 -1.1256  0.5816
15528TIP3   OH268074   2.594   2.255  13.488  0.3023 -0.9684  0.3697
15528TIP3    H168075   2.648   2.333  13.498 -0.4386 -0.2099 -1.1172
15528TIP3    H268076   2.609   2.227  13.398 -1.7502 -0.7132 -0.0988
15529TIP3   OH268077   1.705   6.692   5.125 -0.6273  0.6220 -0.0588
15529TIP3    H168078   1.782   6.748   5.117 -0.3704  0.4300  0.9223
15529TIP3    H268079   1.673   6.708   5.214  0.4065 -1.9768  0.8640
15530TIP3   OH268080   4.705   0.607  11.604 -0.7087 -0.1301  0.5195
15530TIP3    H168081   4.778   0.550  11.579 -0.9451 -0.4182  0.4699
15530TIP3    H268082   4.630   0.570  11.557 -0.3509  1.9592 -1.9181
15531TIP3   OH268083   0.811   0.353  16.703  0.1244  0.0467  0.6136
15531TIP3    H168084   0.807   0.431  16.759  0.6820  0.8938 -0.4981
15531TIP3    H268085   0.735   0.361  16.645  0.7843  0.3447 -0.2302
15532TIP3   OH268086   3.391   1.305   1.814  0.0697  0.5940  0.3692
15532TIP3    H168087   3.363   1.247   1.885 -0.6501 -1.9648 -1.8241
15532TIP3    H268088   3.485   1.291   1.808 -0.0079  0.0889  0.2469
15533TIP3   OH268089   3.001   6.391  14.273  0.3239  0.2768 -0.3093
15533TIP3    H168090   2.929   6.328  14.269  0.3977  0.1021  0.9664
15533TIP3    H268091   3.053   6.372  14.195 -2.2549  1.9579 -2.6535
15534TIP3   OH268092   2.448   0.259  15.005  0.2276  0.0677  0.5500
15534TIP3    H168093   2.428   0.188  14.944 -0.9769  0.6157  0.2818
15534TIP3    H268094   2.528   0.298  14.971  0.1341 -0.2925 -0.1039
15535TIP3   OH268095   2.354   2.914   5.953 -0.6843 -0.0799  0.0125
15535TIP3    H168096   2.434   2.880   5.993 -0.4957  2.7517  2.4477
15535TIP3    H268097   2.283   2.866   5.996 -0.3475 -0.1572  0.4859
15536TIP3   OH268098   0.246   0.411   3.652 -0.2484 -0.0316 -0.1171
15536TIP3    H168099   0.266   0.337   3.594  1.9230  0.0778  0.4202
15536TIP3    H268100   0.243   0.373   3.740  0.5085  0.4372  0.1209
15537TIP3   OH268101   1.277   5.803  15.970 -0.5353  0.9155 -0.1823
15537TIP3    H168102   1.291   5.790  16.064 -1.6298  0.8929 -0.0092
15537TIP3    H268103   1.338   5.873  15.947 -0.6396  1.3063  0.6656
15538TIP3   OH268104   6.598   6.283   4.070  0.4101 -0.3906 -0.2736
15538TIP3    H168105   6.661   6.215   4.095  1.2184  1.1252  2.0645
15538TIP3    H268106   6.646   6.339   4.009  0.5145 -0.5587 -0.3469
15539TIP3   OH268107   2.705   6.035   1.519  0.4080 -0.6886  0.1681
15539TIP3    H168108   2.734   6.099   1.584 -0.1375 -1.3209  1.0552
15539TIP3    H268109   2.645   5.978   1.567  0.0835 -1.2360 -0.8718
15540TIP3   OH268110   4.192   5.234   2.798 -0.0714  0.0471 -0.4741
15540TIP3    H168111   4.101   5.205   2.804  0.0120 -0.2344 -0.5096
15540TIP3    H268112   4.237   5.186   2.868 -0.3815  1.9759  1.1273
15541TIP3   OH268113   2.037   0.429   5.591 -0.1301 -0.4132  0.4975
15541TIP3    H168114   2.052   0.353   5.647  0.0708 -0.7857 -0.0513
15541TIP3    H268115   2.060   0.505   5.645 -0.1381 -0.7553  0.9790
15542TIP3   OH268116   0.207   1.421   4.455  0.4940 -0.7961  0.6483
15542TIP3    H168117   0.171   1.447   4.540 -1.4889 -0.7477 -0.1422
15542TIP3    H268118   0.234   1.503   4.414 -0.2321 -0.6025  0.5349
15543TIP3   OH268119   3.164   3.593  13.563  0.4261 -0.1028 -0.4384
15543TIP3    H168120   3.247   3.618  13.522  0.6337  0.3846  0.2598
15543TIP3    H268121   3.190   3.555  13.647 -0.0862  0.6722  0.0844
15544TIP3   OH268122   0.694   5.052   5.719 -0.3363  0.2692  0.1535
15544TIP3    H168123   0.660   5.025   5.805 -0.5874 -2.2033 -0.6419
15544TIP3    H268124   0.758   4.985   5.697  1.1943  1.9414 -0.7678
15545TIP3   OH268125   6.053   1.133  13.409 -0.2061  0.2089  0.2736
15545TIP3    H168126   5.987   1.138  13.478  1.5976 -1.0120  2.2167
15545TIP3    H268127   6.050   1.042  13.379 -0.9958  0.7341 -1.3527
15546TIP3   OH268128   4.450   1.269   3.444 -0.3021  0.6261 -0.4140
15546TIP3    H168129   4.406   1.193   3.482  0.6850  0.6360  0.8362
15546TIP3    H268130   4.381   1.317   3.398 -1.3689  0.0765  0.5604
15547TIP3   OH268131   1.494   3.110  14.020  0.0535  0.1608  0.9382
15547TIP3    H168132   1.479   3.134  13.929 -0.2222 -0.1230  0.9058
15547TIP3    H268133   1.495   3.193  14.068 -0.7150  0.2500  0.8093
15548TIP3   OH268134   3.348   0.566   5.425  0.2375 -0.1868 -0.0839
15548TIP3    H168135   3.393   0.531   5.501  0.7732 -0.1883 -0.3958
15548TIP3    H268136   3.404   0.638   5.395 -0.6173  0.6700  0.2891
15549TIP3   OH268137   1.242   2.957   1.384 -0.0070  0.1119 -0.9863
15549TIP3    H168138   1.167   2.981   1.329  0.0810  0.3066 -1.0229
15549TIP3    H268139   1.256   3.034   1.440  1.2535  0.7783 -2.1676
15550TIP3   OH268140   0.532   0.103  15.101 -0.2317 -0.3356 -0.2624
15550TIP3    H168141   0.620   0.065  15.104  0.4030  1.1359  1.3924
15550TIP3    H268142   0.544   0.189  15.061 -0.8325  0.0443  0.3615
15551TIP3   OH268143   4.086   0.307   5.488 -0.2973 -0.3385 -0.5551
15551TIP3    H168144   4.139   0.228   5.479  1.2303  0.1289  2.8406
15551TIP3    H268145   4.015   0.281   5.547 -0.2914  0.5998 -0.1204
15552TIP3   OH268146   4.512   5.141  14.661 -0.2135 -0.0552 -0.0462
15552TIP3    H168147   4.426   5.142  14.620 -0.0855  0.6855 -0.3196
15552TIP3    H268148   4.551   5.225  14.636  0.8116 -0.6294 -0.4031
15553TIP3   OH268149   1.527   2.914  13.704 -0.0469  0.1640  0.5602
15553TIP3    H168150   1.587   2.849  13.667 -1.4961 -1.2175  0.5745
15553TIP3    H268151   1.585   2.976  13.750  1.4296 -0.5933 -0.2052
15554TIP3   OH268152   4.283   1.894   3.265  0.2817 -1.0753  0.3885
15554TIP3    H168153   4.342   1.913   3.192 -0.2726 -0.7422  0.0252
15554TIP3    H268154   4.330   1.829   3.317  0.6318 -1.3979 -0.3227
15555TIP3   OH268155   3.665   0.834   6.172 -0.7710  0.1958 -0.1354
15555TIP3    H168156   3.606   0.854   6.245 -1.4959 -2.1577  0.0281
15555TIP3    H268157   3.678   0.917   6.127 -1.4715  1.4292  1.8214
15556TIP3   OH268158   3.885   3.778   5.058 -0.3588 -0.0568 -0.2555
15556TIP3    H168159   3.939   3.846   5.097 -1.1897  2.5212 -3.1808
15556TIP3    H268160   3.795   3.808   5.072 -0.7869 -1.0210 -0.8607
15557TIP3   OH268161   0.340   1.534   2.724  0.1266  0.0773 -0.2167
15557TIP3    H168162   0.288   1.611   2.745 -1.3446  0.0006 -3.0673
15557TIP3    H268163   0.340   1.530   2.629  0.9168 -2.9245 -0.2077
15558TIP3   OH268164   2.406   5.494   1.506  0.1493  0.2732  0.2725
15558TIP3    H168165   2.437   5.403   1.506 -0.3492 -0.0083  3.3384
15558TIP3    H268166   2.448   5.534   1.582 -1.4524  1.9297  0.3719
15559TIP3   OH268167   5.166   5.312  12.545  0.0834  0.5467 -0.2148
15559TIP3    H168168   5.103   5.361  12.492 -0.4915 -0.9969 -1.0259
15559TIP3    H268169   5.184   5.233  12.494  1.1097 -0.0170  0.9628
15560TIP3   OH268170   4.077   2.831   3.216  0.0296  0.2418 -0.4104
15560TIP3    H168171   4.170   2.820   3.238  0.0215 -2.5302 -1.2915
15560TIP3    H268172   4.073   2.814   3.122 -1.5902 -2.0228 -0.0179
15561TIP3   OH268173   1.020   2.109  14.564 -0.0798  0.0183  0.3401
15561TIP3    H168174   0.989   2.128  14.475  0.8838 -2.1820 -0.5567
15561TIP3    H268175   0.953   2.051  14.600 -0.6903  1.2538  1.2603
15562TIP3   OH268176   1.377   4.046   0.018 -0.3787 -0.6625 -0.1027
15562TIP3    H168177   1.469   4.066   0.033  0.0598 -1.4543 -1.5096
15562TIP3    H268178   1.340   4.036   0.105  0.5366  0.9927  0.5284
15563TIP3   OH268179   6.025   3.410   1.355  0.0569  0.2870  0.6884
15563TIP3    H168180   6.037   3.499   1.386  0.2739  0.5502 -0.1324
15563TIP3    H268181   5.941   3.382   1.393  0.0786  0.7693  1.0927
15564TIP3   OH268182   2.532   5.203   6.844 -0.4426 -0.6309 -0.1539
15564TIP3    H168183   2.498   5.288   6.872  0.5731 -0.7683  1.6815
15564TIP3    H268184   2.618   5.222   6.806  0.6657 -0.9455  2.0276
15565TIP3   OH268185   0.610   5.053   1.005  0.3830 -0.0525 -0.1388
15565TIP3    H168186   0.674   5.068   1.075 -0.5031  1.5987  0.3834
15565TIP3    H268187   0.581   4.963   1.018  0.1082  0.2745  1.7747
15566TIP3   OH268188   4.034   4.511   1.415  0.3337 -0.5322 -0.2464
15566TIP3    H168189   4.083   4.579   1.460 -1.7665 -0.4847  2.2578
15566TIP3    H268190   4.060   4.430   1.459  0.3283 -0.8867 -0.8858
15567TIP3   OH268191   3.532   5.078  17.116 -0.0981 -0.1236 -0.0747
15567TIP3    H168192   3.552   5.132  17.192  0.1672 -1.7534  1.0471
15567TIP3    H268193   3.437   5.089  17.103 -0.4599 -1.1271  1.5414
15568TIP3   OH268194   4.516   6.680   0.127 -0.1761 -0.2682 -0.2181
15568TIP3    H168195   4.598   6.649   0.089 -0.0910 -0.6462  0.2722
15568TIP3    H268196   4.537   6.766   0.163  0.2147 -0.7052  0.6246
15569TIP3   OH268197   5.141   6.332   4.204  0.2292 -0.0072 -0.5174
15569TIP3    H168198   5.134   6.275   4.127  1.2660 -0.5738 -0.2144
15569TIP3    H268199   5.231   6.319   4.235 -0.8976 -1.8049  2.3472
15570TIP3   OH268200   2.049   4.918  12.889  0.3556  0.2365 -0.1299
15570TIP3    H168201   2.045   5.007  12.923  2.3750 -0.1985  1.4724
15570TIP3    H268202   2.142   4.904  12.870  0.0424 -1.4478 -0.5818
15571TIP3   OH268203   4.163   1.063  16.933  0.2542 -0.5361  0.0056
15571TIP3    H168204   4.214   1.037  17.010 -0.4862 -2.3878 -0.0907
15571TIP3    H268205   4.079   1.090  16.968  0.1605 -0.6960 -0.0944
15572TIP3   OH268206   5.811   3.936  15.530  0.1271 -0.1730  0.1070
15572TIP3    H168207   5.806   4.031  15.514  1.2454  0.0720  1.0877
15572TIP3    H268208   5.720   3.908  15.531 -0.2762  1.0623  0.6897
15573TIP3   OH268209   4.721   0.780  16.450  0.3613 -0.4197  0.3167
15573TIP3    H168210   4.713   0.873  16.426  1.4275  0.3217  2.5310
15573TIP3    H268211   4.674   0.733  16.381  0.4312  1.7029 -1.2805
15574TIP3   OH268212   4.617   1.434  11.206  0.6882  0.1088  0.1582
15574TIP3    H168213   4.638   1.526  11.191 -1.2495  0.5893  0.1092
15574TIP3    H268214   4.529   1.435  11.243  0.2147 -1.7675 -0.7713
15575TIP3   OH268215   5.079   0.827   2.590 -0.0733 -0.2119 -0.1920
15575TIP3    H168216   4.987   0.840   2.566 -0.2848 -0.3804  0.5152
15575TIP3    H268217   5.119   0.913   2.577 -0.5093  0.0617  0.2587
15576TIP3   OH268218   2.156   0.126  14.974  0.1549 -0.3478  0.1158
15576TIP3    H168219   2.159   0.170  15.059  3.3442 -2.5064  1.3334
15576TIP3    H268220   2.131   0.036  14.995  0.3149 -0.7555 -1.3318
15577TIP3   OH268221   2.329   2.623  14.816 -0.1255 -0.1257 -0.1596
15577TIP3    H168222   2.303   2.615  14.908  0.0152 -0.7538 -0.1700
15577TIP3    H268223   2.312   2.537  14.779 -0.1028  0.1003 -0.7089
15578TIP3   OH268224   3.095   5.148   2.949  0.0277 -0.1510  0.4429
15578TIP3    H168225   3.070   5.057   2.966  1.3192 -0.4396  0.8923
15578TIP3    H268226   3.090   5.190   3.034  1.7804 -0.4155  0.7186
15579TIP3   OH268227   4.135   6.414   0.357  0.2809 -0.1055  0.7457
15579TIP3    H168228   4.217   6.395   0.311  1.5298  2.7438  1.5939
15579TIP3    H268229   4.077   6.449   0.289  1.2659  1.7637  0.8038
15580TIP3   OH268230   3.580   3.033   0.191  0.2970 -0.1440 -0.4566
15580TIP3    H168231   3.643   3.104   0.204  0.8574 -0.9189  1.5128
15580TIP3    H268232   3.558   3.005   0.280 -0.3798 -2.0202 -1.1696
15581TIP3   OH268233   2.562   5.969   4.553 -0.5486 -0.4056  0.0555
15581TIP3    H168234   2.567   5.878   4.523  2.2978 -0.1030 -0.6604
15581TIP3    H268235   2.502   6.011   4.491 -1.6383 -1.6818  0.1909
15582TIP3   OH268236   1.604   4.360   4.089  0.8439  0.3258  0.8968
15582TIP3    H168237   1.689   4.324   4.062  0.3809 -0.2987  0.2511
15582TIP3    H268238   1.560   4.288   4.134  0.4119  0.4569  0.6907
15583TIP3   OH268239   6.655   0.745   6.368  0.1139  0.1002 -0.5977
15583TIP3    H168240   6.608   0.823   6.398 -0.8635 -0.4752 -0.5796
15583TIP3    H268241   6.638   0.679   6.436 -0.5731 -0.6611 -1.4809
15584TIP3   OH268242   2.434   1.993   3.138 -0.7138 -0.2289  0.1795
15584TIP3    H168243   2.441   1.930   3.210 -0.3680 -0.9243 -0.4432
15584TIP3    H268244   2.373   1.952   3.077 -0.4537  0.0231 -0.2496
15585TIP3   OH268245   5.714   0.193   4.091  0.4005 -0.2009 -0.1894
15585TIP3    H168246   5.692   0.278   4.128 -0.0759 -0.1789 -0.5137
15585TIP3    H268247   5.694   0.201   3.998  0.8582 -0.4988 -0.3160
15586TIP3   OH268248   3.826   2.753  10.896  0.0561  0.4703  0.5756
15586TIP3    H168249   3.733   2.733  10.885 -0.1102  0.2593  2.1239
15586TIP3    H268250   3.867   2.669  10.916  1.1132  0.0478 -2.7883
15587TIP3   OH268251   0.541   6.691   1.815 -0.5070  0.3601  0.2438
15587TIP3    H168252   0.499   6.617   1.770  0.0989  0.2309 -0.1186
15587TIP3    H268253   0.549   6.758   1.747 -3.5531  1.8765  1.1572
15588TIP3   OH268254   3.750   3.893   5.693  0.3313  0.4739  0.3194
15588TIP3    H168255   3.759   3.913   5.599  3.0591 -0.9247  0.1677
15588TIP3    H268256   3.830   3.928   5.732  0.1270 -0.6260  1.7843
15589TIP3   OH268257   2.789   2.221  12.289 -0.2845  0.7693 -0.5365
15589TIP3    H168258   2.741   2.283  12.344 -0.3430  0.6201 -0.4165
15589TIP3    H268259   2.854   2.274  12.243 -0.8779  1.0451 -1.0676
15590TIP3   OH268260   3.969   0.073  14.355 -0.3651  0.2743 -0.5784
15590TIP3    H168261   3.996   0.063  14.447 -0.4314  0.5927 -0.5242
15590TIP3    H268262   3.877   0.046  14.354 -0.5252  0.8130 -0.4451
15591TIP3   OH268263   5.838   2.314  12.207  0.2588  0.7572  0.2285
15591TIP3    H168264   5.912   2.354  12.161  1.4788 -1.1897  0.3454
15591TIP3    H268265   5.767   2.378  12.200  1.7304  2.3894 -0.5244
15592TIP3   OH268266   4.427   1.635  14.132 -0.7903 -0.8763 -0.0864
15592TIP3    H168267   4.504   1.676  14.172 -0.0622  0.2249 -2.4821
15592TIP3    H268268   4.353   1.687  14.163 -0.0019  1.6584 -2.1086
15593TIP3   OH268269   4.304   5.573  12.301 -0.2938  0.1699 -0.2041
15593TIP3    H168270   4.251   5.564  12.222  0.5182  3.7243 -1.3487
15593TIP3    H268271   4.288   5.663  12.330  2.8507  0.4478  1.0593
15594TIP3   OH268272   4.629   3.434  14.361  0.0266  0.0597  0.2885
15594TIP3    H168273   4.639   3.391  14.446  0.9962 -0.8864 -0.2734
15594TIP3    H268274   4.640   3.363  14.297  0.3203  0.9259 -0.6459
15595TIP3   OH268275   4.019   6.489  13.929  0.1326 -0.6368 -0.3102
15595TIP3    H168276   3.949   6.523  13.985  0.8150  1.8992 -0.8429
15595TIP3    H268277   4.035   6.401  13.961 -3.0485 -1.1974  0.0384
15596TIP3   OH268278   6.636   3.569  16.773  0.4121 -0.0698  0.3095
15596TIP3    H168279   6.658   3.478  16.752  0.0717 -0.2602  0.7419
15596TIP3    H268280   6.543   3.566  16.797  0.4746  0.3380  0.6192
15597TIP3   OH268281   2.109   4.456   1.670  0.3126 -0.1919  0.3468
15597TIP3    H168282   2.071   4.494   1.590  2.7815  1.2430 -0.2465
15597TIP3    H268283   2.107   4.362   1.654 -0.9618 -0.0438 -0.5735
15598TIP3   OH268284   4.609   3.610  14.100  0.2654 -0.0115 -0.0409
15598TIP3    H168285   4.514   3.608  14.085  0.3742  0.8922 -0.9662
15598TIP3    H268286   4.618   3.616  14.195 -0.6669  1.2891  0.0018
15599TIP3   OH268287   1.657   3.031  12.763 -0.2787  0.6725 -0.1788
15599TIP3    H168288   1.677   2.939  12.780  0.5491  1.1449  1.6113
15599TIP3    H268289   1.741   3.072  12.745 -0.3772  1.4396  0.9854
15600TIP3   OH268290   0.357   3.025  12.892  0.0542  0.3193  0.1354
15600TIP3    H168291   0.304   3.090  12.938 -0.6210 -0.1111 -0.0252
15600TIP3    H268292   0.354   3.052  12.800  0.1565  0.3211  0.1327
15601TIP3   OH268293   2.663   5.965  12.470 -0.1770  0.6170 -0.9524
15601TIP3    H168294   2.589   5.966  12.409 -0.6860  3.1988 -0.4168
15601TIP3    H268295   2.739   5.951  12.414 -0.9214 -0.8231 -1.6655
15602TIP3   OH268296   4.863   6.568   5.877 -0.4157  0.2039 -0.0268
15602TIP3    H168297   4.919   6.630   5.831  0.5936  0.3410  1.3337
15602TIP3    H268298   4.918   6.491   5.889 -1.2330 -0.4747 -0.5510
15603TIP3   OH268299   6.047   1.567   5.188 -0.0447  0.0373  0.1791
15603TIP3    H168300   6.106   1.628   5.143 -1.2708  2.4491  1.6482
15603TIP3    H268301   6.068   1.577   5.281 -1.4290 -0.4902  0.5724
15604TIP3   OH268302   6.734   2.505   1.254 -0.2680 -0.1548  0.3458
15604TIP3    H168303   6.681   2.425   1.255 -0.5661 -0.0906 -2.6636
15604TIP3    H268304   6.776   2.505   1.169 -0.3030  2.9219  0.2176
15605TIP3   OH268305   6.714   2.811   4.574  0.4234  0.0331 -0.3930
15605TIP3    H168306   6.716   2.729   4.526 -2.0851 -1.4006  1.7146
15605TIP3    H268307   6.805   2.827   4.598  1.0873 -1.6261 -1.6150
15606TIP3   OH268308   1.470   0.209  15.351  0.6718  0.1465 -0.0711
15606TIP3    H168309   1.477   0.134  15.410  2.8419 -0.7961 -1.4167
15606TIP3    H268310   1.414   0.179  15.280  2.2699 -0.5854 -1.0706
15607TIP3   OH268311   6.338   1.738  17.416 -0.3384 -0.0477 -0.1154
15607TIP3    H168312   6.287   1.744  17.335 -0.8285  1.4330  0.2777
15607TIP3    H268313   6.309   1.813  17.468  2.4784  1.0713  0.0008
15608TIP3   OH268314   2.483   0.899  17.246 -0.3274  0.4669  0.3230
15608TIP3    H168315   2.466   0.805  17.245 -1.5405  0.6214  2.0802
15608TIP3    H268316   2.512   0.919  17.157 -0.7419 -1.4303 -0.2847
15609TIP3   OH268317   1.420   0.303  11.098  0.4756  0.2391 -0.0621
15609TIP3    H168318   1.459   0.326  11.014  0.1420 -1.7909 -0.8317
15609TIP3    H268319   1.326   0.301  11.082  0.3979 -0.0417  0.3986
15610TIP3   OH268320   5.790   2.332  16.945  0.4730 -0.2181 -0.1620
15610TIP3    H168321   5.833   2.264  16.998 -1.0887 -1.0640  0.0994
15610TIP3    H268322   5.699   2.302  16.939 -0.1274  1.5931 -0.5147
15611TIP3   OH268323   4.306   5.093   5.533 -0.3568 -0.6774  0.1648
15611TIP3    H168324   4.245   5.097   5.606 -0.3793 -0.0838  0.1202
15611TIP3    H268325   4.389   5.126   5.569 -0.5529  0.3145 -0.2490
15612TIP3   OH268326   2.462   1.468  15.756  0.1095  0.6232 -0.3723
15612TIP3    H168327   2.375   1.507  15.745  0.9234  2.4611 -0.7585
15612TIP3    H268328   2.520   1.543  15.771  1.8601 -0.4092 -1.5436
15613TIP3   OH268329   5.047   1.703  12.659 -0.1305 -0.2248 -0.7616
15613TIP3    H168330   5.094   1.767  12.606  0.6184 -0.4175 -0.3489
15613TIP3    H268331   5.044   1.743  12.746  1.5777 -1.3060 -0.1405
15614TIP3   OH268332   3.918   6.110  16.225  0.7470  0.1128  0.2622
15614TIP3    H168333   3.887   6.020  16.237  1.6948 -0.0804  1.4698
15614TIP3    H268334   4.013   6.102  16.214  0.8674  0.9638  0.5669
15615TIP3   OH268335   1.496   3.443   5.333  0.5695  0.3921 -0.1175
15615TIP3    H168336   1.529   3.496   5.406  0.5120  0.5513 -0.2074
15615TIP3    H268337   1.401   3.450   5.339  0.5755  0.7893 -0.4932
15616TIP3   OH268338   1.623   1.605  16.937  0.3649  0.4744  0.2199
15616TIP3    H168339   1.689   1.535  16.934 -0.7052 -0.8467  3.1634
15616TIP3    H268340   1.645   1.655  17.015 -1.1070  1.0480  0.2965
15617TIP3   OH268341   0.619   4.569  16.448  0.3062 -0.0343  0.0119
15617TIP3    H168342   0.552   4.511  16.485 -0.8606  0.4588 -1.2308
15617TIP3    H268343   0.700   4.544  16.493 -0.6485 -0.8353  1.3782
15618TIP3   OH268344   3.141   2.775   1.412  0.0401 -0.1625 -0.7070
15618TIP3    H168345   3.093   2.762   1.494 -0.5611 -0.5729 -1.1124
15618TIP3    H268346   3.230   2.747   1.431 -0.1388 -0.4231 -0.2432
15619TIP3   OH268347   2.190   4.321   0.148  0.3779  0.0864  0.5558
15619TIP3    H168348   2.176   4.235   0.189 -0.0062  0.6975  1.7440
15619TIP3    H268349   2.239   4.371   0.213  0.3787  0.8515 -0.0238
15620TIP3   OH268350   0.959   1.351   3.727  0.1228 -0.1878 -0.1495
15620TIP3    H168351   1.015   1.313   3.795  1.5922 -2.7511 -2.5893
15620TIP3    H268352   0.872   1.356   3.767  1.2223  0.1105  2.4387
15621TIP3   OH268353   3.795   6.422   1.754  0.2452  0.6247  0.1734
15621TIP3    H168354   3.711   6.426   1.708  0.1942  0.3847  0.2476
15621TIP3    H268355   3.805   6.330   1.779  1.1248  0.4035 -0.9393
15622TIP3   OH268356   5.552   1.907  13.122 -0.3340  0.8935  0.0389
15622TIP3    H168357   5.582   1.998  13.123 -0.0782  0.8284 -0.8325
15622TIP3    H268358   5.593   1.868  13.199 -0.2450  1.4564  0.2828
15623TIP3   OH268359   4.189   4.831  16.956  0.1505 -0.5082 -0.3903
15623TIP3    H168360   4.251   4.904  16.959  1.4914 -1.4977 -2.1059
15623TIP3    H268361   4.116   4.863  16.902  1.0154 -0.5970 -1.6545
15624TIP3   OH268362   1.044   5.299  16.922 -0.0065 -0.0049  0.5923
15624TIP3    H168363   1.093   5.354  16.861 -1.7253 -0.4227 -1.2965
15624TIP3    H268364   1.053   5.211  16.887 -0.3127 -0.3888  1.4577
15625TIP3   OH268365   0.147   3.329   4.258 -0.3826 -0.3152 -0.2954
15625TIP3    H168366   0.205   3.345   4.183 -2.7418 -0.1238 -2.2253
15625TIP3    H268367   0.065   3.371   4.233 -1.5808 -1.1339  2.0167
15626TIP3   OH268368   2.458   1.670  16.663  0.3934  0.6256 -0.2205
15626TIP3    H168369   2.452   1.763  16.682  0.5445  0.5881  0.0156
15626TIP3    H268370   2.549   1.656  16.637  0.0501  0.7891 -1.6107
15627TIP3   OH268371   0.836   1.820   6.106 -0.5478 -0.2425  0.1182
15627TIP3    H168372   0.888   1.861   6.036  0.1200 -0.9299  0.2033
15627TIP3    H268373   0.834   1.886   6.176  0.0510 -0.1406  0.0426
15628TIP3   OH268374   5.196   6.652  13.176 -0.2321  0.4370  0.3410
15628TIP3    H168375   5.255   6.655  13.250  1.3475 -1.0379 -0.7811
15628TIP3    H268376   5.156   6.739  13.173  0.8783  1.0330  1.9211
15629TIP3   OH268377   3.960   6.630  16.423  0.0311  0.3976 -0.0309
15629TIP3    H168378   3.925   6.558  16.370  0.1102  0.2171  0.1637
15629TIP3    H268379   3.975   6.700  16.360  0.7882 -0.0526 -0.3671
15630TIP3   OH268380   2.444   3.134  13.958 -0.5496  0.0299  0.7968
15630TIP3    H168381   2.511   3.075  13.923 -0.2086  0.1574  1.2346
15630TIP3    H268382   2.474   3.156  14.046 -1.7588 -0.8390  1.4574
15631TIP3   OH268383   2.192   6.215  12.005  0.1616  0.0696 -0.7320
15631TIP3    H168384   2.125   6.200  12.072  2.5604  0.3226  1.9431
15631TIP3    H268385   2.240   6.133  12.000  0.0870  0.0850 -2.1541
15632TIP3   OH268386   1.903   2.060  17.159  0.1852  0.9209  0.2275
15632TIP3    H168387   1.828   2.112  17.189  0.1271  0.2184  1.3218
15632TIP3    H268388   1.930   2.009  17.235  0.3391 -0.5546 -0.7727
15633TIP3   OH268389   2.467   1.429  11.054 -0.6579 -0.6696  0.0330
15633TIP3    H168390   2.491   1.516  11.021 -1.1828  0.1007  1.6168
15633TIP3    H268391   2.392   1.403  10.999 -0.2650 -0.3016 -0.6966
15634TIP3   OH268392   5.820   3.718   5.397 -0.2294 -0.4591 -0.1899
15634TIP3    H168393   5.909   3.700   5.367  0.0041  1.3911 -0.7377
15634TIP3    H268394   5.793   3.795   5.346 -1.1232  0.6847  1.8969
15635TIP3   OH268395   1.458   4.046   6.308 -0.1429  0.2630  0.8242
15635TIP3    H168396   1.504   3.971   6.270 -1.5951 -0.8452  1.1277
15635TIP3    H268397   1.509   4.122   6.281 -0.3828 -0.5431 -2.3141
15636TIP3   OH268398   4.948   2.375   4.959 -0.0272 -0.0204 -0.0995
15636TIP3    H168399   4.878   2.411   4.904  0.0643  1.8227  0.9277
15636TIP3    H268400   5.027   2.419   4.930  0.4762 -0.9827 -0.2288
15637TIP3   OH268401   3.910   3.308   1.760  0.0746 -0.1198  0.1552
15637TIP3    H168402   3.902   3.391   1.715  0.3260 -0.4261 -0.4640
15637TIP3    H268403   3.984   3.319   1.819 -0.3151  0.3132  0.5771
15638TIP3   OH268404   6.031   4.120  16.898  0.6407 -0.1501 -0.4902
15638TIP3    H168405   6.031   4.200  16.846  1.3299  0.9370  1.1298
15638TIP3    H268406   6.118   4.083  16.885  0.6236 -0.1794 -0.5245
15639TIP3   OH268407   0.149   4.859  13.729  0.5283  0.4952  0.1594
15639TIP3    H168408   0.087   4.924  13.697  0.8213  0.9336  0.4723
15639TIP3    H268409   0.096   4.802  13.786  0.3813  0.7947  0.3287
15640TIP3   OH268410   1.327   1.376  14.490  0.3230  0.1925  0.2041
15640TIP3    H168411   1.423   1.367  14.489  0.4824  1.0714  2.2562
15640TIP3    H268412   1.296   1.304  14.435  2.1152 -0.8395  0.4539
15641TIP3   OH268413   3.838   2.451  15.887  0.2437 -0.2312  0.0860
15641TIP3    H168414   3.827   2.462  15.982 -0.4465 -3.2449  0.4820
15641TIP3    H268415   3.929   2.422  15.877 -0.0177 -1.0537  0.0041
15642TIP3   OH268416   1.099   0.237   4.075  0.3000 -0.2541  0.1140
15642TIP3    H168417   1.065   0.299   4.011 -0.8817  0.7992  1.7007
15642TIP3    H268418   1.172   0.283   4.116 -0.3498 -0.0370  1.0438
15643TIP3   OH268419   0.377   6.529   4.766 -0.8595 -0.0834 -0.8820
15643TIP3    H168420   0.311   6.537   4.836  1.6210  1.1315  1.4902
15643TIP3    H268421   0.418   6.444   4.783  1.0949  1.0570  0.5451
15644TIP3   OH268422   2.066   4.181   3.222  0.3989 -0.2625  0.6017
15644TIP3    H168423   1.990   4.168   3.280  0.1193  1.3571  0.6524
15644TIP3    H268424   2.042   4.256   3.167  0.7789 -1.5507 -1.4491
15645TIP3   OH268425   1.117   5.946   0.678 -0.3313 -0.0780 -0.7767
15645TIP3    H168426   1.106   6.011   0.609  1.6377 -0.9053 -1.9409
15645TIP3    H268427   1.070   5.868   0.646 -1.8351  0.3983  0.1628
15646TIP3   OH268428   5.467   4.538   6.217 -0.5215  0.4180  0.3048
15646TIP3    H168429   5.456   4.477   6.144  1.9096  0.8832 -0.5550
15646TIP3    H268430   5.529   4.494   6.275 -0.6279  1.0518  0.9135
15647TIP3   OH268431   2.340   4.624   6.238  0.3688 -0.0602  0.6897
15647TIP3    H168432   2.277   4.615   6.310 -0.8531 -0.7055 -0.4264
15647TIP3    H268433   2.409   4.680   6.274 -2.2177  3.1879  1.0793
15648TIP3   OH268434   0.682   5.259   6.516 -0.4001  0.2523 -0.0168
15648TIP3    H168435   0.733   5.299   6.586  1.4528 -0.4993 -0.8749
15648TIP3    H268436   0.597   5.303   6.520 -0.1576  0.6100  2.3141
15649TIP3   OH268437   2.393   4.570  11.634  0.1181  0.0032 -0.2102
15649TIP3    H168438   2.472   4.532  11.595  0.1772 -1.0327  0.8603
15649TIP3    H268439   2.322   4.511  11.609  0.3216 -1.3509  2.0709
15650TIP3   OH268440   5.281   3.684  11.716  0.5817 -0.6250  0.5099
15650TIP3    H168441   5.247   3.675  11.805  1.9809  0.2291  1.1692
15650TIP3    H268442   5.368   3.644  11.719  0.6043 -0.6784 -0.5008
15651TIP3   OH268443   0.148   6.450   1.711  0.1119 -0.1333 -0.2892
15651TIP3    H168444   0.107   6.418   1.791  0.3588  0.0338 -0.0978
15651TIP3    H268445   0.088   6.422   1.641  0.3049 -0.9785 -0.1281
15652TIP3   OH268446   0.587   0.279   2.583 -0.0689 -0.0123  0.0014
15652TIP3    H168447   0.520   0.211   2.576 -2.3757  2.2865 -2.4174
15652TIP3    H268448   0.593   0.297   2.677 -0.1042 -2.7224  0.6271
15653TIP3   OH268449   2.803   4.620  14.672  0.5017  0.3424 -0.1678
15653TIP3    H168450   2.802   4.696  14.730  1.2792  0.7675 -0.6988
15653TIP3    H268451   2.712   4.593  14.667  0.4822 -0.1251  1.7903
15654TIP3   OH268452   1.709   0.334   2.686  0.2606  0.1488  0.4488
15654TIP3    H168453   1.764   0.358   2.760  0.0433 -1.7885  1.2862
15654TIP3    H268454   1.621   0.361   2.713  0.4643  1.4285 -0.0638
15655TIP3   OH268455   6.153   3.334   4.866 -0.4127  0.0427 -0.2586
15655TIP3    H168456   6.115   3.252   4.834  1.8568 -1.8858  1.5942
15655TIP3    H268457   6.216   3.360   4.799 -0.8832  0.1001 -0.6853
15656TIP3   OH268458   6.150   1.437   1.060 -0.3153 -0.0200 -0.1141
15656TIP3    H168459   6.145   1.509   0.997  0.0526  0.9076  0.8901
15656TIP3    H268460   6.197   1.368   1.014 -1.7695 -0.1285 -1.5421
15657TIP3   OH268461   5.629   3.509   5.101 -0.3538  0.1412 -0.5416
15657TIP3    H168462   5.611   3.487   5.192  1.1840 -0.1081 -0.2824
15657TIP3    H268463   5.666   3.429   5.064  0.5972  0.7552 -0.9327
15658TIP3   OH268464   5.072   4.783   5.373  0.1643  0.2536 -0.2890
15658TIP3    H168465   5.159   4.772   5.335  1.3049  1.1732  1.9067
15658TIP3    H268466   5.049   4.874   5.355  0.2281  0.3769  0.2424
15659TIP3   OH268467   5.458   6.009  11.834  0.1980  0.0617 -0.1183
15659TIP3    H168468   5.549   6.035  11.846  0.4513 -0.9552  0.1890
15659TIP3    H268469   5.412   6.047  11.909  0.2841  0.9331 -0.4962
15660TIP3   OH268470   4.782   5.335   4.219  0.3319  0.2156  0.1833
15660TIP3    H168471   4.798   5.382   4.301 -0.1823  1.2658 -0.2893
15660TIP3    H268472   4.852   5.271   4.214  0.5437  0.3338  1.2996
15661TIP3   OH268473   6.522   2.994  14.590 -0.2448 -0.0819 -0.1765
15661TIP3    H168474   6.604   3.031  14.558 -0.3441 -0.1523 -0.5122
15661TIP3    H268475   6.528   3.002  14.686  0.3548 -0.5147 -0.1719
15662TIP3   OH268476   3.081   0.057  15.421 -0.0326 -0.5583 -0.4229
15662TIP3    H168477   3.141   0.021  15.357  1.7624  0.2957  0.7087
15662TIP3    H268478   3.121   0.140  15.448 -0.9354 -0.6909  1.4851
15663TIP3   OH268479   3.606   4.460   4.634  0.3035  0.8337 -0.2193
15663TIP3    H168480   3.588   4.428   4.722  0.3306  1.7762  0.1387
15663TIP3    H268481   3.594   4.383   4.578 -1.8384  0.7026  0.3418
15664TIP3   OH268482   5.720   3.692   5.649  0.3794 -0.1804 -0.2056
15664TIP3    H168483   5.724   3.727   5.560  0.6781 -2.2936 -1.0952
15664TIP3    H268484   5.630   3.663   5.660 -0.8346  3.6952  1.7944
15665TIP3   OH268485   5.298   2.556   5.732  0.5412  0.1042 -0.2844
15665TIP3    H168486   5.354   2.574   5.657  1.1752 -2.2559 -0.4504
15665TIP3    H268487   5.214   2.596   5.709  1.5631  1.9806 -0.8980
15666TIP3   OH268488   1.851   0.716  15.155  0.0447 -0.5923  0.4968
15666TIP3    H168489   1.811   0.712  15.242  0.0551  1.5565  0.6425
15666TIP3    H268490   1.778   0.701  15.095  0.1505 -2.7633  0.8242
15667TIP3   OH268491   3.152   0.120   0.185  1.0442 -0.0919 -0.5010
15667TIP3    H168492   3.223   0.171   0.224  1.4591 -0.0113 -1.3409
15667TIP3    H268493   3.124   0.061   0.255  1.2038  0.6252  0.1807
15668TIP3   OH268494   5.258   1.168  17.334 -0.2844  0.2104  0.3491
15668TIP3    H168495   5.334   1.203  17.380  0.8047  0.0831 -1.2652
15668TIP3    H268496   5.186   1.176  17.397  0.7599  1.6148  1.4418
15669TIP3   OH268497   2.747   5.463   0.507 -0.2604  0.1810 -0.1762
15669TIP3    H168498   2.787   5.457   0.594  1.0614  1.0405 -0.6915
15669TIP3    H268499   2.776   5.548   0.473  0.3604 -0.7044 -1.9713
15670TIP3   OH268500   2.661   1.718   3.163 -0.3299  0.7665 -0.1640
15670TIP3    H168501   2.588   1.710   3.224  0.5986 -4.3082  0.7510
15670TIP3    H268502   2.624   1.694   3.078 -0.2195  0.7277 -0.2012
15671TIP3   OH268503   5.965   3.775  14.295  0.5326  0.5036  0.1101
15671TIP3    H168504   5.911   3.852  14.278  0.9981  0.7990 -0.0591
15671TIP3    H268505   6.055   3.808  14.296  0.8189 -0.1897 -0.9318
15672TIP3   OH268506   4.293   2.170   5.613 -0.4173 -0.0320 -0.2194
15672TIP3    H168507   4.200   2.178   5.634 -0.7622 -2.5945 -0.4072
15672TIP3    H268508   4.295   2.147   5.520  0.4674  0.8590 -0.4346
15673TIP3   OH268509   5.589   4.090   3.441 -0.7108  0.2273  0.0391
15673TIP3    H168510   5.565   4.104   3.349  0.3344 -0.5234 -0.3718
15673TIP3    H268511   5.515   4.126   3.491 -1.7979 -0.3212 -1.1066
15674TIP3   OH268512   6.525   5.904  16.650 -0.0575 -0.3327 -0.2830
15674TIP3    H168513   6.576   5.827  16.624 -2.6625 -1.4912 -2.4797
15674TIP3    H268514   6.492   5.882  16.738 -2.5423 -2.8769 -1.7009
15675TIP3   OH268515   5.014   6.679   2.661  0.4869 -0.7793 -0.6264
15675TIP3    H168516   5.086   6.676   2.723  0.2609 -0.6155 -0.3524
15675TIP3    H268517   4.938   6.705   2.713  0.5686  0.7365 -1.2250
15676TIP3   OH268518   6.329   3.763   2.158  0.2724 -0.0344  0.7506
15676TIP3    H168519   6.293   3.711   2.086  0.1329  1.2404 -0.1378
15676TIP3    H268520   6.372   3.837   2.115 -0.8526  1.4183  2.0110
15677TIP3   OH268521   0.091   1.702   0.539  0.2671  0.5255 -0.1739
15677TIP3    H168522   0.083   1.701   0.634 -0.3464  2.1623 -0.1876
15677TIP3    H268523   0.082   1.610   0.513 -0.6844  0.1898  1.2548
15678TIP3   OH268524   0.229   1.697  15.352  0.1796 -0.2066  0.3860
15678TIP3    H168525   0.208   1.790  15.345  0.4164 -0.2172 -0.6267
15678TIP3    H268526   0.244   1.669  15.262  3.9543 -0.3229  0.8652
15679TIP3   OH268527   4.999   4.146   3.854  0.1546  0.4096  0.0250
15679TIP3    H168528   4.983   4.058   3.819  0.1743  0.1866  0.5658
15679TIP3    H268529   5.038   4.131   3.939  1.7782  0.9477 -0.5894
15680TIP3   OH268530   5.475   3.177  14.644  0.4938  0.1475 -0.5569
15680TIP3    H168531   5.497   3.131  14.725  3.4755 -0.0281 -1.3479
15680TIP3    H268532   5.509   3.121  14.574 -0.7528  0.9705 -1.8896
15681TIP3   OH268533   2.054   3.797   5.838  0.2081 -0.2858  0.3284
15681TIP3    H168534   2.129   3.844   5.802  0.2625 -2.0953 -2.1536
15681TIP3    H268535   2.092   3.730   5.895  0.4092 -0.3919  0.0687
15682TIP3   OH268536   0.416   4.803  13.679 -0.3709 -0.6048 -0.2432
15682TIP3    H168537   0.328   4.838  13.692 -0.3036 -1.3234  2.6176
15682TIP3    H268538   0.474   4.878  13.696 -0.3346 -0.0562 -2.3956
15683TIP3   OH268539   0.844   3.318  16.660  0.8655  0.2459 -0.5336
15683TIP3    H168540   0.882   3.405  16.655 -0.1446  0.8284  1.0637
15683TIP3    H268541   0.771   3.327  16.721  0.3856 -1.5996 -0.7642
15684TIP3   OH268542   2.185   6.513  10.887 -0.2643  0.2525 -0.6205
15684TIP3    H168543   2.178   6.608  10.897  1.7065  0.3872 -0.0968
15684TIP3    H268544   2.255   6.501  10.823  0.2265 -0.8604  0.1129
15685TIP3   OH268545   4.082   2.705  14.364  0.1364 -0.5605  0.1670
15685TIP3    H168546   4.091   2.725  14.271  1.4922 -0.9481  0.1947
15685TIP3    H268547   3.989   2.684  14.375 -0.4500  1.2882 -0.7249
15686TIP3   OH268548   5.212   3.683   2.242 -0.6121  0.2346 -0.5201
15686TIP3    H168549   5.153   3.756   2.262 -3.6093 -1.8955 -0.9499
15686TIP3    H268550   5.177   3.609   2.290  1.4734 -1.2987 -1.2053
15687TIP3   OH268551   1.965   1.751  15.204 -0.2299 -0.1536 -0.3202
15687TIP3    H168552   1.892   1.804  15.237 -0.0963  0.6711 -1.2917
15687TIP3    H268553   2.035   1.766  15.268 -1.2255 -1.9284  1.3093
15688TIP3   OH268554   1.150   3.045  10.996 -0.4896  0.1579 -0.1677
15688TIP3    H168555   1.123   3.034  11.087 -0.4103 -0.7210 -0.2381
15688TIP3    H268556   1.068   3.040  10.947 -0.5993  1.1988 -0.1151
15689TIP3   OH268557   1.039   5.996  17.237 -0.0678  0.6301 -0.5064
15689TIP3    H168558   1.005   5.933  17.173  0.3044  1.7279 -1.8138
15689TIP3    H268559   1.117   6.033  17.196 -0.5187  2.2593  0.0240
15690TIP3   OH268560   0.784   6.715   0.068 -0.0737  0.5411 -0.0206
15690TIP3    H168561   0.715   6.775   0.037  0.0455  0.1127 -1.1775
15690TIP3    H268562   0.825   6.761   0.141 -1.5754  0.8093  0.6898
15691TIP3   OH268563   1.331   4.716  11.899  0.5568 -0.1139 -0.3822
15691TIP3    H168564   1.294   4.633  11.868  2.2071 -1.2845  0.6029
15691TIP3    H268565   1.336   4.705  11.994  0.6318  1.2058 -0.2251
15692TIP3   OH268566   6.777   2.760   0.922 -0.0817  0.1663 -0.9794
15692TIP3    H168567   6.751   2.669   0.935 -1.5137  0.4508 -1.6626
15692TIP3    H268568   6.800   2.790   1.010  1.1412 -1.0470 -0.8524
15693TIP3   OH268569   0.430   1.955  15.179 -0.2142 -0.4883  0.6459
15693TIP3    H168570   0.440   1.873  15.130 -1.5701 -0.5540  0.4463
15693TIP3    H268571   0.350   1.943  15.229 -0.7613  0.9388  0.1634
15694TIP3   OH268572   5.821   3.044  14.928  0.1942 -0.4151 -0.6721
15694TIP3    H168573   5.843   3.015  15.017 -0.1482  1.1609 -0.0420
15694TIP3    H268574   5.862   2.979  14.871  0.8984 -1.1499  0.6210
15695TIP3   OH268575   6.082   5.991  14.359  0.6506 -0.0209  0.3184
15695TIP3    H168576   6.028   6.060  14.396 -0.3646 -0.9779  0.6706
15695TIP3    H268577   6.071   6.000  14.264  1.0325  0.6842  0.3352
15696TIP3   OH268578   2.687   0.595  16.725  0.3868  0.0076 -0.5066
15696TIP3    H168579   2.608   0.614  16.673 -0.1050 -2.0080 -0.5597
15696TIP3    H268580   2.755   0.647  16.684 -0.8199  1.5340 -0.6857
15697TIP3   OH268581   2.769   0.222   4.242 -0.2067  0.3785  0.1244
15697TIP3    H168582   2.744   0.253   4.155  0.0478  1.2292  0.3465
15697TIP3    H268583   2.865   0.218   4.240 -0.2048  0.3063  0.3370
15698TIP3   OH268584   2.882   5.833  11.924 -0.6072  0.0224  0.1614
15698TIP3    H168585   2.968   5.792  11.927 -0.6642 -0.0987  0.1960
15698TIP3    H268586   2.859   5.834  11.831  0.1633  1.6299 -0.0379
15699TIP3   OH268587   0.823   4.145  16.609 -0.5648 -0.0005  0.4102
15699TIP3    H168588   0.834   4.210  16.540  3.0214 -1.8296 -1.0387
15699TIP3    H268589   0.794   4.066  16.563  2.3799 -1.3934  0.7095
15700TIP3   OH268590   5.422   4.098   6.001  0.6893 -0.2863  0.1595
15700TIP3    H168591   5.489   4.031   5.990 -0.6872 -1.6507 -0.2652
15700TIP3    H268592   5.362   4.062   6.066 -0.2701  0.3757 -0.3372
15701TIP3   OH268593   0.009   6.611   0.466  0.8548  0.1886 -0.1573
15701TIP3    H168594   0.037   6.528   0.503  1.6021  0.9375  1.0319
15701TIP3    H268595  -0.080   6.624   0.498  1.0736  0.2765  0.4230
15702TIP3   OH268596   5.754   6.090   5.127  0.5947 -0.1150  0.3673
15702TIP3    H168597   5.783   6.181   5.128  0.8792 -0.2009  1.1251
15702TIP3    H268598   5.713   6.077   5.213 -1.1139 -0.1937 -0.4238
15703TIP3   OH268599   4.517   4.213  13.783  0.4245 -0.2499  0.1799
15703TIP3    H168600   4.444   4.197  13.843 -0.1684  0.0165 -0.4571
15703TIP3    H268601   4.514   4.307  13.766  0.5629 -0.3322 -0.2977
15704TIP3   OH268602   3.938   3.553  14.519  0.1787  0.3432 -0.4365
15704TIP3    H168603   3.926   3.560  14.614 -0.5576  1.1635 -0.5737
15704TIP3    H268604   3.940   3.643  14.488 -2.4666  0.1249 -1.5068
15705TIP3   OH268605   0.919   4.806  12.722  0.1368 -0.2676 -0.4126
15705TIP3    H168606   0.908   4.879  12.783  3.5685 -0.2091  0.3538
15705TIP3    H268607   0.930   4.729  12.779 -1.5591 -1.1257 -1.1704
15706TIP3   OH268608   5.740   4.546  11.939 -0.3162 -0.3120  0.1212
15706TIP3    H168609   5.699   4.574  12.021 -0.7806 -1.9972  0.5109
15706TIP3    H268610   5.794   4.620  11.913 -0.4139  0.4026  1.7780
15707TIP3   OH268611   2.925   5.731   1.298 -0.3965 -0.3340 -0.0368
15707TIP3    H168612   2.918   5.825   1.282 -0.8915 -0.3760 -0.1053
15707TIP3    H268613   3.017   5.716   1.317 -0.8078  0.7383  3.5230
15708TIP3   OH268614   6.179   2.383  14.760 -0.2945  0.4567  0.2054
15708TIP3    H168615   6.197   2.366  14.668  0.7603 -0.8194  0.6204
15708TIP3    H268616   6.128   2.464  14.760  0.0354  0.6934 -1.4600
15709TIP3   OH268617   0.251   1.650  15.073 -0.2666  0.5237  0.2431
15709TIP3    H168618   0.345   1.649  15.057 -0.4429  0.0761 -0.9275
15709TIP3    H268619   0.216   1.709  15.006 -0.7839  0.9212  0.8590
15710TIP3   OH268620   6.112   6.275  16.939  0.0019  0.2891  0.1019
15710TIP3    H168621   6.134   6.209  16.873  0.5003 -1.0198  1.5223
15710TIP3    H268622   6.035   6.320  16.903 -0.5958 -1.3263 -0.7270
15711TIP3   OH268623   0.492   1.372  15.477 -0.1740  0.5299 -0.0228
15711TIP3    H168624   0.551   1.444  15.458 -0.0912  0.5817  0.4358
15711TIP3    H268625   0.422   1.380  15.411 -0.9428  1.8990  0.9270
15712TIP3   OH268626   6.779   0.847  12.853 -0.4894  0.0919 -0.5263
15712TIP3    H168627   6.815   0.934  12.867 -0.4901  0.1534 -0.8786
15712TIP3    H268628   6.759   0.814  12.940 -2.6094  1.3393 -0.4744
15713TIP3   OH268629   3.165   5.453   3.199 -0.1108 -0.0398 -0.1365
15713TIP3    H168630   3.094   5.391   3.213 -0.6380  0.1757 -1.6149
15713TIP3    H268631   3.218   5.449   3.278 -0.9537 -1.2876  0.3800
15714TIP3   OH268632   1.166   1.211   4.640 -0.9781  0.1677 -0.7330
15714TIP3    H168633   1.237   1.234   4.700 -1.5124 -0.3499  0.1170
15714TIP3    H268634   1.090   1.199   4.697 -1.6093  0.1479 -1.5735
15715TIP3   OH268635   3.036   0.831  11.928 -0.4354  0.1841 -0.1417
15715TIP3    H168636   2.989   0.826  12.011 -0.7612  1.3461 -0.2357
15715TIP3    H268637   2.974   0.875  11.869  0.3263  0.6560 -0.5970
15716TIP3   OH268638   3.188   4.262   7.030 -0.4186 -0.1241 -0.6521
15716TIP3    H168639   3.125   4.195   7.001  0.0398  0.1860 -2.4774
15716TIP3    H268640   3.266   4.245   6.977  0.1360  1.0918 -0.2495
15717TIP3   OH268641   1.339   2.440   2.270  0.1874  0.6008  0.3169
15717TIP3    H168642   1.328   2.347   2.250 -2.0623  0.7442  0.6156
15717TIP3    H268643   1.265   2.483   2.227  0.8984  2.2026  0.6065
15718TIP3   OH268644   3.088   4.738  16.314  0.4665 -0.0859 -0.1279
15718TIP3    H168645   2.996   4.721  16.335  0.3586  0.3838 -0.1966
15718TIP3    H268646   3.136   4.713  16.393  0.1352  0.9854  0.4305
15719TIP3   OH268647   3.781   2.707  12.710  0.0933  0.1871  0.0272
15719TIP3    H168648   3.744   2.679  12.626  0.0160 -0.1318  0.1665
15719TIP3    H268649   3.832   2.785  12.689 -1.0087  0.8973 -0.0998
15720TIP3   OH268650   4.898   6.373   4.322 -0.2645 -0.0479 -0.2694
15720TIP3    H168651   4.920   6.445   4.381 -0.6613  0.0884 -0.2812
15720TIP3    H268652   4.972   6.367   4.262 -0.6699  1.0176 -0.9039
15721TIP3   OH268653   3.705   0.637   5.751  0.1446  0.0637 -0.1450
15721TIP3    H168654   3.646   0.712   5.742 -1.0053 -0.6697  0.8879
15721TIP3    H268655   3.741   0.625   5.663 -1.2411  0.5650 -0.8195
15722TIP3   OH268656   3.338   0.714  15.797  0.2404  0.1528  0.0498
15722TIP3    H168657   3.244   0.703  15.785  0.4545 -2.3196 -0.0257
15722TIP3    H268658   3.347   0.791  15.853 -1.7427  1.0493 -0.7849
15723TIP3   OH268659   5.641   4.136   0.972 -0.2720  0.2024 -0.2964
15723TIP3    H168660   5.687   4.148   1.055  0.5928 -0.2585 -0.6969
15723TIP3    H268661   5.638   4.042   0.959  0.5070  0.2904 -1.2670
15724TIP3   OH268662   2.283   0.771   1.059 -0.8674 -0.3814 -0.7601
15724TIP3    H168663   2.238   0.720   1.126 -0.9931  0.3928 -0.2449
15724TIP3    H268664   2.374   0.774   1.089 -0.6440 -1.1605 -1.3234
15725TIP3   OH268665   6.748   0.519  15.568  0.4372 -0.4352 -0.4271
15725TIP3    H168666   6.808   0.552  15.501 -1.2411  0.7889 -1.3880
15725TIP3    H268667   6.671   0.575  15.562 -1.2867 -2.6203  0.0229
15726TIP3   OH268668   0.610   5.173  14.894 -0.1381  0.2719 -0.6005
15726TIP3    H168669   0.675   5.126  14.842  0.0656  0.6623 -0.7037
15726TIP3    H268670   0.535   5.113  14.899  0.9688 -1.0725  1.2763
15727TIP3   OH268671   2.321   0.268   0.657 -0.0043 -0.2074 -0.3239
15727TIP3    H168672   2.389   0.210   0.623 -0.0121 -0.1706 -0.4034
15727TIP3    H268673   2.362   0.314   0.730 -0.4667 -1.4349  0.7314
15728TIP3   OH268674   6.541   2.048  11.938 -0.3131  0.3172 -0.4780
15728TIP3    H168675   6.482   1.982  11.903 -0.3281  0.3589 -0.5309
15728TIP3    H268676   6.529   2.044  12.033  0.2620 -0.3089 -0.4230
15729TIP3   OH268677   3.717   3.892  13.969  0.5211  0.1092  0.0582
15729TIP3    H168678   3.783   3.924  14.030 -0.1483 -1.0068  1.4167
15729TIP3    H268679   3.750   3.806  13.941 -0.0369 -0.1679  0.2364
15730TIP3   OH268680   2.620   2.943  13.575 -0.0023 -0.3575 -0.3159
15730TIP3    H168681   2.621   2.964  13.668 -2.0714 -1.6792  0.0648
15730TIP3    H268682   2.598   3.025  13.531 -0.6425 -0.0902  0.5015
15731TIP3   OH268683   0.254   4.707   0.637 -0.0741 -0.6692 -0.2036
15731TIP3    H168684   0.198   4.779   0.610  1.2431  1.0208  1.3728
15731TIP3    H268685   0.342   4.743   0.635  0.8296 -2.7591 -0.9883
15732TIP3   OH268686   1.900   3.082  14.364  0.1873 -0.1842  0.6111
15732TIP3    H168687   1.944   3.000  14.342  1.8473  0.0610  2.7216
15732TIP3    H268688   1.894   3.081  14.460 -3.1980  0.4715  0.5095
15733TIP3   OH268689   5.796   1.058  13.131  0.2405  0.3089  0.3987
15733TIP3    H168690   5.862   1.123  13.104  0.1833 -0.1780 -0.9884
15733TIP3    H268691   5.847   0.981  13.156  0.2911  0.7446  1.7194
15734TIP3   OH268692   4.966   3.726   5.275  0.3626  0.8201 -0.9090
15734TIP3    H168693   4.979   3.726   5.369  1.2344 -0.5397 -0.9943
15734TIP3    H268694   5.052   3.749   5.239  0.5989 -0.6966 -1.3813
15735TIP3   OH268695   0.066   4.904  16.586  0.0214 -0.2323  0.3921
15735TIP3    H168696  -0.000   4.868  16.527 -0.6767  0.3615  0.7905
15735TIP3    H268697   0.127   4.950  16.529  1.5949 -2.8978 -0.2707
15736TIP3   OH268698   0.905   3.862   3.767 -0.0341  0.5029 -0.1830
15736TIP3    H168699   0.932   3.856   3.676  2.3576  3.1610  0.2120
15736TIP3    H268700   0.846   3.937   3.771 -0.3116  0.2662  0.4357
15737TIP3   OH268701   3.141   5.496  13.719  0.0174  0.1757 -0.3361
15737TIP3    H168702   3.097   5.524  13.639 -0.9594  3.8401  1.2680
15737TIP3    H268703   3.140   5.574  13.775  1.9451 -1.7848  2.6966
15738TIP3   OH268704   5.900   6.490  15.775 -0.1199  0.3438  0.0907
15738TIP3    H168705   5.922   6.540  15.854  0.4161  1.8237 -0.9328
15738TIP3    H268706   5.985   6.463  15.740 -0.2938  0.4749 -0.4400
15739TIP3   OH268707   4.790   4.011  13.441 -0.4623  0.0093  0.5654
15739TIP3    H168708   4.805   4.090  13.492  0.7080  0.4163 -0.3435
15739TIP3    H268709   4.781   3.941  13.506 -0.1708  0.6839  1.3437
15740TIP3   OH268710   2.041   4.670  15.169 -0.1109  0.1473 -0.7382
15740TIP3    H168711   1.956   4.629  15.156  0.3237 -0.8208 -0.5772
15740TIP3    H268712   2.102   4.597  15.180  0.4042  0.8047  1.3423
15741TIP3   OH268713   4.878   2.755  15.686 -0.1371 -0.3444 -0.3242
15741TIP3    H168714   4.801   2.793  15.645 -0.5519 -0.0235  0.7255
15741TIP3    H268715   4.951   2.784  15.631 -0.8117 -1.3394 -1.8109
15742TIP3   OH268716   2.021   0.774  17.144 -0.3996  0.7187 -0.4652
15742TIP3    H168717   2.078   0.722  17.200 -2.9800 -0.5976  1.1420
15742TIP3    H268718   1.947   0.716  17.125 -1.7914  2.6928 -1.4411
15743TIP3   OH268719   6.729   5.225   2.907  0.1750  0.1017 -0.0502
15743TIP3    H168720   6.784   5.266   2.973 -0.5990 -1.3997  1.6164
15743TIP3    H268721   6.777   5.146   2.881 -0.7290 -0.7430  0.7568
15744TIP3   OH268722   0.191   6.730  11.577 -0.0260  0.3683  0.2499
15744TIP3    H168723   0.128   6.795  11.608  1.1968  0.4837  2.7571
15744TIP3    H268724   0.248   6.778  11.518 -1.5474  0.5379 -1.1352
15745TIP3   OH268725   6.405   0.888   1.989 -0.0397 -0.1022  0.6556
15745TIP3    H168726   6.447   0.891   1.903  1.1854 -0.0373  1.2274
15745TIP3    H268727   6.335   0.823   1.980  0.6748 -0.7874 -0.1294
15746TIP3   OH268728   1.882   4.157   4.259 -0.4452 -0.4932  0.1369
15746TIP3    H168729   1.810   4.131   4.317  0.5759 -1.7709  0.8809
15746TIP3    H268730   1.847   4.144   4.171 -1.9385  1.2361  0.4067
15747TIP3   OH268731   4.391   6.099  10.950  0.3619 -0.1159  0.5457
15747TIP3    H168732   4.328   6.155  10.905 -1.1230 -0.1102  2.5098
15747TIP3    H268733   4.400   6.023  10.892 -0.4069  0.4958 -0.4155
15748TIP3   OH268734   6.235   3.093  11.367 -0.1244  0.1250 -0.0179
15748TIP3    H168735   6.237   3.174  11.418 -2.5721  0.5235 -0.4827
15748TIP3    H268736   6.217   3.120  11.278 -0.9714 -0.9153 -0.1824
15749TIP3   OH268737   4.015   6.346   0.811 -0.1385 -0.1958 -0.3867
15749TIP3    H168738   4.041   6.267   0.859 -3.5753 -0.6211  1.0629
15749TIP3    H268739   3.996   6.314   0.722 -2.5817 -1.3563  0.4727
15750TIP3   OH268740   3.267   1.087  12.778 -0.0139  0.0410 -0.4532
15750TIP3    H168741   3.218   1.018  12.734  0.3269  0.0065 -0.7859
15750TIP3    H268742   3.252   1.072  12.872  1.8550 -1.8377 -0.3985
15751TIP3   OH268743   6.006   5.464   0.128  0.0238  0.3395  0.1526
15751TIP3    H168744   6.043   5.467   0.040 -1.9253 -1.4422 -0.8057
15751TIP3    H268745   6.080   5.442   0.184  0.9725 -0.3064 -1.2879
15752TIP3   OH268746   5.705   1.575  13.547  0.7551 -0.0609  0.1038
15752TIP3    H168747   5.700   1.541  13.458 -1.3474 -1.0478  0.5264
15752TIP3    H268748   5.758   1.510  13.594 -0.4558 -1.0593  0.1545
15753TIP3   OH268749   2.520   5.768  16.316  0.1750  0.1729 -0.0240
15753TIP3    H168750   2.539   5.849  16.364 -0.0596 -0.0894  0.5282
15753TIP3    H268751   2.601   5.718  16.320  0.2182  0.2382 -0.0807
15754TIP3   OH268752   6.540   1.906  14.943  0.2391 -0.0227  0.1091
15754TIP3    H168753   6.444   1.904  14.945  0.2222  0.9197  0.5115
15754TIP3    H268754   6.566   1.828  14.991 -0.3212 -0.5199 -0.3635
15755TIP3   OH268755   2.051   3.430   3.869 -0.0104  0.0250 -0.2702
15755TIP3    H168756   1.976   3.376   3.891  2.2430 -2.9419  0.8380
15755TIP3    H268757   2.076   3.472   3.951 -0.8942  1.7262 -0.8252
15756TIP3   OH268758   5.814   0.139  16.628  0.2639 -0.0381 -0.2982
15756TIP3    H168759   5.758   0.184  16.691  0.1338  2.1911 -1.8750
15756TIP3    H268760   5.760   0.131  16.549  1.2697 -0.3403 -0.9756
15757TIP3   OH268761   4.000   3.320  12.332 -0.0126 -0.7254  0.1570
15757TIP3    H168762   3.931   3.351  12.390  0.2287 -0.4172  0.2873
15757TIP3    H268763   4.074   3.303  12.390  0.2619 -0.3271 -0.0658
15758TIP3   OH268764   1.224   5.059  14.519 -0.4011  0.2590  0.5321
15758TIP3    H168765   1.177   5.073  14.437 -1.5226  0.6779  1.2244
15758TIP3    H268766   1.231   4.964  14.528  1.8713  0.1751 -1.2055
15759TIP3   OH268767   1.436   5.982   3.047  0.1622 -0.2603 -0.8856
15759TIP3    H168768   1.448   5.887   3.034 -0.3429 -0.6526  1.1321
15759TIP3    H268769   1.524   6.018   3.044  0.4990 -1.0128 -0.3439
15760TIP3   OH268770   1.559   2.729  16.309  0.7300 -0.3969 -0.4018
15760TIP3    H168771   1.609   2.746  16.229  1.6073 -0.4553  0.1314
15760TIP3    H268772   1.625   2.711  16.376 -0.0185 -1.2021  0.1475
15761TIP3   OH268773   4.435   6.542  14.867  0.3880  0.1260  0.0771
15761TIP3    H168774   4.497   6.569  14.799  0.1133 -0.0776 -0.2578
15761TIP3    H268775   4.375   6.616  14.876  2.0236  1.2952  2.0500
15762TIP3   OH268776   4.388   2.410   2.669 -0.8645 -0.0075  0.1078
15762TIP3    H168777   4.463   2.439   2.618  0.8951 -0.7277  2.1664
15762TIP3    H268778   4.324   2.481   2.660  0.7754  1.4870 -0.2345
15763TIP3   OH268779   6.166   0.390  11.688  0.3783 -0.1308 -0.8141
15763TIP3    H168780   6.214   0.433  11.617  1.0622 -0.6915 -0.6976
15763TIP3    H268781   6.115   0.461  11.728  0.3280  0.2764 -1.5758
15764TIP3   OH268782   5.431   0.322  15.389  0.3788 -0.8157  0.0562
15764TIP3    H168783   5.513   0.352  15.428  0.6238 -1.1820 -0.1671
15764TIP3    H268784   5.455   0.242  15.342 -0.1114 -0.9340  0.0029
15765TIP3   OH268785   3.214   2.712  14.441  0.0799 -0.0706 -0.4268
15765TIP3    H168786   3.260   2.664  14.510 -0.8653 -0.0727  0.2188
15765TIP3    H268787   3.215   2.803  14.469 -1.8154 -0.2774  0.5238
15766TIP3   OH268788   6.557   5.113  15.539  0.0892 -0.3318 -0.2208
15766TIP3    H168789   6.489   5.047  15.550 -0.1483 -0.0733 -0.1504
15766TIP3    H268790   6.567   5.122  15.444  0.5694 -0.9287 -0.2331
15767TIP3   OH268791   1.615   6.585   3.668  0.2226  0.6215  0.3677
15767TIP3    H168792   1.549   6.653   3.655 -0.1720  0.1247 -0.3092
15767TIP3    H268793   1.592   6.545   3.752 -0.1430  0.6662  0.2888
15768TIP3   OH268794   2.165   0.623   0.345  0.4152 -0.6450  0.5842
15768TIP3    H168795   2.158   0.669   0.429  1.3852 -0.5268  0.6144
15768TIP3    H268796   2.175   0.531   0.370  1.3767 -0.5374  0.6371
15769TIP3   OH268797   3.253   4.297  17.473  0.4412  0.0453 -0.7901
15769TIP3    H168798   3.300   4.331  17.398 -1.3434 -0.2103 -2.1057
15769TIP3    H268799   3.264   4.363  17.541 -0.8786  2.1401 -2.4606
15770TIP3   OH268800   2.056   0.700  12.297  0.2585  0.1476 -0.4018
15770TIP3    H168801   2.124   0.763  12.321 -0.4249  0.7194  0.0668
15770TIP3    H268802   2.085   0.664  12.213  0.7190  0.9988 -0.6202
15771TIP3   OH268803   0.209   4.313   3.066 -0.5049  0.3761 -0.4107
15771TIP3    H168804   0.146   4.314   3.138  1.0266  0.2398  1.0012
15771TIP3    H268805   0.196   4.228   3.024  0.2488 -0.6487  1.3186
15772TIP3   OH268806   2.470   1.874   2.442  0.3341  0.3265  0.2828
15772TIP3    H168807   2.419   1.865   2.361  0.4457  0.5181  0.1920
15772TIP3    H268808   2.476   1.968   2.457 -0.0829  0.2809  0.7662
15773TIP3   OH268809   4.339   2.359   0.216 -0.4019  0.5440 -0.2565
15773TIP3    H168810   4.386   2.350   0.299 -0.4827 -1.2678 -0.3704
15773TIP3    H268811   4.259   2.307   0.227  0.9906 -2.4172 -2.4140
15774TIP3   OH268812   0.010   2.806  16.172 -0.3123  0.5063 -0.0886
15774TIP3    H168813   0.028   2.899  16.157 -2.2609  0.9444 -0.0839
15774TIP3    H268814   0.029   2.764  16.088  2.4432  0.5229  0.4343
15775TIP3   OH268815   1.078   2.053   3.856 -0.0544 -0.1391 -0.0275
15775TIP3    H168816   1.022   2.031   3.782  0.7345 -0.4826 -0.5351
15775TIP3    H268817   1.053   2.143   3.879 -1.1584 -0.4593  0.0934
15776TIP3   OH268818   3.344   5.676  11.535  0.2340 -0.1833 -0.1722
15776TIP3    H168819   3.392   5.670  11.618  1.9824 -2.2272 -1.2523
15776TIP3    H268820   3.291   5.596  11.532  0.1929 -0.1321 -1.0249
15777TIP3   OH268821   0.185   6.016  12.478 -0.4466  0.1983 -0.2354
15777TIP3    H168822   0.209   5.936  12.524 -0.7664  0.4330  0.3601
15777TIP3    H268823   0.145   5.986  12.396 -0.4079 -0.2429 -0.0940
15778TIP3   OH268824   6.529   0.245   4.068  0.0902 -0.9924  0.3318
15778TIP3    H168825   6.493   0.261   4.155  1.4471  0.3283  0.6942
15778TIP3    H268826   6.528   0.330   4.026  1.5454 -1.1687 -0.1058
15779TIP3   OH268827   3.594   0.802  16.778  0.5445  0.3275 -0.3424
15779TIP3    H168828   3.588   0.752  16.859  1.1309  1.6125  0.5202
15779TIP3    H268829   3.569   0.740  16.710 -0.7146 -0.5619  0.8849
15780TIP3   OH268830   1.908   1.878  10.638  0.5894  0.3270 -0.0183
15780TIP3    H168831   1.941   1.802  10.591  0.2067  0.3645 -0.3537
15780TIP3    H268832   1.827   1.847  10.680  1.3695  0.0461  1.3462
15781TIP3   OH268833   1.607   0.247   3.384 -0.2318  0.0801 -0.2225
15781TIP3    H168834   1.591   0.165   3.338 -0.0130  0.2810 -0.6586
15781TIP3    H268835   1.564   0.235   3.469  2.6328 -1.8381  1.1397
15782TIP3   OH268836   3.052   4.924  15.537 -0.5154  0.6522 -0.8185
15782TIP3    H168837   2.956   4.920  15.529 -0.5210  0.0001 -0.4849
15782TIP3    H268838   3.083   4.853  15.481 -0.2904 -0.0734  0.2110
15783TIP3   OH268839   0.295   6.572  10.713  0.1088  0.1702  0.2264
15783TIP3    H168840   0.218   6.526  10.680  0.6778 -0.6306 -0.0443
15783TIP3    H268841   0.268   6.663  10.720 -1.3768 -0.3538  1.7638
15784TIP3   OH268842   0.364   6.591   5.617 -0.0880  0.0981 -0.0299
15784TIP3    H168843   0.337   6.604   5.526 -1.6699  0.2917  0.4364
15784TIP3    H268844   0.282   6.590   5.666  0.7438  0.0407  1.4074
15785TIP3   OH268845   4.278   3.632   2.288 -0.1007 -0.0008  0.1252
15785TIP3    H168846   4.290   3.541   2.260  0.5955  0.1143  0.0124
15785TIP3    H268847   4.276   3.628   2.384  1.7246  0.0345  0.2004
15786TIP3   OH268848   6.468   0.266   4.834  0.1363  0.1024 -0.5406
15786TIP3    H168849   6.516   0.223   4.905 -0.7838  0.7048  0.4820
15786TIP3    H268850   6.379   0.277   4.869 -0.7493 -0.8844 -2.3350
15787TIP3   OH268851   3.029   2.613   4.786 -0.5735  0.1781  0.4065
15787TIP3    H168852   3.104   2.574   4.832 -0.3172  1.0311  0.7317
15787TIP3    H268853   2.952   2.577   4.829 -0.3627 -0.8784 -0.0709
15788TIP3   OH268854   0.713   6.252   1.802 -0.4756 -0.1200 -0.2926
15788TIP3    H168855   0.655   6.245   1.725 -0.4451 -0.6346 -0.2766
15788TIP3    H268856   0.800   6.236   1.767 -0.5818 -1.5530  0.0181
15789TIP3   OH268857   6.498   3.928   1.735  0.0702  0.1009  0.3869
15789TIP3    H168858   6.535   3.840   1.734 -0.2388 -0.0234  0.0119
15789TIP3    H268859   6.565   3.982   1.692  1.5562  0.5809  3.0634
15790TIP3   OH268860   6.257   4.686  16.658  0.2452 -0.4659  0.5781
15790TIP3    H168861   6.199   4.681  16.733 -1.6429  1.5727 -0.6149
15790TIP3    H268862   6.270   4.780  16.644  0.5752 -0.7787 -1.5898
15791TIP3   OH268863   5.971   6.099   1.362  0.5715  0.1385 -0.1000
15791TIP3    H168864   5.897   6.039   1.350  0.4164  0.2576  0.2610
15791TIP3    H268865   6.019   6.063   1.436  0.2151  0.7169  0.4220
15792TIP3   OH268866   3.502   1.566   6.287  0.2912  0.3836  0.5904
15792TIP3    H168867   3.560   1.498   6.321  1.8013  0.4713 -1.6055
15792TIP3    H268868   3.561   1.629   6.245 -1.3564  0.5777 -1.5886
15793TIP3   OH268869   3.416   1.307   6.487  0.2120  1.0254  0.3567
15793TIP3    H168870   3.334   1.274   6.452  0.7150 -1.4712  1.3701
15793TIP3    H268871   3.391   1.363   6.560 -0.5927  0.8115  0.2481
15794TIP3   OH268872   2.275   5.255  11.722  0.3098  0.1894 -0.0756
15794TIP3    H168873   2.198   5.204  11.699  0.8084 -1.2902  1.3640
15794TIP3    H268874   2.343   5.225  11.663  0.3885 -0.2471  0.2305
15795TIP3   OH268875   0.089   3.242  11.438 -0.5481 -0.3439 -0.5948
15795TIP3    H168876   0.130   3.229  11.524 -0.5091 -0.8068 -0.6801
15795TIP3    H268877   0.161   3.267  11.381 -0.8406  1.7518 -0.1198
15796TIP3   OH268878   6.085   4.110   3.579 -0.2812 -0.0192  0.2883
15796TIP3    H168879   6.092   4.201   3.608  0.1371  0.2192 -0.5594
15796TIP3    H268880   6.029   4.069   3.645  0.4870  0.5622  1.3226
15797TIP3   OH268881   0.835   0.528  14.229 -0.0160 -0.1241 -0.1998
15797TIP3    H168882   0.905   0.504  14.168  0.0259  1.5965 -0.8862
15797TIP3    H268883   0.772   0.457  14.222  0.5073 -0.5063 -1.4339
15798TIP3   OH268884   5.121   6.370   6.940  0.0595 -0.0852 -0.0706
15798TIP3    H168885   5.108   6.283   6.977 -0.3044  0.2412  0.5759
15798TIP3    H268886   5.147   6.353   6.849  0.5105 -0.8792  0.1898
15799TIP3   OH268887   1.072   4.325   2.358 -0.4092  0.5450  0.4495
15799TIP3    H168888   1.033   4.399   2.313  0.4640  1.6663  1.4615
15799TIP3    H268889   1.023   4.249   2.327 -2.2696  1.6989  0.4469
15800TIP3   OH268890   5.396   0.039   1.820 -0.0656  0.3109  0.1465
15800TIP3    H168891   5.485   0.072   1.820 -0.0018  0.1861 -1.2500
15800TIP3    H268892   5.341   0.118   1.827  0.1183  0.6629 -1.7375
15801TIP3   OH268893   5.088   3.220  12.685  0.4175  0.3890 -0.2203
15801TIP3    H168894   5.168   3.233  12.736 -0.3444  0.4223  1.0133
15801TIP3    H268895   5.085   3.295  12.625  0.8247  0.9060  0.3898
15802TIP3   OH268896   0.767   2.313  13.730 -0.4296  0.4952 -0.0287
15802TIP3    H168897   0.757   2.325  13.636 -0.2568 -2.2359 -0.4888
15802TIP3    H268898   0.854   2.273  13.740 -0.8142 -0.1023  1.1563
15803TIP3   OH268899   0.325   5.001  15.772 -0.5512  0.0464 -0.0044
15803TIP3    H168900   0.297   5.089  15.796  0.0843 -0.2974  2.2486
15803TIP3    H268901   0.257   4.970  15.712 -1.3309  1.6818 -0.0197
15804TIP3   OH268902   6.750   6.503   5.008  0.8418  0.5792  0.5670
15804TIP3    H168903   6.783   6.590   4.989 -0.9602  1.0002 -0.9972
15804TIP3    H268904   6.800   6.445   4.952  0.2151  0.9818 -0.4356
15805TIP3   OH268905   5.990   0.073   4.120 -0.0210 -0.5395 -0.1876
15805TIP3    H168906   5.969   0.164   4.095  0.7094 -0.7449 -1.6916
15805TIP3    H268907   6.083   0.064   4.100  0.0187 -1.4870  0.3862
15806TIP3   OH268908   4.667   1.847   1.864 -0.5628  0.5400 -0.0907
15806TIP3    H168909   4.678   1.753   1.852  0.8626  0.5629  0.7965
15806TIP3    H268910   4.703   1.885   1.784 -0.5495  0.3597 -0.1719
15807TIP3   OH268911   5.116   6.529  12.759 -0.2483 -0.0752  0.0121
15807TIP3    H168912   5.031   6.554  12.796 -0.2919  0.4241 -0.4097
15807TIP3    H268913   5.095   6.499  12.670 -0.4448 -3.3917  1.0298
15808TIP3   OH268914   5.980   5.032   1.623  0.2112  0.4254  0.6466
15808TIP3    H168915   5.970   5.120   1.587 -0.0992  0.5041  0.9166
15808TIP3    H268916   6.002   5.046   1.715 -1.1020  0.2348  1.0172
15809TIP3   OH268917   1.338   3.931  17.251  0.1723 -0.0603  0.2000
15809TIP3    H168918   1.373   3.843  17.237  0.5758 -0.2151  1.9718
15809TIP3    H268919   1.334   3.941  17.346 -0.0340  1.7769  0.0448
15810TIP3   OH268920   3.403   3.695   1.225  0.4044  0.3518 -0.1865
15810TIP3    H168921   3.392   3.608   1.263 -1.9231  1.8762  3.2011
15810TIP3    H268922   3.497   3.712   1.231  1.0202 -2.0792 -1.5467
15811TIP3   OH268923   5.850   0.533  13.984  0.0960  0.1035  0.2198
15811TIP3    H168924   5.900   0.454  14.006  1.7051  0.9601 -0.2314
15811TIP3    H268925   5.781   0.502  13.925  1.4156 -0.8270 -0.8911
15812TIP3   OH268926   4.136   4.170   6.444 -0.1885  0.2437 -0.4110
15812TIP3    H168927   4.105   4.208   6.362  0.5780 -0.4944 -1.0637
15812TIP3    H268928   4.232   4.171   6.436 -0.0943  0.5088  0.6405
15813TIP3   OH268929   0.151   0.478  10.663 -0.5583 -0.8139 -0.1333
15813TIP3    H168930   0.246   0.469  10.669 -0.4416 -0.8867 -1.6410
15813TIP3    H268931   0.129   0.443  10.576 -1.9398 -0.6117  0.1070
15814TIP3   OH268932   2.961   6.253   6.129  0.1507  0.4749  0.1065
15814TIP3    H168933   3.026   6.248   6.198 -0.4548  0.2864  0.6699
15814TIP3    H268934   2.961   6.166   6.089  0.0207  0.3779  0.3161
15815TIP3   OH268935   1.530   1.751  13.992  0.2579 -0.5076  1.0424
15815TIP3    H168936   1.522   1.837  13.950  2.0841 -0.4897  0.6366
15815TIP3    H268937   1.589   1.767  14.066  0.0290 -1.2768  1.3936
15816TIP3   OH268938   0.025   1.640   1.999  0.3186 -0.3909  0.3106
15816TIP3    H168939  -0.004   1.697   1.928  0.0404 -0.6380  0.2239
15816TIP3    H268940  -0.049   1.638   2.060  0.1374 -1.0372  0.0808
15817TIP3   OH268941   3.098   6.309  13.676  0.2029  0.2612 -0.4268
15817TIP3    H168942   3.024   6.297  13.617 -0.7294 -2.1036  1.0552
15817TIP3    H268943   3.084   6.395  13.716  0.4054  1.5254 -2.8949
15818TIP3   OH268944   4.848   5.404   2.204 -0.2919 -0.0691  0.5457
15818TIP3    H168945   4.879   5.459   2.276  0.2830  0.7642 -0.3098
15818TIP3    H268946   4.884   5.317   2.224 -1.7448 -0.3476  2.2434
15819TIP3   OH268947   5.823   3.640   0.864  0.5197 -0.8085 -0.1101
15819TIP3    H168948   5.795   3.649   0.773  0.5967  0.0851 -0.0537
15819TIP3    H268949   5.917   3.658   0.862  0.2893  0.5463  0.3240
15820TIP3   OH268950   3.284   0.641   6.543 -0.7457  0.4106 -0.1404
15820TIP3    H168951   3.291   0.630   6.448  0.5216  0.1108 -0.0271
15820TIP3    H268952   3.193   0.668   6.557 -0.9203  0.5777 -1.4452
15821TIP3   OH268953   2.738   6.714   2.813  0.5883  0.1576 -0.6156
15821TIP3    H168954   2.815   6.736   2.865 -0.2314  0.0700  0.6949
15821TIP3    H268955   2.769   6.651   2.748  1.5511 -0.0936  0.0695
15822TIP3   OH268956   2.722   3.953   5.575  0.1482  0.3759 -0.3076
15822TIP3    H168957   2.717   3.904   5.493 -0.5707  0.0657 -0.0825
15822TIP3    H268958   2.772   4.031   5.553  0.3196  0.0943 -0.9420
15823TIP3   OH268959   1.681   1.916   4.517 -0.2044  0.3707  0.2702
15823TIP3    H168960   1.640   1.999   4.541  3.0045  1.9737  0.8255
15823TIP3    H268961   1.640   1.892   4.433 -2.9069  1.1500  1.2619
15824TIP3   OH268962   1.825   1.148  14.661 -0.0031  0.1868 -0.0670
15824TIP3    H168963   1.876   1.178  14.585  1.5771  2.9557  1.9016
15824TIP3    H268964   1.749   1.207  14.663  0.4327  0.7267  0.9712
15825TIP3   OH268965   3.890   3.417  13.820 -0.0645  0.0788  0.4430
15825TIP3    H168966   3.826   3.410  13.750 -1.2991  0.0394  1.5275
15825TIP3    H268967   3.953   3.347  13.803  0.3113  0.7888 -1.2307
15826TIP3   OH268968   1.325   0.744  11.037 -0.1309 -0.1120  0.1096
15826TIP3    H168969   1.381   0.817  11.012  1.8844 -2.1630 -1.7918
15826TIP3    H268970   1.237   0.774  11.015  0.7576  1.2780 -1.9376
15827TIP3   OH268971   2.141   4.765  14.923  0.1425  0.1182 -0.0579
15827TIP3    H168972   2.072   4.811  14.875  1.0040  2.0859  0.5000
15827TIP3    H268973   2.110   4.764  15.014 -0.1948 -1.0859 -0.1713
15828TIP3   OH268974   6.340   4.262   3.789  0.0362 -0.1665  0.1376
15828TIP3    H168975   6.360   4.319   3.864  1.1633 -1.2098  0.6618
15828TIP3    H268976   6.260   4.216   3.815  0.4874 -0.6140  0.7715
15829TIP3   OH268977   0.295   3.165  11.223  0.1729 -0.2299 -0.3509
15829TIP3    H168978   0.322   3.090  11.275 -1.5183 -2.4868 -2.4960
15829TIP3    H268979   0.313   3.140  11.132  2.2806  3.2207 -1.0528
15830TIP3   OH268980   4.357   0.410   2.101  0.4736 -0.3499 -0.2140
15830TIP3    H168981   4.293   0.377   2.037  0.5759  0.1852 -0.5976
15830TIP3    H268982   4.406   0.476   2.053 -1.2868  2.1313  1.1610
15831TIP3   OH268983   0.859   4.299  14.624 -0.5461 -0.2225 -0.2590
15831TIP3    H168984   0.916   4.232  14.662 -0.0671  1.4801  2.2365
15831TIP3    H268985   0.842   4.267  14.535  0.3450 -3.1891  0.5016
15832TIP3   OH268986   0.172   1.252   1.441  0.1928  0.1790 -0.2926
15832TIP3    H168987   0.265   1.272   1.449 -0.0466  2.4425 -2.1790
15832TIP3    H268988   0.142   1.238   1.531  2.1464  0.3817  0.4208
15833TIP3   OH268989   3.532   2.249  16.078 -0.1280 -0.2146  1.1323
15833TIP3    H168990   3.627   2.255  16.073 -0.0908 -1.4482 -0.9089
15833TIP3    H268991   3.516   2.185  16.148  0.7663 -2.6256 -0.6956
15834TIP3   OH268992   4.100   4.094   1.744  0.0830  0.0429 -0.4995
15834TIP3    H168993   4.138   4.033   1.680 -0.6398 -1.9715  0.8739
15834TIP3    H268994   4.030   4.044   1.785 -0.3754  1.7462  0.9081
15835TIP3   OH268995   1.774   1.373   2.873 -0.0779 -0.5043  0.6727
15835TIP3    H168996   1.863   1.341   2.889  1.1994  1.4633 -1.7949
15835TIP3    H268997   1.725   1.346   2.950  2.4156 -2.4703  1.7241
15836TIP3   OH268998   5.178   0.178   6.060 -0.5479  0.2121  0.0458
15836TIP3    H168999   5.110   0.168   6.126 -0.4551 -1.3726 -0.0503
15836TIP3    H269000   5.257   0.142   6.101 -0.0578  0.9021 -0.2789
15837TIP3   OH269001   3.276   4.743   5.114 -0.0861  0.2872 -0.3054
15837TIP3    H169002   3.321   4.824   5.141 -0.7181  0.2824  0.8502
15837TIP3    H269003   3.347   4.680   5.100  0.3406  0.6342  0.2275
15838TIP3   OH269004   5.018   2.801   3.727 -0.0064  0.1684 -0.5771
15838TIP3    H169005   5.095   2.814   3.671 -0.3354 -0.8551 -1.2874
15838TIP3    H269006   5.026   2.711   3.758  0.7819  1.0423  1.9936
15839TIP3   OH269007   4.284   5.502  13.758  0.1475 -0.0668 -0.3950
15839TIP3    H169008   4.372   5.475  13.785 -0.4425 -0.7030  1.0324
15839TIP3    H269009   4.260   5.440  13.689  1.3135  0.9600 -1.7850
15840TIP3   OH269010   5.965   4.797  13.323  0.2213 -0.1796 -0.1597
15840TIP3    H169011   6.044   4.834  13.363  0.8327 -0.3289 -1.1932
15840TIP3    H269012   5.896   4.860  13.344  0.5470 -0.1855  0.9942
15841TIP3   OH269013   5.478   5.919   5.072 -0.8056  0.0863 -0.4428
15841TIP3    H169014   5.506   5.956   5.156  0.5558 -0.7731 -0.4868
15841TIP3    H269015   5.463   5.996   5.017 -1.0925  0.6457  0.3924
15842TIP3   OH269016   3.962   1.579   0.491  0.5812  0.1038  0.0654
15842TIP3    H169017   3.973   1.503   0.433 -0.4714  0.5820 -0.8049
15842TIP3    H269018   3.913   1.545   0.566 -2.0200  0.3554 -1.4189
15843TIP3   OH269019   4.770   4.771  13.170  0.3223  0.4230  0.2623
15843TIP3    H169020   4.830   4.775  13.244 -0.1383 -1.5623  0.8102
15843TIP3    H269021   4.811   4.826  13.103  1.0306  1.8166  1.7596
15844TIP3   OH269022   0.494   6.309  12.777 -0.5771  0.0463 -1.0635
15844TIP3    H169023   0.525   6.309  12.868 -4.6221 -0.6757  0.5474
15844TIP3    H269024   0.564   6.268  12.727  1.6547  0.1113  1.7553
15845TIP3   OH269025   6.495   6.663  15.714 -0.5894  0.5234 -0.7736
15845TIP3    H169026   6.527   6.745  15.678  2.5198 -0.2870 -0.1286
15845TIP3    H269027   6.498   6.675  15.809 -2.5430  0.4387 -0.6429
15846TIP3   OH269028   2.966   1.674  16.582  0.1495 -0.1404 -0.1807
15846TIP3    H169029   2.959   1.749  16.522 -1.5176 -0.1392 -0.0163
15846TIP3    H269030   3.059   1.649  16.578  0.4399  1.0179 -1.3420
15847TIP3   OH269031   3.099   2.957   1.010 -0.8003 -0.1035  0.4829
15847TIP3    H169032   3.141   3.004   0.938  0.0161 -1.0718  0.3057
15847TIP3    H269033   3.103   3.018   1.084 -0.3555  0.3559  0.0892
15848TIP3   OH269034   6.195   3.073  12.258 -0.0610  0.4154  0.1727
15848TIP3    H169035   6.142   3.151  12.270 -1.3327 -0.0204 -2.0010
15848TIP3    H269036   6.196   3.030  12.344 -0.8656  1.8726  0.9390
15849TIP3   OH269037   1.967   1.549   4.565  1.1170 -0.0764 -0.0415
15849TIP3    H169038   1.941   1.638   4.592  0.1285 -0.6387  0.9674
15849TIP3    H269039   1.941   1.544   4.473  1.6011  0.8302 -0.2431
15850TIP3   OH269040   0.719   6.434   4.377 -0.2364  0.1871 -0.4840
15850TIP3    H169041   0.743   6.341   4.373  0.0467  0.2846 -1.4607
15850TIP3    H269042   0.779   6.476   4.315 -0.2488  1.0530  0.0737
15851TIP3   OH269043   6.494   1.411   0.344 -0.0333 -0.1819 -0.3864
15851TIP3    H169044   6.401   1.413   0.326  0.1449  1.8319 -1.2792
15851TIP3    H269045   6.502   1.361   0.426 -1.8574 -0.3946 -0.3132
15852TIP3   OH269046   5.366   1.500  15.400  0.4226 -0.6301  0.4955
15852TIP3    H169047   5.427   1.571  15.377  1.9389 -1.8731  0.5468
15852TIP3    H269048   5.363   1.502  15.496 -0.0399 -0.2382  0.4764
15853TIP3   OH269049   5.571   6.015  16.771 -0.5641 -0.7760  0.3028
15853TIP3    H169050   5.661   6.027  16.801 -1.1704  1.2533  1.4293
15853TIP3    H269051   5.555   5.921  16.782  0.4077 -0.7020  3.0686
15854TIP3   OH269052   4.024   5.341  15.130  0.2418 -0.3100  0.0482
15854TIP3    H169053   4.025   5.252  15.095  2.7013 -0.8327  1.2827
15854TIP3    H269054   4.109   5.352  15.173 -0.4549  2.2283  0.9818
15855TIP3   OH269055   3.454   1.989  14.366  0.0167  0.2571 -0.4568
15855TIP3    H169056   3.441   2.082  14.347  1.5802  0.5050 -0.4547
15855TIP3    H269057   3.415   1.977  14.453 -1.4788  0.5669 -1.0682
15856TIP3   OH269058   1.947   0.853  13.890  0.2851  0.0512 -0.2746
15856TIP3    H169059   1.898   0.786  13.939  0.3599 -0.1935 -0.5338
15856TIP3    H269060   2.010   0.803  13.838 -1.2328  0.1440 -2.3008
15857TIP3   OH269061   6.062   3.000  12.768  0.1330 -0.1955 -0.2527
15857TIP3    H169062   5.974   3.035  12.755  0.6159  0.2805 -2.9194
15857TIP3    H269063   6.118   3.078  12.771  0.6055 -0.5441 -0.0149
15858TIP3   OH269064   2.507   5.210   5.582 -0.2848 -0.1023  1.2151
15858TIP3    H169065   2.485   5.282   5.523  0.5240  0.1860  1.2494
15858TIP3    H269066   2.590   5.176   5.548 -0.0993 -0.3002  1.8583
15859TIP3   OH269067   0.363   6.162   4.635 -0.1346  0.0670  0.4000
15859TIP3    H169068   0.451   6.137   4.664  0.1391  0.2133 -0.2640
15859TIP3    H269069   0.377   6.242   4.584 -0.2153 -1.4646 -2.1964
15860TIP3   OH269070   0.289   3.077  15.601 -0.2171  0.0674  0.1951
15860TIP3    H169071   0.272   2.985  15.579  1.2864 -0.4172  0.9267
15860TIP3    H269072   0.255   3.126  15.526 -2.3838 -0.9479  0.4458
15861TIP3   OH269073   6.588   0.780   4.829 -0.3295  0.1607 -0.1384
15861TIP3    H169074   6.556   0.691   4.840 -1.4284  0.5803  0.2203
15861TIP3    H269075   6.666   0.771   4.774 -1.8038 -0.7898 -2.1791
15862TIP3   OH269076   5.498   0.164   1.415  0.3637 -0.0789 -0.7121
15862TIP3    H169077   5.537   0.196   1.496  0.9823 -2.1337 -0.1604
15862TIP3    H269078   5.428   0.227   1.395 -0.4263 -0.0369  1.9130
15863TIP3   OH269079   6.209   4.922   5.807 -0.1572 -0.4694 -0.1553
15863TIP3    H169080   6.251   4.836   5.805 -0.2605 -0.5973  1.6229
15863TIP3    H269081   6.223   4.953   5.897 -0.4622  1.2036 -0.6569
15864TIP3   OH269082   0.272   6.696  15.991 -0.2016 -0.7692  0.3222
15864TIP3    H169083   0.294   6.740  15.910 -0.3290  0.4026  0.9009
15864TIP3    H269084   0.316   6.748  16.059  0.6951 -2.2619  0.9443
15865TIP3   OH269085   5.017   1.839   1.331  0.3559  0.3734 -0.2427
15865TIP3    H169086   4.986   1.855   1.241  1.8882 -0.5632 -0.9705
15865TIP3    H269087   5.092   1.780   1.321 -0.0581 -0.5749  1.7431
15866TIP3   OH269088   4.041   4.398  15.924  0.4270  0.2344 -0.4082
15866TIP3    H169089   4.048   4.468  15.860 -0.7204  3.3335  2.5227
15866TIP3    H269090   4.129   4.391  15.962  0.3518  0.7673 -0.1206
15867TIP3   OH269091   3.404   0.648  16.202 -1.2441  0.7295 -0.0039
15867TIP3    H169092   3.390   0.608  16.116  0.8395  0.0887 -0.1054
15867TIP3    H269093   3.359   0.591  16.264 -2.7171  1.1660 -0.6232
15868TIP3   OH269094   5.901   3.007  14.085 -0.0937  0.1599 -0.4606
15868TIP3    H169095   5.876   3.099  14.073 -3.3373 -0.3774  0.9417
15868TIP3    H269096   5.821   2.958  14.067  1.5876 -2.4786 -1.3836
15869TIP3   OH269097   1.263   3.816   4.764  0.3069 -0.0058  0.1497
15869TIP3    H169098   1.357   3.833   4.774  0.4684  0.3790 -1.6891
15869TIP3    H269099   1.222   3.901   4.781  0.3395 -0.0285  0.3437
15870TIP3   OH269100   5.390   6.183   3.493 -0.1896  0.1427  0.1813
15870TIP3    H169101   5.325   6.184   3.563  2.0531 -1.2054  2.4449
15870TIP3    H269102   5.446   6.259   3.512  1.7009 -1.4204  1.2778
15871TIP3   OH269103   3.120   4.528   2.300  0.1077  0.6004 -0.3136
15871TIP3    H169104   3.137   4.500   2.210 -0.3614 -0.8686  0.0237
15871TIP3    H269105   3.188   4.485   2.351  1.0754  2.3410 -0.0629
15872TIP3   OH269106   4.160   6.674   5.246  0.0244  0.3748 -0.0834
15872TIP3    H169107   4.120   6.624   5.174  0.1448  1.7918 -1.1741
15872TIP3    H269108   4.223   6.732   5.203  0.0785  1.2749  1.1630
15873TIP3   OH269109   1.281   0.700  15.793  0.0927 -0.2626 -0.1822
15873TIP3    H169110   1.317   0.772  15.846 -1.2570 -0.5490  1.2018
15873TIP3    H269111   1.215   0.743  15.738 -0.0233 -0.2846 -0.0615
15874TIP3   OH269112   3.195   2.612  15.732  0.2764  0.0371 -0.5017
15874TIP3    H169113   3.145   2.569  15.662  0.9228 -0.0698 -0.9084
15874TIP3    H269114   3.280   2.630  15.692 -0.2801  2.6424 -0.7088
15875TIP3   OH269115   2.733   3.494   2.115 -0.5616 -0.3930 -0.3686
15875TIP3    H169116   2.817   3.528   2.084 -0.1688 -0.0359  0.9907
15875TIP3    H269117   2.752   3.404   2.143 -0.9103 -0.7170 -1.1567
15876TIP3   OH269118   2.384   1.858   5.857  0.3021 -0.2754  0.1343
15876TIP3    H169119   2.379   1.922   5.928 -0.9830  0.3373 -0.4597
15876TIP3    H269120   2.456   1.889   5.802 -0.8233  1.2122 -0.5973
15877TIP3   OH269121   1.052   6.589   4.480 -0.0243 -0.3077  0.3958
15877TIP3    H169122   0.972   6.610   4.529 -0.5374 -0.8253 -0.2009
15877TIP3    H269123   1.109   6.546   4.544 -0.5435 -0.6547  0.6319
15878TIP3   OH269124   1.842   2.659  15.752 -0.5634 -0.4216 -0.1093
15878TIP3    H169125   1.853   2.570  15.718  0.8094 -0.7201  0.9886
15878TIP3    H269126   1.767   2.694  15.705  0.1042 -1.4431 -2.0479
15879TIP3   OH269127   3.551   0.824  11.825  0.0053 -0.4179 -0.5821
15879TIP3    H169128   3.462   0.817  11.860  0.5692  1.8027  1.4856
15879TIP3    H269129   3.573   0.734  11.798 -1.7273 -1.6436  1.7182
15880TIP3   OH269130   4.245   6.351   4.526  1.3617  0.3179 -0.4272
15880TIP3    H169131   4.158   6.352   4.566  1.5650 -0.3695  0.0460
15880TIP3    H269132   4.302   6.317   4.594  1.9573  0.5006 -0.8312
15881TIP3   OH269133   3.726   4.766   1.386  0.1577 -0.1487 -0.4807
15881TIP3    H169134   3.761   4.784   1.473  1.1932 -0.9828 -0.6982
15881TIP3    H269135   3.670   4.689   1.399  1.2645 -1.0199 -0.7376
15882TIP3   OH269136   5.632   1.379  16.815 -0.2545  0.2436 -0.1087
15882TIP3    H169137   5.585   1.356  16.736 -0.0563 -0.6218  0.0182
15882TIP3    H269138   5.709   1.322  16.815 -0.2441  0.2460  0.6942
15883TIP3   OH269139   2.971   3.014   2.913 -0.4349  0.1281  0.0607
15883TIP3    H169140   2.966   2.954   2.988 -1.9314  0.2729  0.1005
15883TIP3    H269141   2.897   2.990   2.858  0.5815  0.1031 -1.3455
15884TIP3   OH269142   4.498   6.235   0.475 -0.8261  0.2606  0.5111
15884TIP3    H169143   4.440   6.166   0.442 -0.2403 -0.9185  1.8358
15884TIP3    H269144   4.523   6.285   0.397 -0.9852 -1.2529 -0.5580
15885TIP3   OH269145   3.934   3.934  15.133  0.1555 -0.1553  0.2169
15885TIP3    H169146   3.871   3.863  15.141  0.6558 -0.5875  0.4361
15885TIP3    H269147   3.986   3.911  15.056  0.7714 -0.4050  0.6966
15886TIP3   OH269148   3.899   2.385   4.953 -0.3585 -0.4322 -0.2149
15886TIP3    H169149   3.876   2.418   4.866 -0.4747  0.7749  0.2458
15886TIP3    H269150   3.992   2.365   4.948  0.2416  1.9601  0.0197
15887TIP3   OH269151   6.182   0.654   5.088  0.4815 -0.5369 -0.7319
15887TIP3    H169152   6.117   0.614   5.145 -0.7887  2.1525 -0.1005
15887TIP3    H269153   6.171   0.610   5.004  1.2224 -3.4053  0.5446
15888TIP3   OH269154   2.728   1.215   5.149 -0.2444 -0.2201  0.1605
15888TIP3    H169155   2.676   1.149   5.102  1.0777  0.6394 -2.7553
15888TIP3    H269156   2.664   1.274   5.187 -1.3997 -1.1802 -0.2329
15889TIP3   OH269157   3.285   4.926  15.848  0.2732  0.2150 -0.2762
15889TIP3    H169158   3.353   4.905  15.913  0.3505 -0.2694 -0.5068
15889TIP3    H269159   3.209   4.950  15.900 -0.6319 -3.0001  0.1289
15890TIP3   OH269160   3.044   0.587  15.341  0.0775  0.1473  0.7454
15890TIP3    H169161   3.002   0.558  15.423 -0.0721 -0.7457  0.3659
15890TIP3    H269162   3.136   0.563  15.352 -0.2721 -1.8209 -0.1129
15891TIP3   OH269163   5.418   3.487  14.484  0.0228  0.2699  0.5363
15891TIP3    H169164   5.378   3.402  14.465 -0.3523  1.0432 -2.8853
15891TIP3    H269165   5.383   3.513  14.569  0.3637 -3.0557  1.8081
15892TIP3   OH269166   4.009   3.103  10.855 -0.6764  0.0719  0.0766
15892TIP3    H169167   4.071   3.172  10.833 -0.3642 -0.3763 -0.4836
15892TIP3    H269168   3.928   3.150  10.878 -0.3020  0.6352  0.2666
15893TIP3   OH269169   1.698   2.912   2.041 -0.2617 -0.4330  0.0703
15893TIP3    H169170   1.649   2.832   2.024 -0.1220 -0.4498 -0.2700
15893TIP3    H269171   1.787   2.882   2.060 -0.6309 -0.4893  1.8985
15894TIP3   OH269172   4.786   0.837  13.971  0.1513  0.3453  0.4196
15894TIP3    H169173   4.790   0.823  13.877 -2.3553 -0.3184  0.3288
15894TIP3    H269174   4.772   0.931  13.980 -0.3133  0.3112  0.0857
15895TIP3   OH269175   2.993   6.322   3.807 -0.5192  0.7622 -0.1463
15895TIP3    H169176   3.062   6.289   3.865 -0.8099 -2.5666 -1.4911
15895TIP3    H269177   2.911   6.292   3.846 -0.7238 -1.4365 -2.0523
15896TIP3   OH269178   3.683   2.418   1.987  0.3076  0.6138  0.4735
15896TIP3    H169179   3.590   2.435   1.969  0.3689  1.4196  0.8551
15896TIP3    H269180   3.691   2.431   2.082  0.8960  0.9892  0.3757
15897TIP3   OH269181   6.657   0.753  16.876  0.0384  0.2632  0.8215
15897TIP3    H169182   6.622   0.790  16.795 -0.4670 -1.2253  0.3256
15897TIP3    H269183   6.580   0.717  16.920  0.6146 -0.9857  0.8391
15898TIP3   OH269184   1.815   4.113  17.337  0.1675  0.0510 -0.0641
15898TIP3    H169185   1.720   4.116  17.333  0.1375  0.4678  0.6597
15898TIP3    H269186   1.834   4.095  17.430  0.7962  0.8010 -0.0401
15899TIP3   OH269187   6.235   3.007  14.011  0.4541  0.0467  0.1295
15899TIP3    H169188   6.219   2.920  14.049 -0.8909 -0.7855 -2.1042
15899TIP3    H269189   6.327   3.005  13.983  0.5593 -0.4944  0.5063
15900TIP3   OH269190   1.083   0.399  13.180 -0.2299  0.6474  0.3473
15900TIP3    H169191   1.108   0.449  13.258  0.7771 -0.0611  0.4932
15900TIP3    H269192   1.138   0.321  13.182 -0.0970  0.6666 -1.1360
15901TIP3   OH269193   4.567   3.222   4.453  0.4810  0.0414  0.2842
15901TIP3    H169194   4.543   3.132   4.431  0.3362  0.3196 -0.7491
15901TIP3    H269195   4.498   3.276   4.414 -0.4959  0.5313  2.5145
15902TIP3   OH269196   4.820   2.573  12.655  0.3718 -0.0185  0.1516
15902TIP3    H169197   4.758   2.516  12.609 -0.2708  0.0876  0.8774
15902TIP3    H269198   4.800   2.561  12.748  0.1374  1.4603  0.3209
15903TIP3   OH269199   6.248   6.488  17.028  0.0378 -0.2819 -0.6300
15903TIP3    H169200   6.187   6.518  16.961 -1.1109 -0.1276  0.4560
15903TIP3    H269201   6.210   6.407  17.061 -0.0223  0.2295  0.6104
15904TIP3   OH269202   6.778   3.240  13.965 -0.5194 -0.0892  0.2357
15904TIP3    H169203   6.782   3.146  13.952  1.6184 -0.0042 -0.0767
15904TIP3    H269204   6.687   3.258  13.988 -1.1392 -2.1104 -0.4902
15905TIP3   OH269205   6.722   4.043   2.438  0.6154 -0.4846 -0.4058
15905TIP3    H169206   6.711   4.020   2.346  0.6029 -0.9491 -0.2898
15905TIP3    H269207   6.802   4.095   2.440 -0.5853  1.4787 -1.0076
15906TIP3   OH269208   0.698   4.489  17.504 -0.3963  0.6371 -0.0913
15906TIP3    H169209   0.606   4.474  17.482 -0.5720  1.7682 -0.1842
15906TIP3    H269210   0.712   4.440  17.585 -0.5896 -0.9939 -1.0097
15907TIP3   OH269211   0.120   1.289   5.451  0.4470  0.0278  0.1131
15907TIP3    H169212   0.176   1.326   5.519 -0.3623  0.6725  0.4499
15907TIP3    H269213   0.179   1.235   5.398  0.9122 -1.2303  1.8464
15908TIP3   OH269214   2.349   3.527  10.912 -0.3418  0.4799 -0.3229
15908TIP3    H169215   2.308   3.470  10.847  1.5840  0.7865 -1.9134
15908TIP3    H269216   2.301   3.610  10.904 -0.3583  0.4065 -1.1381
15909TIP3   OH269217   4.018   3.102  14.922 -0.4478 -0.3031 -0.2425
15909TIP3    H169218   4.089   3.039  14.939  1.2589  1.6477  0.3254
15909TIP3    H269219   4.022   3.117  14.827 -1.8060 -2.0469 -0.6104
15910TIP3   OH269220   0.437   1.402  16.447 -0.0374 -0.1028  0.0155
15910TIP3    H169221   0.382   1.467  16.402  0.3418 -0.7842 -1.4828
15910TIP3    H269222   0.457   1.443  16.532 -1.4828  0.8565 -0.0655
15911TIP3   OH269223   1.954   4.334  13.117 -0.0701  0.2945 -0.1225
15911TIP3    H169224   1.929   4.246  13.090 -1.5661  0.5263  0.4148
15911TIP3    H269225   2.024   4.320  13.182  0.0538 -0.4676 -0.4085
15912TIP3   OH269226   5.800   0.982   4.212  0.0784  0.0598  0.5855
15912TIP3    H169227   5.843   0.970   4.297  0.2835 -2.6050  0.1976
15912TIP3    H269228   5.779   0.893   4.184 -1.1936  0.9772 -1.5614
15913TIP3   OH269229   4.141   6.288   2.512 -0.5222  0.1501 -0.0731
15913TIP3    H169230   4.179   6.362   2.464  2.3973 -0.9935  0.3093
15913TIP3    H269231   4.193   6.213   2.487 -3.2219 -1.8124 -0.2050
15914TIP3   OH269232   0.617   5.722  14.016  0.3469 -0.6313  0.0810
15914TIP3    H169233   0.691   5.663  14.000  0.5000 -0.8887  1.5464
15914TIP3    H269234   0.622   5.786  13.945  2.5566 -0.1131  0.6216
15915TIP3   OH269235   6.205   6.632  10.426 -0.5167  0.5867 -0.4138
15915TIP3    H169236   6.193   6.678  10.343  0.9663 -1.4802 -1.9026
15915TIP3    H269237   6.234   6.699  10.487 -0.0349  1.9036 -2.0123
15916TIP3   OH269238   6.724   1.002   0.456  0.5556 -0.1079  0.1563
15916TIP3    H169239   6.648   0.953   0.486  0.4406  0.2108  0.3877
15916TIP3    H269240   6.799   0.948   0.480  0.3665 -0.9071 -0.9730
15917TIP3   OH269241   1.283   1.939   1.572 -0.3958  0.0263 -0.3604
15917TIP3    H169242   1.345   1.971   1.637  0.2380 -2.2132  0.2232
15917TIP3    H269243   1.335   1.928   1.492 -0.0496 -1.5208  0.0362
15918TIP3   OH269244   6.715   3.979  16.749 -0.6532 -0.5794  0.4216
15918TIP3    H169245   6.707   4.041  16.821  0.9632 -0.1487  0.2837
15918TIP3    H269246   6.638   3.994  16.694 -0.7136  0.7170  0.8335
15919TIP3   OH269247   6.271   6.248   3.130  0.0355  0.0073 -0.2528
15919TIP3    H169248   6.236   6.329   3.092  2.8147  1.0476 -0.8832
15919TIP3    H269249   6.276   6.187   3.056  0.5449  0.2270 -0.4012
15920TIP3   OH269250   1.198   3.058  16.755 -0.8304 -0.3366  0.2591
15920TIP3    H169251   1.283   3.100  16.740 -0.8853 -0.1647  0.4217
15920TIP3    H269252   1.140   3.100  16.691 -0.8928 -0.1391  0.4431
15921TIP3   OH269253   6.358   1.646  14.170 -0.4356  0.3781 -0.4348
15921TIP3    H169254   6.373   1.632  14.077 -3.5378  0.4479 -1.0783
15921TIP3    H269255   6.392   1.567  14.212 -0.8661 -0.6249 -1.8934
15922TIP3   OH269256   4.378   2.353   5.369 -0.0903  0.3967 -0.5503
15922TIP3    H169257   4.441   2.289   5.336  0.0510 -0.6766  1.6322
15922TIP3    H269258   4.431   2.417   5.416 -0.4537  0.6014 -0.4137
15923TIP3   OH269259   3.436   4.689   0.122  0.0625 -0.0911  0.4026
15923TIP3    H169260   3.522   4.648   0.134  0.7983  0.9549 -0.8896
15923TIP3    H269261   3.452   4.783   0.137  0.1410  0.7241 -3.5086
15924TIP3   OH269262   2.254   6.523  11.378  0.3188  0.2238  0.6534
15924TIP3    H169263   2.200   6.486  11.307  0.7186  0.5873  0.1511
15924TIP3    H269264   2.231   6.616  11.378  2.1475  0.7461 -0.7067
15925TIP3   OH269265   6.406   3.402   5.109  0.2216  0.5006  0.2814
15925TIP3    H169266   6.367   3.337   5.168  2.6575  0.7459  2.3434
15925TIP3    H269267   6.409   3.358   5.024 -0.3515 -1.2013  1.0991
15926TIP3   OH269268   4.972   1.314  15.116 -0.2778  0.4997  0.4519
15926TIP3    H169269   5.031   1.384  15.143 -0.4044  0.9818 -0.4927
15926TIP3    H269270   4.944   1.338  15.028 -0.4446 -0.6603  0.1718
15927TIP3   OH269271   5.452   3.935   4.257  0.2457 -0.2006  0.1924
15927TIP3    H169272   5.476   3.957   4.347  3.8256 -2.2397 -0.0740
15927TIP3    H269273   5.369   3.887   4.266 -0.1381  0.7312  2.2183
15928TIP3   OH269274   6.633   3.913  16.323 -0.0002  0.3212  0.2992
15928TIP3    H169275   6.679   3.904  16.240  0.4552  0.1953  0.5622
15928TIP3    H269276   6.571   3.840  16.325  0.3530  0.0209  0.3047
15929TIP3   OH269277   1.774   5.828   2.602  0.5902 -0.0296 -0.1572
15929TIP3    H169278   1.720   5.766   2.553  1.1267  1.3074 -2.6271
15929TIP3    H269279   1.864   5.799   2.587  0.7833  0.6352 -0.3348
15930TIP3   OH269280   1.342   2.249  17.078  0.4769 -0.3833 -0.2593
15930TIP3    H169281   1.284   2.312  17.121 -1.1129 -2.7084  1.2868
15930TIP3    H269282   1.422   2.249  17.131  0.7370  0.7038 -0.6265
15931TIP3   OH269283   0.868   0.729  14.691 -0.4744 -0.5932  0.2405
15931TIP3    H169284   0.954   0.688  14.677 -1.1088 -2.3242  1.1198
15931TIP3    H269285   0.805   0.664  14.661 -1.5182  0.1173  0.8229
15932TIP3   OH269286   3.693   6.081  12.351 -0.5269  0.6701 -0.3490
15932TIP3    H169287   3.661   6.110  12.266 -2.2484  0.5383  0.2119
15932TIP3    H269288   3.628   6.018  12.380  1.3924 -1.3147 -0.0758
15933TIP3   OH269289   6.429   3.224  14.779  0.0992 -0.4076  0.3925
15933TIP3    H169290   6.409   3.252  14.690 -1.0868 -0.4822  0.6243
15933TIP3    H269291   6.525   3.219  14.782  0.1186 -1.6180 -1.2569
15934TIP3   OH269292   2.446   4.324   3.793 -0.2770 -0.2864  0.0547
15934TIP3    H169293   2.503   4.250   3.810  1.3608  0.9744  0.3328
15934TIP3    H269294   2.421   4.315   3.701  2.7931  0.6345 -0.9863
15935TIP3   OH269295   5.496   3.073   2.147  0.6745  0.3934  0.2296
15935TIP3    H169296   5.430   3.031   2.201  1.2752 -1.0800 -0.1242
15935TIP3    H269297   5.571   3.013   2.150  0.6016  0.0442 -2.4769
15936TIP3   OH269298   5.942   1.793  13.886 -0.5716  0.0558  0.4367
15936TIP3    H169299   5.962   1.726  13.952 -0.1341 -1.3743 -1.0807
15936TIP3    H269300   5.847   1.794  13.881 -0.6166  0.3320  1.2270
15937TIP3   OH269301   0.113   4.890   0.497  0.0363 -0.5529  0.1963
15937TIP3    H169302   0.026   4.927   0.487 -0.4106 -1.7640 -0.4839
15937TIP3    H269303   0.124   4.831   0.423  2.4788  1.5040 -1.3043
15938TIP3   OH269304   4.140   0.516  13.872 -0.4836  0.3753  0.0596
15938TIP3    H169305   4.088   0.485  13.945  0.2392  2.4551  1.5455
15938TIP3    H269306   4.229   0.525  13.908  0.0167  0.8851 -1.2340
15939TIP3   OH269307   1.676   0.019   1.396 -0.0738  0.4440 -0.3539
15939TIP3    H169308   1.708   0.002   1.485 -0.9446  0.0195 -0.1032
15939TIP3    H269309   1.746  -0.011   1.339 -0.2026 -0.9318  0.1713
15940TIP3   OH269310   4.588   6.012  12.885  0.4453  0.0435 -0.2438
15940TIP3    H169311   4.537   5.932  12.894  0.2870  0.1267 -0.3810
15940TIP3    H269312   4.524   6.078  12.857  0.2912  0.5397  1.1722
15941TIP3   OH269313   3.165   4.388  14.336 -0.0052  0.0033 -0.0392
15941TIP3    H169314   3.203   4.303  14.358  1.6943  0.8053  0.3051
15941TIP3    H269315   3.170   4.438  14.417 -0.7176  0.5283 -0.3131
15942TIP3   OH269316   2.074   5.089  11.355  0.2046 -0.5245 -0.1409
15942TIP3    H169317   2.118   5.005  11.364  1.4147  0.0877 -0.1783
15942TIP3    H269318   2.092   5.117  11.266 -2.1700 -1.2694 -0.9302
15943TIP3   OH269319   0.077   0.839  16.643 -0.4718 -0.1220 -0.1717
15943TIP3    H169320   0.072   0.910  16.707  2.8395 -0.3601  0.5376
15943TIP3    H269321   0.142   0.869  16.579 -0.8702 -1.4963 -1.2710
15944TIP3   OH269322   4.878   0.053  13.444  0.2878  0.3822  0.1515
15944TIP3    H169323   4.806   0.046  13.382  0.9658 -1.4898 -0.4932
15944TIP3    H269324   4.885   0.147  13.463 -2.8090  0.5619  0.8736
15945TIP3   OH269325   3.755   5.950   3.555 -0.1987  0.2892 -0.4878
15945TIP3    H169326   3.753   6.043   3.578 -0.3756  0.5129 -1.3863
15945TIP3    H269327   3.690   5.941   3.485 -0.6795 -0.6445  0.0652
15946TIP3   OH269328   1.719   5.041   1.630  0.1581  0.7697 -0.0469
15946TIP3    H169329   1.656   5.018   1.697  1.7948  2.4400  2.2126
15946TIP3    H269330   1.667   5.077   1.558 -1.6779 -1.6167 -0.0288
15947TIP3   OH269331   4.920   1.277   2.695  0.1057 -0.2910  0.2336
15947TIP3    H169332   4.989   1.247   2.635 -0.2435 -1.2218  0.2770
15947TIP3    H269333   4.952   1.361   2.728  1.3491 -0.8206  0.4513
15948TIP3   OH269334   6.194   1.571  12.095 -0.0281  0.0255 -0.1898
15948TIP3    H169335   6.221   1.479  12.101  0.6446 -0.0143 -2.7496
15948TIP3    H269336   6.105   1.568  12.060 -0.6699  0.3581  1.3258
15949TIP3   OH269337   4.929   3.293  14.494  0.7898 -0.2269 -0.3693
15949TIP3    H169338   4.946   3.308  14.401  0.0027 -1.5218 -0.7484
15949TIP3    H269339   5.008   3.250  14.526  1.2908  0.7195 -0.2837
15950TIP3   OH269340   1.603   2.348  14.560 -0.0099  0.3989  0.4689
15950TIP3    H169341   1.544   2.377  14.490  0.8082 -1.4574 -1.0802
15950TIP3    H269342   1.576   2.258  14.579  1.7818 -0.2202  0.2794
15951TIP3   OH269343   6.326   4.934  12.083 -0.3096 -0.0576 -0.0193
15951TIP3    H169344   6.375   4.890  12.014  1.5338  0.3579  0.9532
15951TIP3    H269345   6.316   5.024  12.051  3.5711  1.1453  1.5005
15952TIP3   OH269346   6.682   2.264   1.501  0.5326  0.4773  0.1315
15952TIP3    H169347   6.755   2.229   1.450  1.4286  1.4692  0.6923
15952TIP3    H269348   6.636   2.187   1.534  0.7153 -0.1664 -1.0708
15953TIP3   OH269349   5.475   6.523  11.269  0.5165 -0.0173  0.5032
15953TIP3    H169350   5.432   6.462  11.328 -2.5666 -0.5418 -2.0254
15953TIP3    H269351   5.443   6.609  11.295 -0.6418 -0.2229 -0.1960
15954TIP3   OH269352   1.486   0.700   2.534 -0.1072  0.2838 -0.3155
15954TIP3    H169353   1.521   0.627   2.584 -0.6278  1.1165  1.3434
15954TIP3    H269354   1.562   0.756   2.517  0.2109 -0.3866 -1.1978
15955TIP3   OH269355   4.343   4.138   5.715 -0.6630  0.2462 -0.1766
15955TIP3    H169356   4.431   4.108   5.740 -0.7944 -0.3955 -0.4812
15955TIP3    H269357   4.294   4.058   5.698 -1.2473  0.6128 -0.2263
15956TIP3   OH269358   6.567   0.353  17.104  0.0688  0.1318 -0.0240
15956TIP3    H169359   6.500   0.353  17.173  1.5372 -0.5332  1.4577
15956TIP3    H269360   6.589   0.261  17.091  0.9077  0.3572 -0.2889
15957TIP3   OH269361   6.069   5.568   5.224 -0.1532 -0.2898  0.1322
15957TIP3    H169362   6.092   5.588   5.315 -0.5878  0.1550  0.1538
15957TIP3    H269363   6.152   5.564   5.178  0.1791 -1.8670  0.8000
15958TIP3   OH269364   5.833   3.118   6.437 -0.6881  0.3500 -0.1421
15958TIP3    H169365   5.852   3.079   6.522  3.1789  0.5673 -0.7268
15958TIP3    H269366   5.786   3.199   6.459  0.8928  0.8284  1.9577
15959TIP3   OH269367   2.725   5.125  15.923 -0.8228 -0.4851 -0.0612
15959TIP3    H169368   2.773   5.196  15.881 -0.6883 -1.2844 -1.3289
15959TIP3    H269369   2.745   5.134  16.016 -1.3043  1.4720 -0.1149
15960TIP3   OH269370   2.272   2.431   4.664 -0.2782 -0.1790 -0.3086
15960TIP3    H169371   2.297   2.385   4.744 -2.1473 -0.6383  0.0539
15960TIP3    H269372   2.352   2.432   4.611  0.5330 -1.4115  0.8324
15961TIP3   OH269373   2.488   0.151   5.395  0.7957  0.0686 -0.3422
15961TIP3    H169374   2.481   0.244   5.417 -1.2059  0.0608 -0.7338
15961TIP3    H269375   2.468   0.107   5.478  2.8413 -0.0740  0.1317
15962TIP3   OH269376   3.981   1.457   2.983 -0.0166  0.7208  0.0566
15962TIP3    H169377   4.040   1.413   3.044  2.3318  0.9737 -1.8946
15962TIP3    H269378   3.988   1.550   3.005  0.1564  0.7316 -0.0441
15963TIP3   OH269379   2.144   5.895  14.595 -0.7088 -0.1814 -0.0049
15963TIP3    H169380   2.111   5.907  14.684 -0.3473 -0.1210  0.1209
15963TIP3    H269381   2.217   5.833  14.604 -0.6474 -0.1489 -0.2556
15964TIP3   OH269382   5.496   0.534   5.953  0.0971  0.7861 -0.1065
15964TIP3    H169383   5.474   0.501   6.040 -0.2658 -1.0199 -0.8423
15964TIP3    H269384   5.441   0.612   5.943 -0.0365  0.8814  1.1780
15965TIP3   OH269385   3.551   2.913  11.507 -0.4397 -0.3283  0.2587
15965TIP3    H169386   3.580   2.999  11.477 -0.1467 -1.3670 -2.7638
15965TIP3    H269387   3.597   2.900  11.590 -0.6261  2.4591  0.8827
15966TIP3   OH269388   2.557   2.951  16.490 -0.7548  0.3149 -0.5197
15966TIP3    H169389   2.594   2.913  16.410 -0.1376 -0.9312  0.3215
15966TIP3    H269390   2.504   2.881  16.527 -0.2551  0.5355  0.6584
15967TIP3   OH269391   5.773   1.073  15.280 -1.2353 -0.0005  0.5214
15967TIP3    H169392   5.779   0.992  15.329 -1.0181  0.2642  0.9403
15967TIP3    H269393   5.780   1.047  15.188  0.0979 -0.3325  0.7045
15968TIP3   OH269394   1.423   1.383   1.933 -0.5837 -0.2220  0.0499
15968TIP3    H169395   1.358   1.446   1.903 -0.9977 -1.2606 -1.3570
15968TIP3    H269396   1.435   1.404   2.026 -1.0605  1.5752 -0.2541
15969TIP3   OH269397   0.224   2.472   3.902 -0.0458  0.0389  0.2188
15969TIP3    H169398   0.174   2.524   3.839 -0.1781 -0.6332 -0.2454
15969TIP3    H269399   0.264   2.403   3.849 -3.1524 -2.8472  1.2545
15970TIP3   OH269400   4.282   1.212   5.200 -0.5231 -0.1463  0.7137
15970TIP3    H169401   4.191   1.204   5.230 -0.2777  1.8328  2.1273
15970TIP3    H269402   4.335   1.188   5.275  0.1348 -0.0765  0.2805
15971TIP3   OH269403   5.817   4.268   0.761  0.4505 -0.2032 -0.4484
15971TIP3    H169404   5.894   4.289   0.815  0.9585 -0.3754 -1.0911
15971TIP3    H269405   5.753   4.234   0.823  1.5276 -1.7428 -0.1146
15972TIP3   OH269406   2.195   5.365   5.598  0.1618 -0.1292 -0.0569
15972TIP3    H169407   2.136   5.399   5.666 -0.6518 -0.1572 -0.7326
15972TIP3    H269408   2.206   5.272   5.621  1.4139  0.2732  1.0979
15973TIP3   OH269409   2.963   6.755   2.971 -0.0900  0.2868  0.2697
15973TIP3    H169410   2.972   6.702   3.050  0.0077 -1.1588 -0.6711
15973TIP3    H269411   3.035   6.726   2.915 -0.4978  0.8761 -0.5804
15974TIP3   OH269412   0.287   4.538  15.138  0.3856 -0.3163 -0.2384
15974TIP3    H169413   0.232   4.506  15.209  0.1941  0.1186 -0.1888
15974TIP3    H269414   0.343   4.604  15.180 -0.9698  1.2829 -0.8303
15975TIP3   OH269415   0.107   3.005  11.829 -0.4390  0.0927 -0.2196
15975TIP3    H169416   0.074   2.917  11.849 -0.7044  0.3772  0.6486
15975TIP3    H269417   0.187   3.013  11.881  0.0222  0.0749 -0.9170
15976TIP3   OH269418   0.717   1.993   5.774  0.3575 -0.3569 -0.1729
15976TIP3    H169419   0.730   2.026   5.863  1.4658 -0.5275 -0.2560
15976TIP3    H269420   0.718   1.898   5.784 -1.8766 -0.4206 -0.0644
15977TIP3   OH269421   0.831   3.065   0.303 -0.8087  0.1011  0.2210
15977TIP3    H169422   0.846   3.146   0.351  0.9601  1.7467 -2.7788
15977TIP3    H269423   0.772   3.089   0.231  0.2381 -1.0311 -1.0944
15978TIP3   OH269424   6.633   3.842  11.322 -0.4247  0.7909  0.0053
15978TIP3    H169425   6.718   3.864  11.360  0.7379 -1.5053 -1.0841
15978TIP3    H269426   6.650   3.837  11.228 -1.2075 -1.7520 -0.0652
15979TIP3   OH269427   0.434   2.966   3.305 -0.9978  0.1433  0.7139
15979TIP3    H169428   0.470   2.939   3.389  0.8426  0.3137  0.0242
15979TIP3    H269429   0.456   3.059   3.299 -2.1696  0.4266  0.5440
15980TIP3   OH269430   1.097   3.706  14.237  0.0035 -0.1376 -0.0366
15980TIP3    H169431   1.099   3.775  14.171 -1.1671  1.2240  1.3025
15980TIP3    H269432   1.062   3.748  14.315 -1.8540 -2.4970  0.5175
15981TIP3   OH269433   4.541   2.648  11.920 -0.0228 -0.2185 -0.0751
15981TIP3    H169434   4.575   2.638  11.831 -1.1288  0.0651 -0.5397
15981TIP3    H269435   4.526   2.742  11.930 -0.9296 -0.3680  0.0128
15982TIP3   OH269436   1.859   5.270   3.107 -0.8186  0.1869 -0.3230
15982TIP3    H169437   1.764   5.274   3.113 -0.9188  0.0323 -1.6462
15982TIP3    H269438   1.878   5.183   3.071 -0.1189 -0.1088  0.6861
15983TIP3   OH269439   2.220   3.323   3.116  0.4990  0.1903  0.0525
15983TIP3    H169440   2.150   3.384   3.093  0.4404  0.8388  1.7790
15983TIP3    H269441   2.270   3.368   3.183  1.8221 -0.7867 -0.2275
15984TIP3   OH269442   0.099   1.996   3.534 -0.2570 -0.3827 -0.2015
15984TIP3    H169443   0.083   1.948   3.615  0.4362 -0.4589 -0.1053
15984TIP3    H269444   0.023   1.977   3.479  0.1972 -1.9514 -0.3409
15985TIP3   OH269445   1.223   6.577   5.919  0.4448 -0.6569 -0.3192
15985TIP3    H169446   1.244   6.667   5.942 -1.4990 -0.0723 -0.6735
15985TIP3    H269447   1.233   6.528   6.001  1.2045 -0.0611 -0.0537
15986TIP3   OH269448   1.328   4.911   3.311 -0.0487  0.2570  0.0869
15986TIP3    H169449   1.267   4.980   3.338  0.3625  0.4228  0.5999
15986TIP3    H269450   1.407   4.928   3.361 -0.2282 -1.1036  0.8825
15987TIP3   OH269451   4.701   1.772  11.526  0.2671  0.1974 -0.1257
15987TIP3    H169452   4.727   1.836  11.593 -0.7996 -0.8449  1.3796
15987TIP3    H269453   4.607   1.758  11.543  0.0434 -0.3550 -1.6612
15988TIP3   OH269454   0.196   2.666  14.180 -0.3298  0.1245  0.2888
15988TIP3    H169455   0.183   2.666  14.085  0.2886  1.7592  0.1735
15988TIP3    H269456   0.276   2.615  14.193 -1.2440 -1.4235  0.1047
15989TIP3   OH269457   2.573   4.807  16.852  0.2220  0.6776  0.2416
15989TIP3    H169458   2.575   4.773  16.762  1.3925  1.7957 -0.1940
15989TIP3    H269459   2.646   4.869  16.855  0.6515  0.1188  2.2041
15990TIP3   OH269460   2.263   1.452   2.066 -0.6151 -0.2404  0.0076
15990TIP3    H169461   2.248   1.358   2.069 -0.6241 -0.2597  3.0092
15990TIP3    H269462   2.177   1.491   2.076 -0.6916  0.1590 -1.8718
15991TIP3   OH269463   2.016   0.484   6.020 -0.2050  0.3779 -0.2409
15991TIP3    H169464   2.096   0.536   6.009 -0.1141  0.3821  0.4227
15991TIP3    H269465   1.959   0.538   6.074 -1.4057  1.1674 -2.1951
15992TIP3   OH269466   5.538   0.337  13.299 -0.3415  0.2505 -0.2398
15992TIP3    H169467   5.604   0.289  13.248  1.4002  0.2503  1.8781
15992TIP3    H269468   5.481   0.268  13.334  1.5144 -0.3271  1.9050
15993TIP3   OH269469   2.830   6.339  17.252  0.1106  0.0600  0.5414
15993TIP3    H169470   2.847   6.303  17.165  0.0188  0.2813  0.4310
15993TIP3    H269471   2.809   6.263  17.306  0.5438 -0.1155  0.4618
15994TIP3   OH269472   4.710   3.607  16.674 -0.5365  0.4349  0.1751
15994TIP3    H169473   4.779   3.560  16.719  0.0898  0.7655 -0.4142
15994TIP3    H269474   4.630   3.558  16.694  0.2704 -1.8221 -1.6432
15995TIP3   OH269475   2.686   4.243   3.011  0.3800  0.4094 -0.1920
15995TIP3    H169476   2.617   4.177   3.023 -0.6467  1.4462 -0.2406
15995TIP3    H269477   2.756   4.196   2.966  0.1101 -0.9141  0.7005
15996TIP3   OH269478   3.452   1.166  13.194 -0.3196 -0.2655 -0.1448
15996TIP3    H169479   3.521   1.233  13.194 -0.5664  0.0916  2.5475
15996TIP3    H269480   3.497   1.086  13.224 -0.5553 -0.6786 -0.8789
15997TIP3   OH269481   5.928   5.374   5.067 -0.6952  0.7046  0.4408
15997TIP3    H169482   5.974   5.423   5.136  0.4351  1.9123 -1.0822
15997TIP3    H269483   5.907   5.290   5.108  0.6658  1.0535  2.0130
15998TIP3   OH269484   5.045   3.948  14.215  0.0080  0.2444  0.4562
15998TIP3    H169485   5.129   3.955  14.171  0.7051  1.4031  1.8985
15998TIP3    H269486   5.039   4.026  14.270 -1.4000 -0.4831  1.4160
15999TIP3   OH269487   5.543   0.175  17.060 -1.0567  0.1538 -0.5761
15999TIP3    H169488   5.522   0.257  17.106 -1.0187  0.2896 -0.7971
15999TIP3    H269489   5.468   0.119  17.076 -0.9530  0.1238 -0.1727
16000TIP3   OH269490   2.257   0.617   6.031  0.2487  0.4743  0.5245
16000TIP3    H169491   2.250   0.704   5.992 -0.0884  0.7745  1.2418
16000TIP3    H269492   2.269   0.634   6.124  0.9854 -0.2343  0.5636
16001TIP3   OH269493   3.153   0.535   5.210  0.0327 -0.3894 -0.9574
16001TIP3    H169494   3.113   0.616   5.240 -0.8870 -0.1415 -2.7400
16001TIP3    H269495   3.215   0.511   5.280 -0.7154  1.0603  0.2458
16002TIP3   OH269496   1.338   5.335   2.375  0.9422 -0.3263 -0.3487
16002TIP3    H169497   1.331   5.283   2.455  0.6729 -1.2701 -0.9631
16002TIP3    H269498   1.260   5.311   2.324  0.1274  1.6469 -0.1155
16003TIP3   OH269499   5.785   5.080  12.609 -0.0688  0.0530  0.3983
16003TIP3    H169500   5.706   5.110  12.562  0.8327  3.0952  0.6315
16003TIP3    H269501   5.856   5.093  12.546  0.3115 -2.9663  0.0762
16004TIP3   OH269502   3.751   3.752  15.269  0.2173  0.1499 -0.1496
16004TIP3    H169503   3.678   3.722  15.323  0.1183  2.6525  1.2846
16004TIP3    H269504   3.715   3.755  15.180 -0.9927  0.0122  0.3131
16005TIP3   OH269505   1.788   4.993  17.259 -0.5102 -0.3397  0.0872
16005TIP3    H169506   1.718   4.931  17.279 -0.1624 -0.7950 -0.0913
16005TIP3    H269507   1.818   4.969  17.171 -0.1296 -0.1506  0.1617
16006TIP3   OH269508   1.385   1.266  12.291 -0.3708  0.4093  0.2260
16006TIP3    H169509   1.424   1.345  12.328 -1.2806  1.3685 -0.8033
16006TIP3    H269510   1.347   1.294  12.207  0.5158 -1.4100 -0.8613
16007TIP3   OH269511   1.431   3.951   5.135  0.3046  0.3810  0.3865
16007TIP3    H169512   1.458   3.867   5.171 -0.3246  0.2675  0.6192
16007TIP3    H269513   1.423   3.935   5.041  1.0310  0.4207  0.3156
16008TIP3   OH269514   3.673   0.739   3.214 -0.0999  0.0432  0.0502
16008TIP3    H169515   3.680   0.835   3.208  0.3561  0.0451  0.5422
16008TIP3    H269516   3.583   0.723   3.240  0.0142  0.3747  0.6603
16009TIP3   OH269517   0.149   1.404  12.317 -0.2367  0.3027  0.4012
16009TIP3    H169518   0.091   1.480  12.315  0.9855  1.2932  0.9440
16009TIP3    H269519   0.225   1.434  12.366 -0.1213 -1.5827  1.4546
16010TIP3   OH269520   0.964   1.595  12.232 -0.2744  0.0663 -0.1269
16010TIP3    H169521   0.879   1.631  12.206 -0.1355  0.6231  0.1768
16010TIP3    H269522   0.943   1.536  12.305 -0.3790  0.3749  0.0982
16011TIP3   OH269523   3.349   1.035   2.413 -0.2417  0.0214 -0.2087
16011TIP3    H169524   3.345   0.963   2.350  1.3067  0.4862 -0.9036
16011TIP3    H269525   3.387   0.996   2.492  1.8675  0.2929 -1.0229
16012TIP3   OH269526   0.186   2.845  13.028  0.3961  0.2631 -0.0349
16012TIP3    H169527   0.131   2.800  12.964  1.0369 -1.8196  0.7816
16012TIP3    H269528   0.247   2.896  12.975 -1.3685  1.5201 -0.9738
16013TIP3   OH269529   4.633   3.222  14.185  0.1291  0.5240 -0.1326
16013TIP3    H169530   4.578   3.145  14.175 -0.9230  1.1661  0.3959
16013TIP3    H269531   4.647   3.255  14.096  3.0928 -1.8781 -0.7013
16014TIP3   OH269532   2.698   0.133   2.648  0.2106  0.1589  0.0221
16014TIP3    H169533   2.707   0.043   2.679 -0.0966 -1.0538 -3.1318
16014TIP3    H269534   2.638   0.173   2.712 -0.7323 -2.2436  0.7826
16015TIP3   OH269535   5.972   0.636  12.228  0.3918 -0.2944 -0.2138
16015TIP3    H169536   6.048   0.691  12.249  1.1471 -1.5114  0.3425
16015TIP3    H269537   5.897   0.688  12.255  0.8347  1.8557 -2.7012
16016TIP3   OH269538   4.403   1.743  11.528  0.1794  0.0595 -0.0360
16016TIP3    H169539   4.425   1.776  11.441 -0.8411  0.5212 -0.1326
16016TIP3    H269540   4.341   1.807  11.564  1.0719  0.2301  1.3031
16017TIP3   OH269541   0.473   4.069  17.058  0.4406  0.4817 -0.2625
16017TIP3    H169542   0.410   4.045  16.990 -0.0558  1.2375 -0.0800
16017TIP3    H269543   0.424   4.127  17.116  1.7117  2.2923 -0.9356
16018TIP3   OH269544   1.222   6.746  13.625  0.3501  0.2032 -0.9568
16018TIP3    H169545   1.178   6.698  13.696 -1.8320  1.9996 -1.0011
16018TIP3    H269546   1.284   6.803  13.670 -1.8023  2.1543 -0.2833
16019TIP3   OH269547   4.337   3.761   4.741  0.0454 -0.3666 -0.4960
16019TIP3    H169548   4.326   3.699   4.813 -3.1505 -0.5948 -1.0357
16019TIP3    H269549   4.407   3.723   4.687 -0.9960 -2.9431 -0.1887
16020TIP3   OH269550   3.351   0.507  15.202  0.0435 -0.0342 -0.2975
16020TIP3    H169551   3.402   0.569  15.150 -0.8794 -0.3596 -1.6262
16020TIP3    H269552   3.337   0.552  15.286  2.5918 -0.0014  0.1742
16021TIP3   OH269553   5.017   1.939  13.625 -0.5620 -0.3999 -0.5138
16021TIP3    H169554   5.076   1.864  13.623 -0.0954 -0.0246 -1.5652
16021TIP3    H269555   4.969   1.934  13.542  0.0838  0.9174 -1.0018
16022TIP3   OH269556   1.945   1.955  17.416 -0.1846  0.0653  0.0486
16022TIP3    H169557   1.920   2.018  17.483 -1.8448 -0.0725 -0.3981
16022TIP3    H269558   2.016   1.904  17.455 -0.6169  0.4739  1.3957
16023TIP3   OH269559   4.184   0.707   2.501 -0.6434  0.2774  0.2195
16023TIP3    H169560   4.248   0.647   2.540 -1.1004 -0.3705 -0.0185
16023TIP3    H269561   4.192   0.693   2.407  1.7167  3.0876 -0.1542
16024TIP3   OH269562   3.152   5.399   0.345  0.4339  0.2879  0.4634
16024TIP3    H169563   3.132   5.491   0.364 -2.4605  0.0769 -1.0175
16024TIP3    H269564   3.127   5.388   0.253  0.9286 -1.9559  0.5596
16025TIP3   OH269565   2.866   1.578   0.500 -1.0835 -0.2524  0.0303
16025TIP3    H169566   2.949   1.532   0.487 -0.8039  0.7140 -1.9889
16025TIP3    H269567   2.800   1.509   0.501 -0.4967 -0.8509 -1.0807
16026TIP3   OH269568   4.769   6.731  12.693 -0.1327  0.3095 -0.0442
16026TIP3    H169569   4.751   6.640  12.716  2.5182 -0.2400  0.1588
16026TIP3    H269570   4.748   6.780  12.772 -0.3077 -0.2841  0.2890
16027TIP3   OH269571   3.068   2.692   1.142  0.0972  0.1272 -0.9854
16027TIP3    H169572   3.097   2.774   1.104 -0.0596  0.3699 -0.5923
16027TIP3    H269573   3.106   2.691   1.230 -0.4065  0.0717 -0.7626
16028TIP3   OH269574   0.167   1.006  17.182  0.1864  0.3455 -0.0833
16028TIP3    H169575   0.259   0.998  17.158  0.2156  2.9926 -1.2278
16028TIP3    H269576   0.128   0.922  17.157  1.8177  0.0650 -1.9328
16029TIP3   OH269577   6.263   1.625  12.494  0.0687  0.7439  0.2165
16029TIP3    H169578   6.319   1.617  12.571  1.3206  0.5207 -0.6840
16029TIP3    H269579   6.317   1.592  12.421 -0.9146  1.3531 -0.8249
16030TIP3   OH269580   6.128   4.379   1.203 -0.1159 -0.3977 -0.0465
16030TIP3    H169581   6.048   4.421   1.233  0.2369  0.7113 -0.5978
16030TIP3    H269582   6.176   4.448   1.157 -0.4174 -1.8498 -2.7756
16031TIP3   OH269583   4.164   0.118  12.398 -0.0915  0.0706  0.6612
16031TIP3    H169584   4.189   0.027  12.382 -2.3447 -0.5194  0.1599
16031TIP3    H269585   4.128   0.118  12.487  0.9963  0.7639  1.1281
16032TIP3   OH269586   1.070   3.041  11.990 -0.2677 -0.2588  0.0131
16032TIP3    H169587   1.058   3.081  11.904 -0.3734 -0.5858 -0.1255
16032TIP3    H269588   1.010   2.966  11.991 -0.4200 -0.1368  0.4509
16033TIP3   OH269589   2.454   0.580  10.309  0.6761  0.0103 -0.6842
16033TIP3    H169590   2.493   0.652  10.359 -1.6430  1.2740 -0.5772
16033TIP3    H269591   2.464   0.503  10.366  1.0550  0.7458  0.2649
16034TIP3   OH269592   2.546   6.370  13.005 -0.1515 -0.4476 -0.0262
16034TIP3    H169593   2.539   6.465  13.011 -1.6689 -0.5642  0.6425
16034TIP3    H269594   2.635   6.354  12.976  0.2045  1.1713  0.0765
16035TIP3   OH269595   6.182   2.690   2.718  0.4159 -0.1229 -0.1889
16035TIP3    H169596   6.170   2.611   2.772 -1.4245  0.2412  0.0008
16035TIP3    H269597   6.099   2.737   2.727 -0.5098 -0.6244 -4.3007
16036TIP3   OH269598   3.202   2.869  15.538  0.2215 -0.7262 -0.2785
16036TIP3    H169599   3.123   2.818  15.557 -0.0115  0.4928  2.5396
16036TIP3    H269600   3.168   2.954  15.509  0.5384 -0.6993 -0.5714
16037TIP3   OH269601   1.619   0.786   4.111 -0.4550 -0.3712  0.3074
16037TIP3    H169602   1.618   0.725   4.184 -1.9097  1.0053  1.5121
16037TIP3    H269603   1.709   0.821   4.111  0.0729 -1.6594  0.2733
16038TIP3   OH269604   0.212   6.601  13.433  0.3435  0.8514 -0.6570
16038TIP3    H169605   0.157   6.576  13.358 -0.2353 -0.3127  0.1246
16038TIP3    H269606   0.289   6.642  13.394 -0.2900  0.9433 -1.8545
16039TIP3   OH269607   6.212   1.878   4.096 -0.2011  0.1106 -0.5514
16039TIP3    H169608   6.221   1.804   4.156  0.5300  0.1751 -0.5731
16039TIP3    H269609   6.291   1.876   4.043  0.2565  1.4046  0.0199
16040TIP3   OH269610   2.490   1.273  12.898 -0.2743 -0.0562  0.5569
16040TIP3    H169611   2.471   1.200  12.956 -3.7634 -0.6381 -1.0566
16040TIP3    H269612   2.522   1.232  12.817  0.1992  0.4127  0.4976
16041TIP3   OH269613   5.301   0.996  16.344  0.7456  0.5679 -0.3305
16041TIP3    H169614   5.374   1.059  16.340  0.4586  0.9577  0.3590
16041TIP3    H269615   5.342   0.911  16.330  1.5157  0.6760  1.0503
16042TIP3   OH269616   4.896   4.375   3.519 -0.3038  0.3470 -0.4042
16042TIP3    H169617   4.805   4.381   3.547 -0.4031  0.5588 -0.7673
16042TIP3    H269618   4.892   4.358   3.425 -0.0003 -1.8448 -0.0904
16043TIP3   OH269619   0.899   2.407  11.867  0.3448  0.0494 -0.1718
16043TIP3    H169620   0.878   2.419  11.960  1.0998  0.2005 -0.0113
16043TIP3    H269621   0.940   2.490  11.841 -0.4862  0.2653 -0.8219
16044TIP3   OH269622   4.078   5.141   2.376  0.0302 -0.7707  0.3295
16044TIP3    H169623   4.025   5.217   2.353 -1.0930 -1.5374  0.2946
16044TIP3    H269624   4.166   5.176   2.389 -0.0113  0.2227 -1.7047
16045TIP3   OH269625   2.724   1.933  11.407 -0.0304 -0.2924  0.2863
16045TIP3    H169626   2.647   1.900  11.361 -0.2691  0.2003  0.3247
16045TIP3    H269627   2.761   1.856  11.450 -0.6641 -0.4794  0.5054
16046TIP3   OH269628   4.027   5.407  11.800  0.1084  0.1383  0.1422
16046TIP3    H169629   4.106   5.461  11.802  0.8732 -0.8273 -1.7444
16046TIP3    H269630   4.052   5.329  11.752 -1.6387 -0.8364  0.7163
16047TIP3   OH269631   1.178   1.553  10.726  0.0699  0.3113  0.3714
16047TIP3    H169632   1.261   1.504  10.727  0.5924  1.1685 -0.1470
16047TIP3    H269633   1.163   1.573  10.634 -0.9956 -0.2733  0.3944
16048TIP3   OH269634   3.968   1.255   3.968 -0.0005  0.4612  0.0691
16048TIP3    H169635   4.015   1.309   4.032 -0.7490 -0.1971  1.2017
16048TIP3    H269636   4.023   1.177   3.959  0.9935  1.2932 -1.4392
16049TIP3   OH269637   3.003   3.048  12.864  0.6151 -0.2643  0.1844
16049TIP3    H169638   2.922   3.025  12.817  1.0593 -0.8379 -0.3060
16049TIP3    H269639   2.982   3.033  12.956  0.5595 -1.6752 -0.0353
16050TIP3   OH269640   5.782   6.433  13.927 -0.0516 -0.4295  0.1632
16050TIP3    H169641   5.744   6.356  13.970 -1.9172  0.2626 -0.1625
16050TIP3    H269642   5.855   6.398  13.876 -0.4700 -1.8912  0.5212
16051TIP3   OH269643   5.734   4.593   2.240  0.1447 -0.6895 -0.4331
16051TIP3    H169644   5.711   4.685   2.256  0.2457 -0.7524  0.0888
16051TIP3    H269645   5.807   4.576   2.299 -0.3815 -1.3292  0.0467
16052TIP3   OH269646   3.856   4.829  12.300  0.5130 -0.6410  0.1685
16052TIP3    H169647   3.873   4.901  12.240 -0.3815 -0.4478  0.1337
16052TIP3    H269648   3.905   4.852  12.379 -0.9432  0.7992  0.7217
16053TIP3   OH269649   4.771   2.448   5.212  0.4741 -0.2627  0.6776
16053TIP3    H169650   4.823   2.491   5.280  2.9616 -0.1963 -1.1305
16053TIP3    H269651   4.834   2.428   5.143 -1.7433 -1.2933 -1.1727
16054TIP3   OH269652   2.375   5.973  16.572  0.0527 -0.3182 -0.2089
16054TIP3    H169653   2.391   6.058  16.530  0.9778  0.5209  1.7280
16054TIP3    H269654   2.313   5.992  16.642  0.6375 -1.1435  0.5520
16055TIP3   OH269655   3.124   1.657   6.764 -0.4285  0.0622  0.0741
16055TIP3    H169656   3.081   1.683   6.846  0.1390 -1.3804  0.8698
16055TIP3    H269657   3.138   1.739   6.717  0.6103  1.1282  2.0972
16056TIP3   OH269658   4.497   1.081  11.606 -0.1276  0.6051 -0.2065
16056TIP3    H169659   4.590   1.102  11.613 -0.0447  0.2597 -0.2587
16056TIP3    H269660   4.471   1.057  11.695 -0.0700  0.3105 -0.2675
16057TIP3   OH269661   3.906   4.041   4.016  0.3557  0.0194 -0.1702
16057TIP3    H169662   3.984   4.021   3.965  1.3171  0.2164  1.1832
16057TIP3    H269663   3.857   4.102   3.961  0.8740 -0.5316 -1.2711
16058TIP3   OH269664   6.227   0.469   0.827 -0.1763  0.3233  0.1038
16058TIP3    H169665   6.185   0.383   0.835  1.3089 -0.5175 -0.6665
16058TIP3    H269666   6.162   0.530   0.860 -2.8470 -0.6601 -2.8454
16059TIP3   OH269667   4.014   2.170  14.880 -0.4210 -0.4240  0.2778
16059TIP3    H169668   4.107   2.158  14.860 -0.2484  1.3849 -0.1348
16059TIP3    H269669   3.991   2.094  14.934  0.9203 -1.6619 -0.7969
16060TIP3   OH269670   2.092   3.533   2.971 -1.3708  0.0195  0.0585
16060TIP3    H169671   2.034   3.558   3.043 -1.2522 -1.6029  0.7449
16060TIP3    H269672   2.067   3.591   2.899 -1.6965  1.4819  1.2896
16061TIP3   OH269673   0.507   1.073   0.390 -0.0900 -0.5972  0.0649
16061TIP3    H169674   0.435   1.011   0.375 -0.8634  0.4319 -0.5613
16061TIP3    H269675   0.585   1.026   0.360 -0.3401 -2.0597  1.5394
16062TIP3   OH269676   6.752   2.705  12.888 -0.0019  0.0714 -0.2286
16062TIP3    H169677   6.695   2.780  12.869  0.3039  0.3630 -0.0060
16062TIP3    H269678   6.701   2.651  12.948  0.2954  0.7877  0.7032
16063TIP3   OH269679   1.364   1.739  12.617  0.1899 -0.2220  0.2476
16063TIP3    H169680   1.288   1.694  12.579 -1.7428  1.9231  1.3462
16063TIP3    H269681   1.370   1.704  12.706 -1.1921  1.3745  1.0350
16064TIP3   OH269682   6.207   1.379   0.570 -0.0203 -0.3405  0.5657
16064TIP3    H169683   6.282   1.320   0.579 -2.0011 -3.0876  0.2842
16064TIP3    H269684   6.201   1.395   0.475  0.5779  0.4529  0.6514
16065TIP3   OH269685   0.650   0.301   3.839 -0.0459 -0.0747 -0.1242
16065TIP3    H169686   0.598   0.222   3.827  0.2236 -0.4865  1.1693
16065TIP3    H269687   0.706   0.281   3.914  1.7559  0.4675 -1.2628
16066TIP3   OH269688   2.448   4.717  17.075 -0.1573  0.3562  0.6574
16066TIP3    H169689   2.479   4.757  16.994  0.2373 -0.2270  0.5179
16066TIP3    H269690   2.474   4.779  17.144  0.7442  0.1952  0.4781
16067TIP3   OH269691   4.915   5.057  12.102  0.2364  0.3167 -0.1242
16067TIP3    H169692   4.870   5.137  12.074  2.5648  1.2047 -1.6978
16067TIP3    H269693   4.969   5.033  12.026 -0.4786 -2.8692  0.2512
16068TIP3   OH269694   5.479   6.688  12.500 -0.3088  0.1907  0.0637
16068TIP3    H169695   5.404   6.632  12.479 -0.7836  1.3757 -1.6469
16068TIP3    H269696   5.511   6.655  12.584 -2.3333 -0.7761  0.5209
16069TIP3   OH269697   2.479   1.420   5.879 -0.0389 -0.0655 -0.1351
16069TIP3    H169698   2.469   1.411   5.974  1.3379  0.7694  0.1300
16069TIP3    H269699   2.427   1.497   5.856 -0.6958 -0.5079 -0.1184
16070TIP3   OH269700   0.313   3.619  10.761 -0.1406  0.2034  0.0599
16070TIP3    H169701   0.326   3.674  10.684  1.6477  0.5957  0.5885
16070TIP3    H269702   0.294   3.681  10.831  2.3164  0.2942  0.7540
16071TIP3   OH269703   3.766   0.611   5.485 -0.0831 -0.5484  0.2647
16071TIP3    H169704   3.735   0.534   5.437  0.2652 -0.3526 -0.2939
16071TIP3    H269705   3.856   0.623   5.455 -0.2705  0.3180  0.0178
16072TIP3   OH269706   0.409   5.634  12.476  0.4680  0.5573 -0.3467
16072TIP3    H169707   0.442   5.589  12.554 -0.3074  0.8678  0.1761
16072TIP3    H269708   0.474   5.617  12.408  0.4504 -0.9014 -0.0129
16073TIP3   OH269709   4.889   0.895  12.069  0.1014 -0.6307 -0.2756
16073TIP3    H169710   4.842   0.959  12.015 -0.4227 -0.8516 -0.0922
16073TIP3    H269711   4.889   0.815  12.016  1.9133 -0.1598 -1.0819
16074TIP3   OH269712   0.802   6.649   3.030 -0.1073 -0.3528  0.3597
16074TIP3    H169713   0.838   6.733   3.059 -1.3352 -0.0164  0.9834
16074TIP3    H269714   0.863   6.618   2.964  1.1234  0.3572  1.1259
16075TIP3   OH269715   5.398   6.302  17.125  0.2715  0.5971 -0.2335
16075TIP3    H169716   5.387   6.289  17.219 -0.8968  1.9896 -0.1279
16075TIP3    H269717   5.459   6.376  17.118 -1.9809  2.5763 -0.4044
16076TIP3   OH269718   3.713   2.112   2.187  0.5969 -0.3684  0.6744
16076TIP3    H169719   3.697   2.065   2.268  2.8850 -1.5582  0.5200
16076TIP3    H269720   3.675   2.057   2.119  0.1620 -0.2148  0.7929
16077TIP3   OH269721   3.762   5.853  15.518  0.3643  0.0296 -0.2905
16077TIP3    H169722   3.701   5.811  15.578  0.1889  0.1258 -0.4017
16077TIP3    H269723   3.708   5.882  15.445  0.4263  0.7419 -0.0684
16078TIP3   OH269724   6.403   6.703   4.769 -0.3487 -0.0108  0.1689
16078TIP3    H169725   6.402   6.702   4.865 -1.7244  1.9797  0.2335
16078TIP3    H269726   6.329   6.648   4.743 -0.9121  0.6566  0.3195
16079TIP3   OH269727   3.189   1.231   5.444 -0.1780 -0.0741 -0.1288
16079TIP3    H169728   3.222   1.142   5.447  2.0892  0.7086 -0.3194
16079TIP3    H269729   3.171   1.254   5.535  1.0794 -0.0913  0.1349
16080TIP3   OH269730   0.861   5.619  11.755  0.0834  0.2579  0.6922
16080TIP3    H169731   0.793   5.595  11.818 -0.4457  0.5706  0.2468
16080TIP3    H269732   0.813   5.648  11.677  0.7107  1.1498  0.6176
16081TIP3   OH269733   4.489   1.425   6.660 -0.2960 -0.1788  0.1545
16081TIP3    H169734   4.487   1.411   6.565 -0.8747 -1.5472  0.3509
16081TIP3    H269735   4.562   1.371   6.691 -0.2710  0.0620  0.5289
16082TIP3   OH269736   4.837   4.661  15.478  0.3726 -0.1876  0.7316
16082TIP3    H169737   4.765   4.672  15.416  1.3261 -3.4374 -1.1711
16082TIP3    H269738   4.913   4.699  15.434  0.6261 -0.5291  0.8676
16083TIP3   OH269739   1.585   2.317  11.605  0.3645  0.3128  0.0517
16083TIP3    H169740   1.678   2.332  11.623  0.2777 -0.5828  1.3683
16083TIP3    H269741   1.559   2.248  11.665 -1.3764  1.1436  0.3317
16084TIP3   OH269742   4.553   2.225  13.516  0.0461  0.1255 -0.4486
16084TIP3    H169743   4.584   2.301  13.565 -0.8140 -0.2677  0.7450
16084TIP3    H269744   4.543   2.157  13.582 -0.5406 -0.6152 -1.2820
16085TIP3   OH269745   0.176   3.433   3.270  0.1864 -1.0615 -0.2291
16085TIP3    H169746   0.182   3.342   3.242  0.2671 -0.2610 -3.2100
16085TIP3    H269747   0.264   3.456   3.298  0.9710 -1.1106 -2.4791
16086TIP3   OH269748   4.410   0.548  14.159 -0.1099 -0.2205  0.2128
16086TIP3    H169749   4.340   0.517  14.216  0.9460  1.2000  2.4037
16086TIP3    H269750   4.400   0.644  14.158  2.5238  0.1727  1.7028
16087TIP3   OH269751   5.322   2.063   6.371  0.6459  0.3352 -0.4242
16087TIP3    H169752   5.307   1.974   6.339  1.5108 -0.8417  2.1009
16087TIP3    H269753   5.268   2.069   6.450  0.7131  2.0266 -0.4758
16088TIP3   OH269754   6.056   0.228   0.943  0.8365 -0.2317 -0.5470
16088TIP3    H169755   6.056   0.261   0.853 -1.4058 -0.9831 -0.8831
16088TIP3    H269756   5.991   0.158   0.943  1.4900 -0.9020  1.4451
16089TIP3   OH269757   4.233   0.905   3.699 -0.0798  0.7162  0.3811
16089TIP3    H169758   4.170   0.970   3.669  0.1752 -0.2680 -2.5587
16089TIP3    H269759   4.318   0.939   3.671  0.2187 -0.0761  0.3007
16090TIP3   OH269760   5.288   1.373   0.605 -0.2412  0.1038  0.0582
16090TIP3    H169761   5.383   1.357   0.602 -0.4625 -1.1675 -1.4079
16090TIP3    H269762   5.258   1.327   0.683  0.1484 -0.8303 -0.3239
16091TIP3   OH269763   2.410   4.070  15.016  0.3101  0.2491 -0.2092
16091TIP3    H169764   2.408   3.985  14.971 -0.6069  0.2345 -0.1512
16091TIP3    H269765   2.429   4.047  15.107 -1.2431 -0.0279  0.0715
16092TIP3   OH269766   0.467   4.241   3.664  0.5400 -0.0410  0.7040
16092TIP3    H169767   0.405   4.254   3.592  2.2528 -0.6458 -0.9590
16092TIP3    H269768   0.440   4.159   3.705 -0.0972  0.0000  0.3780
16093TIP3   OH269769   1.279   0.437   4.152  0.7651 -0.1654 -0.6562
16093TIP3    H169770   1.374   0.430   4.162  1.1115  0.6821 -2.8214
16093TIP3    H269771   1.260   0.528   4.172  0.4559 -0.2597 -0.5261
16094TIP3   OH269772   0.706   1.751   1.010  0.2494 -0.3241  0.3658
16094TIP3    H169773   0.763   1.700   0.952 -0.8340 -1.9890  0.6961
16094TIP3    H269774   0.764   1.815   1.050  1.5623 -0.9175 -0.5082
16095TIP3   OH269775   4.836   4.932   6.542 -0.5737  0.2054 -0.0933
16095TIP3    H169776   4.914   4.986   6.526 -0.7676 -0.0776 -2.2354
16095TIP3    H269777   4.851   4.894   6.629  0.2610  2.4836  0.8419
16096TIP3   OH269778   2.139   5.718  13.293  0.7401  0.3916  0.1902
16096TIP3    H169779   2.117   5.677  13.210  1.7254  0.0567  0.0865
16096TIP3    H269780   2.125   5.811  13.279 -0.0900  0.2396 -0.0261
16097TIP3   OH269781   2.012   5.481   3.055  0.2587  0.5268  0.1107
16097TIP3    H169782   1.945   5.413   3.055  1.0604 -0.3402 -1.8408
16097TIP3    H269783   2.025   5.501   3.148 -1.8361 -0.0950  0.6000
16098TIP3   OH269784   5.423   5.125  16.714  0.0263  0.0926 -0.5971
16098TIP3    H169785   5.358   5.084  16.657  2.7863 -2.7002 -2.0415
16098TIP3    H269786   5.452   5.203  16.667 -0.8344  0.2599 -0.8639
16099TIP3   OH269787   3.948   1.986  14.151  0.9672 -0.2668  0.2097
16099TIP3    H169788   3.868   1.938  14.173  1.3119 -0.0529  2.1446
16099TIP3    H269789   3.975   1.951  14.066 -0.6810 -0.9743 -0.0683
16100TIP3   OH269790   3.830   2.079  12.784  0.0442 -0.3066  0.0455
16100TIP3    H169791   3.838   2.001  12.729  2.0947  0.2559 -0.5460
16100TIP3    H269792   3.774   2.138  12.733  2.1362  0.3230 -1.7034
16101TIP3   OH269793   0.496   6.375   5.884  0.0676  0.4997  0.4892
16101TIP3    H169794   0.452   6.436   5.942 -1.1214 -0.6991  0.9018
16101TIP3    H269795   0.428   6.314   5.857  0.8281  0.4213 -1.3681
16102TIP3   OH269796   3.726   3.811  13.370  0.2591 -0.3137  0.0423
16102TIP3    H169797   3.752   3.783  13.458  0.6079 -1.7777 -0.5019
16102TIP3    H269798   3.729   3.907  13.374  0.4750 -0.3570  1.5573
16103TIP3   OH269799   5.457   0.820   3.466  0.2679 -0.4204 -0.1458
16103TIP3    H169800   5.502   0.795   3.546 -1.2112  1.4892  1.3796
16103TIP3    H269801   5.511   0.785   3.396  2.3406 -0.9828  1.6364
16104TIP3   OH269802   3.056   1.478   4.433  0.1212 -0.0660 -0.3287
16104TIP3    H169803   3.048   1.480   4.338 -0.2641  1.2246 -0.2776
16104TIP3    H269804   3.051   1.385   4.455 -3.0922 -0.2325 -1.3009
16105TIP3   OH269805   6.107   5.593  13.240  0.3115 -0.5985  0.8642
16105TIP3    H169806   6.175   5.526  13.235  0.9640  0.1069 -0.1265
16105TIP3    H269807   6.153   5.672  13.271 -0.2495 -0.3524  1.0967
16106TIP3   OH269808   6.278   1.519  17.109  0.3176 -0.0061  0.3222
16106TIP3    H169809   6.223   1.509  17.032 -2.4731  1.3151  1.9826
16106TIP3    H269810   6.279   1.613  17.127  1.1499 -0.2401  1.7002
16107TIP3   OH269811   2.999   1.531   4.993  0.0945 -0.0136  0.1652
16107TIP3    H169812   3.020   1.622   5.013 -0.6269 -0.2239  2.0180
16107TIP3    H269813   3.033   1.481   5.067 -0.0981 -1.1941 -0.5069
16108TIP3   OH269814   2.598   4.648  11.838  0.5766  0.3184 -0.7039
16108TIP3    H169815   2.541   4.634  11.762  0.5490 -0.7701 -0.4974
16108TIP3    H269816   2.555   4.599  11.909  1.3287  0.1875 -0.3330
16109TIP3   OH269817   1.121   6.007   2.863  0.1334  0.1147 -0.1144
16109TIP3    H169818   1.191   5.984   2.801  0.4970 -1.2035  0.7535
16109TIP3    H269819   1.163   6.069   2.922  1.2412 -2.0836  1.5642
16110TIP3   OH269820   3.423   0.383  11.624 -0.2359 -0.0487 -0.8060
16110TIP3    H169821   3.455   0.468  11.593 -0.0110  0.9452  1.8739
16110TIP3    H269822   3.442   0.383  11.718 -1.6845 -2.4176 -0.4255
16111TIP3   OH269823   5.616   0.782  16.849  0.4299 -0.2791  0.3835
16111TIP3    H169824   5.559   0.711  16.879 -1.1722 -0.0137 -1.7654
16111TIP3    H269825   5.619   0.843  16.923 -3.0090  0.1845  0.3364
16112TIP3   OH269826   3.135   0.853   0.308  0.2394 -0.5844  0.4910
16112TIP3    H169827   3.096   0.837   0.394  0.6198 -2.5174  0.3576
16112TIP3    H269828   3.067   0.897   0.258  0.1594  0.9478  1.8941
16113TIP3   OH269829   5.004   2.311   3.103 -0.4374  0.5138  0.0183
16113TIP3    H169830   5.032   2.385   3.049  0.5074  0.0628 -0.1291
16113TIP3    H269831   4.939   2.348   3.162  0.3513  1.5782  0.2564
16114TIP3   OH269832   3.930   4.263   0.946  0.7061 -0.1632 -0.1180
16114TIP3    H169833   4.007   4.240   0.894  2.8514  0.4563  2.5580
16114TIP3    H269834   3.914   4.186   1.000  1.3222  0.6830  1.3542
16115TIP3   OH269835   3.477   4.140  12.097 -0.0624  0.1018 -0.0744
16115TIP3    H169836   3.469   4.048  12.071 -1.3383  0.1093  0.2211
16115TIP3    H269837   3.506   4.185  12.017  1.1914 -0.6250 -0.0633
16116TIP3   OH269838   1.304   3.359  12.514  0.2811 -0.5367 -0.6100
16116TIP3    H169839   1.246   3.424  12.554  0.3968 -0.4557 -0.5753
16116TIP3    H269840   1.384   3.362  12.567 -0.9180 -3.1428  1.6017
16117TIP3   OH269841   2.431   4.940   0.210  0.6285 -0.3589 -0.3899
16117TIP3    H169842   2.430   4.927   0.115 -0.3225  0.5585 -0.5257
16117TIP3    H269843   2.338   4.949   0.234  0.9416  1.2021  0.3548
16118TIP3   OH269844   5.505   6.000   1.239 -0.0183 -0.3979 -0.3177
16118TIP3    H169845   5.497   6.017   1.145 -0.3679  0.6816 -0.1054
16118TIP3    H269846   5.416   5.979   1.268  0.1833 -1.3184 -0.3181
16119TIP3   OH269847   5.526   0.798  13.139 -0.0814  0.0986 -1.2293
16119TIP3    H169848   5.609   0.760  13.112 -0.2347 -0.9088 -0.3307
16119TIP3    H269849   5.464   0.725  13.139 -1.0205  0.8507 -2.0090
16120TIP3   OH269850   3.807   5.729  11.318  0.5386  0.3075  0.1462
16120TIP3    H169851   3.784   5.647  11.273 -0.7379  0.1850  0.9747
16120TIP3    H269852   3.765   5.797  11.266 -0.7055  0.1883  0.9586
16121TIP3   OH269853   6.446   6.069  11.158  0.0836 -0.6878 -0.3254
16121TIP3    H169854   6.474   5.978  11.142  0.8535 -0.2187 -1.8373
16121TIP3    H269855   6.352   6.062  11.174  0.3345 -1.8772  0.8564
16122TIP3   OH269856   1.541   2.582  13.612 -0.1976 -0.2620  0.4155
16122TIP3    H169857   1.618   2.637  13.626 -0.5976  0.3702  0.1770
16122TIP3    H269858   1.503   2.571  13.699 -0.5179  0.4455  0.3727
16123TIP3   OH269859   3.590   0.086  10.451  0.4089  0.0402  0.3984
16123TIP3    H169860   3.593   0.182  10.452 -1.7518  0.1601  0.3736
16123TIP3    H269861   3.675   0.059  10.485  0.7165  1.9849  1.3195
16124TIP3   OH269862   0.124   2.215   0.756 -0.6721  0.0607 -0.0509
16124TIP3    H169863   0.170   2.139   0.720 -1.1020  0.7953 -2.3855
16124TIP3    H269864   0.069   2.245   0.683 -2.1414  1.3163  1.5143
16125TIP3   OH269865   6.404   2.108   0.311 -0.6121  0.1786  0.3141
16125TIP3    H169866   6.466   2.181   0.321  2.0167 -1.9709  1.0053
16125TIP3    H269867   6.350   2.112   0.390 -0.8012  1.5851  0.1426
16126TIP3   OH269868   0.828   4.294   6.047  0.4228 -0.4220 -0.5343
16126TIP3    H169869   0.893   4.350   6.004  0.3249  0.1343  0.0187
16126TIP3    H269870   0.854   4.295   6.139 -1.4173  1.3453  0.0308
16127TIP3   OH269871   2.894   2.956  13.755  1.0287 -0.0967  0.6812
16127TIP3    H169872   2.947   2.984  13.830  2.5006 -0.9207 -0.0086
16127TIP3    H269873   2.898   3.030  13.694  1.1452 -0.0404  0.7560
16128TIP3   OH269874   4.849   1.825  14.101  0.0276  0.1061 -0.7704
16128TIP3    H169875   4.895   1.774  14.168 -0.5140  1.5513  0.7756
16128TIP3    H269876   4.895   1.909  14.100  0.3843 -0.0809 -2.6689
16129TIP3   OH269877   0.475   5.236   3.702  0.5573  0.0149 -0.0454
16129TIP3    H169878   0.439   5.188   3.628  0.7888 -0.9944  0.4700
16129TIP3    H269879   0.432   5.198   3.779  0.1033  1.2393  0.3371
16130TIP3   OH269880   6.544   5.387   0.829  0.2708 -0.3416  0.1195
16130TIP3    H169881   6.492   5.313   0.798  0.1535 -1.3537  2.5064
16130TIP3    H269882   6.487   5.463   0.818  0.4304 -0.4985 -2.4653
16131TIP3   OH269883   3.427   4.103   6.084 -0.1801 -0.1443 -0.3095
16131TIP3    H169884   3.420   4.147   5.999  0.1975  1.3170  0.3891
16131TIP3    H269885   3.474   4.021   6.065 -0.7724 -0.2114 -1.6175
16132TIP3   OH269886   6.160   1.337   2.066 -0.0505 -0.7299 -0.1717
16132TIP3    H169887   6.189   1.248   2.087  0.3393 -0.8513 -1.1330
16132TIP3    H269888   6.145   1.378   2.151 -0.8872 -1.9139  0.2767
16133TIP3   OH269889   4.507   3.792   5.716 -0.0754 -0.1756  0.3957
16133TIP3    H169890   4.575   3.727   5.695  0.3135  0.8266 -1.6453
16133TIP3    H269891   4.440   3.779   5.649 -0.9559  0.2169  1.1833
16134TIP3   OH269892   2.519   0.481   3.959 -0.3585  0.0558  0.2463
16134TIP3    H169893   2.467   0.465   4.038  2.0481  2.5047  2.5564
16134TIP3    H269894   2.577   0.405   3.952 -0.9232 -0.4069  0.5402
16135TIP3   OH269895   1.623   0.754  13.500 -0.0834  0.2589  0.1250
16135TIP3    H169896   1.709   0.742  13.459 -1.1988 -1.2232 -1.9423
16135TIP3    H269897   1.604   0.847  13.489  0.9272  0.4637 -0.0400
16136TIP3   OH269898   2.599   0.609   5.374 -0.2614  0.0158 -0.3717
16136TIP3    H169899   2.585   0.590   5.466  0.7381  0.7365 -0.0440
16136TIP3    H269900   2.627   0.701   5.372 -2.9464  0.9270 -1.6690
16137TIP3   OH269901   2.977   2.747   2.198 -0.4218 -0.3078  0.2932
16137TIP3    H169902   2.882   2.749   2.204 -0.6295  1.6516 -1.9690
16137TIP3    H269903   3.003   2.839   2.200  1.4324 -0.7950  0.6332
16138TIP3   OH269904   0.366   0.866   4.151 -0.3232 -0.0842 -0.2155
16138TIP3    H169905   0.402   0.955   4.145 -0.2784 -0.1498 -0.9874
16138TIP3    H269906   0.288   0.876   4.205 -0.4398  0.4665 -0.4723
16139TIP3   OH269907   2.962   1.532  17.282  0.5124 -0.3415  0.4716
16139TIP3    H169908   2.882   1.546  17.334 -0.4520  0.5232 -1.1653
16139TIP3    H269909   2.983   1.619  17.247  0.5683 -1.0522 -1.3552
16140TIP3   OH269910   6.440   4.960  11.225 -0.2244  0.0514 -0.2775
16140TIP3    H169911   6.531   4.986  11.210 -0.1038  0.2902  0.7707
16140TIP3    H269912   6.446   4.878  11.274 -0.5517  0.6422  0.7806
16141TIP3   OH269913   3.614   6.659  14.126 -0.2054 -0.2868  0.3376
16141TIP3    H169914   3.571   6.600  14.064  2.4775 -2.8496  0.6759
16141TIP3    H269915   3.641   6.734  14.074  1.1675 -1.9529 -1.5296
16142TIP3   OH269916   5.560   1.653  15.021  0.1533  0.7202 -0.6351
16142TIP3    H169917   5.595   1.564  15.018  1.5903  1.2866 -1.2434
16142TIP3    H269918   5.465   1.641  15.018  0.3251 -0.7862 -0.8118
16143TIP3   OH269919   2.633   0.785  12.843 -0.1562 -0.1790  0.5758
16143TIP3    H169920   2.612   0.858  12.901  0.3956 -0.8361  1.6231
16143TIP3    H269921   2.724   0.800  12.818  0.1450 -0.8156  1.2690
16144TIP3   OH269922   4.936   1.371   2.080 -0.3606  0.0299 -0.0785
16144TIP3    H169923   4.991   1.313   2.131 -0.7149  0.4760  0.8339
16144TIP3    H269924   4.940   1.336   1.990  1.2610 -0.0321 -0.0058
16145TIP3   OH269925   2.997   4.027  16.696 -0.3954 -0.5637  0.3620
16145TIP3    H169926   2.920   3.999  16.647 -0.0953 -1.4463  0.3763
16145TIP3    H269927   2.965   4.041  16.785 -0.5367 -0.9409  0.3705
16146TIP3   OH269928   1.243   3.503  15.167  0.4930  0.8574 -0.2184
16146TIP3    H169929   1.336   3.499  15.189  0.5029  1.0011 -0.2322
16146TIP3    H269930   1.216   3.591  15.193  0.3103  0.7436 -0.0099
16147TIP3   OH269931   2.642   2.202   4.256  0.1476  0.0491  0.3396
16147TIP3    H169932   2.653   2.288   4.214  1.0347 -0.2946 -0.1608
16147TIP3    H269933   2.551   2.202   4.286 -0.1596  0.7762 -0.5277
16148TIP3   OH269934   3.067   3.739  16.481 -0.2110  0.1698  0.3256
16148TIP3    H169935   3.045   3.750  16.573 -0.3315 -0.4170  0.3657
16148TIP3    H269936   3.157   3.772  16.474  0.6599 -1.8648  1.1200
16149TIP3   OH269937   6.583   5.004   0.549  0.3143 -0.3459  0.0356
16149TIP3    H169938   6.546   4.979   0.634  0.0940 -3.1071 -0.7817
16149TIP3    H269939   6.509   5.039   0.500 -0.2554 -1.5769 -0.0229
16150TIP3   OH269940   6.127   1.180   2.736 -0.2778  0.4208  0.4881
16150TIP3    H169941   6.131   1.222   2.822  0.6744  0.4731  0.4303
16150TIP3    H269942   6.171   1.096   2.748  1.6098  1.2178 -0.3673
16151TIP3   OH269943   1.382   3.433   1.550  0.2745 -0.0696 -0.0981
16151TIP3    H169944   1.338   3.516   1.529  0.3332  0.5448  1.9394
16151TIP3    H269945   1.383   3.431   1.646  1.4314 -1.8351 -0.1097
16152TIP3   OH269946   6.439   4.153   1.097 -0.0394 -0.8586  0.1866
16152TIP3    H169947   6.416   4.127   1.186  0.1294 -2.8707 -0.3154
16152TIP3    H269948   6.392   4.092   1.041 -0.0898  0.3348 -1.1270
16153TIP3   OH269949   3.976   2.372  15.098 -0.7276 -0.1443 -1.0215
16153TIP3    H169950   3.989   2.334  15.011 -1.0018  1.4715 -1.7954
16153TIP3    H269951   3.894   2.333  15.129 -0.6322 -0.7202 -1.4701
16154TIP3   OH269952   4.316   0.956   6.710 -0.0351  0.7350 -0.0602
16154TIP3    H169953   4.252   0.919   6.650  0.1244  1.4365 -0.6833
16154TIP3    H269954   4.394   0.901   6.699  0.9218  2.3816 -2.5434
16155TIP3   OH269955   5.953   6.334  17.165  0.5452 -0.4817 -0.7843
16155TIP3    H169956   5.999   6.339  17.082  0.9566  1.0325 -0.4923
16155TIP3    H269957   5.866   6.301  17.143  0.5897  0.0835 -1.8407
16156TIP3   OH269958   1.477   4.415  13.981  0.2794  0.0314 -0.3583
16156TIP3    H169959   1.547   4.434  14.043  0.5895 -0.4178 -0.5669
16156TIP3    H269960   1.479   4.488  13.920  1.0965 -0.3736 -0.8310
16157TIP3   OH269961   4.365   6.770  11.971  0.6136  0.0308 -0.8775
16157TIP3    H169962   4.426   6.712  11.925  0.2055 -0.3304 -0.9670
16157TIP3    H269963   4.333   6.718  12.045  0.2902  0.1591 -0.9265
16158TIP3   OH269964   2.359   3.050  11.467  0.2913  0.0493 -0.1967
16158TIP3    H169965   2.341   3.102  11.389 -1.0701  1.2262  0.8552
16158TIP3    H269966   2.339   2.960  11.441  1.9446  0.0665 -1.8111
16159TIP3   OH269967   0.691   2.837  15.742  0.2122  0.4945 -0.4107
16159TIP3    H169968   0.764   2.865  15.796 -0.0878  0.4193  0.0384
16159TIP3    H269969   0.625   2.905  15.753  0.6074  1.1103 -1.6558
16160TIP3   OH269970   5.384   0.172  13.431  0.0260 -0.0322 -0.6411
16160TIP3    H169971   5.397   0.077  13.432  1.3127  0.1280 -0.7882
16160TIP3    H269972   5.351   0.192  13.519 -0.3761 -0.6268 -0.6532
16161TIP3   OH269973   4.745   2.594   6.258 -1.1263  0.4725 -0.0342
16161TIP3    H169974   4.831   2.603   6.216 -0.7553 -0.2806  0.5424
16161TIP3    H269975   4.765   2.569   6.348 -1.9334  1.2703  0.3830
16162TIP3   OH269976   4.401   3.264  12.393 -0.1291  0.5654  0.0264
16162TIP3    H169977   4.340   3.220  12.452 -0.1214 -0.3103 -0.6057
16162TIP3    H269978   4.479   3.208  12.395  0.0140  0.7452 -0.5047
16163TIP3   OH269979   3.740   3.418  14.213 -0.2075  0.1292  0.5523
16163TIP3    H169980   3.720   3.375  14.130 -1.2303 -1.0211  1.3505
16163TIP3    H269981   3.777   3.503  14.188 -0.8846 -0.0145 -1.0603
16164TIP3   OH269982   5.840   1.759   4.945  0.2977  0.0274  0.7090
16164TIP3    H169983   5.891   1.778   4.866  0.1991  0.6422  0.7889
16164TIP3    H269984   5.848   1.664   4.956 -1.1824 -0.3571 -1.0699
16165TIP3   OH269985   0.348   1.619  15.897  0.3590  0.0113  0.3190
16165TIP3    H169986   0.332   1.708  15.931  0.6481  0.5352 -0.8620
16165TIP3    H269987   0.437   1.623  15.862 -0.1243 -0.3466 -0.9747
16166TIP3   OH269988   5.587   1.896   1.434 -0.5636  0.0686 -0.2016
16166TIP3    H169989   5.564   1.960   1.502 -0.4931  0.3539 -0.4482
16166TIP3    H269990   5.506   1.845   1.422 -0.4863 -0.1851  0.3137
16167TIP3   OH269991   2.272   5.531   6.296 -0.2313  0.2276 -0.0905
16167TIP3    H169992   2.305   5.617   6.322  0.3768 -0.0645  0.1429
16167TIP3    H269993   2.350   5.476   6.295 -0.8780 -0.7996  1.7013
16168TIP3   OH269994   0.834   6.642  14.570 -0.3213  0.0708  0.6214
16168TIP3    H169995   0.817   6.736  14.567 -0.2303  0.0603 -1.6331
16168TIP3    H269996   0.750   6.602  14.548  0.1705 -0.2921 -0.6430
16169TIP3   OH269997   2.161   1.996  13.758 -0.1499  0.2814  0.4573
16169TIP3    H169998   2.126   2.065  13.814 -0.1168  2.0777 -1.5718
16169TIP3    H269999   2.219   2.042  13.697  1.3677 -1.8368  0.1931
16170TIP3   OH270000   0.130   5.319   3.120  0.3128  0.3250  0.0237
16170TIP3    H170001   0.214   5.366   3.122  1.2763 -1.2189 -1.1412
16170TIP3    H270002   0.153   5.229   3.145 -0.8429 -0.3202 -1.1142
16171TIP3   OH270003   3.098   3.150   5.297  0.1120 -0.4901 -0.0323
16171TIP3    H170004   3.158   3.225   5.290 -0.4683 -0.1959 -2.7718
16171TIP3    H270005   3.032   3.179   5.360 -1.2633  2.2792 -2.4730
16172TIP3   OH270006   4.172   3.273  17.389 -0.4753 -0.8956 -0.5847
16172TIP3    H170007   4.108   3.342  17.405  0.5859 -0.0207 -0.0035
16172TIP3    H270008   4.131   3.194  17.425 -1.0604 -0.2649  0.1747
16173TIP3   OH270009   4.676   0.363  15.191 -0.2976 -0.0385 -0.1983
16173TIP3    H170010   4.687   0.297  15.260  0.2087  1.2817  1.0488
16173TIP3    H270011   4.582   0.377  15.187 -0.9778 -3.7907 -3.4905
16174TIP3   OH270012   6.525   4.982   4.048 -0.8064  0.3826 -0.5341
16174TIP3    H170013   6.591   5.032   4.096 -1.1589  0.4678 -0.1343
16174TIP3    H270014   6.442   5.023   4.071 -1.3922 -1.7524  1.6421
16175TIP3   OH270015   5.073   5.011  13.810 -0.4681  0.5515 -0.5965
16175TIP3    H170016   5.081   4.927  13.855 -0.2013  0.1719 -1.3370
16175TIP3    H270017   5.159   5.053  13.822 -1.2378  1.6305  1.5164
16176TIP3   OH270018   6.236   4.852   1.765  0.0606 -0.3011 -0.1510
16176TIP3    H170019   6.141   4.844   1.754 -0.3703  0.2769  2.3975
16176TIP3    H270020   6.251   4.947   1.770  0.5214 -0.4094  0.9075
16177TIP3   OH270021   6.443   0.137   3.392 -0.2914  0.0759 -1.2313
16177TIP3    H170022   6.496   0.089   3.329  0.4655  0.7734 -1.1541
16177TIP3    H270023   6.446   0.228   3.361 -0.1859  0.3704 -0.3785
16178TIP3   OH270024   6.287   4.116   1.829  0.2158 -0.5633  1.2282
16178TIP3    H170025   6.339   4.190   1.797 -1.3307 -0.4503 -1.3203
16178TIP3    H270026   6.339   4.039   1.805  1.0750 -0.3798  2.4285
16179TIP3   OH270027   2.954   2.133   0.789  0.1161  0.1528 -0.0602
16179TIP3    H170028   3.000   2.212   0.821 -0.0975 -0.0173  0.6972
16179TIP3    H270029   2.906   2.102   0.866 -0.4418 -0.2602 -0.5765
16180TIP3   OH270030   2.478   4.161  16.589 -0.5052 -0.3546  0.6716
16180TIP3    H170031   2.428   4.081  16.571  1.5407 -1.6128  0.1253
16180TIP3    H270032   2.429   4.204  16.659 -2.6636 -1.1219 -0.2663
16181TIP3   OH270033   3.921   3.768   0.578  0.1301  0.3746  0.4916
16181TIP3    H170034   3.986   3.706   0.612  0.6819  1.9093  2.4040
16181TIP3    H270035   3.837   3.732   0.605 -0.0146 -1.9599 -2.5308
16182TIP3   OH270036   0.769   4.244  11.859 -0.7068 -0.5861  0.0674
16182TIP3    H170037   0.799   4.262  11.770  0.3772 -0.9353  0.3414
16182TIP3    H270038   0.802   4.156  11.877 -0.4146 -0.2899  1.0163
16183TIP3   OH270039   5.156   0.519   2.045  0.3904  0.1565  0.4133
16183TIP3    H170040   5.250   0.512   2.030  0.5401  0.3562  1.2139
16183TIP3    H270041   5.117   0.520   1.958  1.0093 -1.4829  0.0808
16184TIP3   OH270042   6.234   2.756  10.834  0.4169 -0.3036  0.4393
16184TIP3    H170043   6.298   2.820  10.805  0.7796 -0.7677  0.1931
16184TIP3    H270044   6.175   2.805  10.890  0.7960  0.2031  0.4056
16185TIP3   OH270045   3.623   2.885   5.175 -0.2396 -0.5876  0.3749
16185TIP3    H170046   3.650   2.977   5.173 -1.4325 -0.2244  0.2046
16185TIP3    H270047   3.700   2.838   5.210  1.6878 -0.0139 -2.6817
16186TIP3   OH270048   5.922   1.955  12.854  0.5726 -0.0796 -0.6033
16186TIP3    H170049   5.961   1.907  12.928  0.5764  0.3289 -0.3312
16186TIP3    H270050   5.829   1.961  12.876  0.3835 -0.8747 -1.1545
16187TIP3   OH270051   4.872   1.649   2.096 -0.3409 -0.0028  0.1916
16187TIP3    H170052   4.819   1.663   2.175  2.0553  2.0712  1.5903
16187TIP3    H270053   4.911   1.563   2.107 -0.6681 -0.0653  0.8777
16188TIP3   OH270054   1.634   4.049   0.062  0.2177  0.5941 -0.2165
16188TIP3    H170055   1.666   3.977   0.116 -0.9420  0.7229  0.6720
16188TIP3    H270056   1.686   4.125   0.090  1.2081  0.1903 -0.9204
16189TIP3   OH270057   5.329   6.688  15.442  0.5888 -0.0901 -0.3193
16189TIP3    H170058   5.275   6.611  15.456 -1.2540  1.2132  0.1128
16189TIP3    H270059   5.360   6.680  15.352 -0.6567 -0.6958 -0.7138
16190TIP3   OH270060   0.136   0.833  17.433 -0.2545  0.0792  0.1283
16190TIP3    H170061   0.157   0.855  17.523 -1.6733  1.7455  0.1070
16190TIP3    H270062   0.206   0.872  17.381 -0.4508  0.8325  0.4113
16191TIP3   OH270063   2.880   5.069   1.960 -0.2375 -0.5528 -0.6506
16191TIP3    H170064   2.883   5.116   1.876  1.8168 -1.4729 -1.1538
16191TIP3    H270065   2.947   5.002   1.952 -0.3312 -0.9807  1.5820
16192TIP3   OH270066   0.767   4.534  15.174 -0.4310  0.1209  0.5547
16192TIP3    H170067   0.848   4.571  15.207  0.0263 -0.2952 -0.0733
16192TIP3    H270068   0.786   4.514  15.082 -0.6837 -1.6101  0.8628
16193TIP3   OH270069   1.759   5.513   1.347  0.0623 -0.2261  0.1954
16193TIP3    H170070   1.668   5.524   1.320  0.3066 -0.1468 -0.6034
16193TIP3    H270071   1.807   5.501   1.266  0.6802 -0.9493  0.6529
16194TIP3   OH270072   0.256   0.316   4.341 -0.1235  0.1210  0.3777
16194TIP3    H170073   0.179   0.272   4.379 -0.7713 -0.1586 -1.2086
16194TIP3    H270074   0.225   0.351   4.258  1.4817 -0.0314 -0.3169
16195TIP3   OH270075   3.268   3.321   1.047 -0.0234  0.4112  0.1211
16195TIP3    H170076   3.355   3.296   1.078 -0.3750  0.0326  0.7954
16195TIP3    H270077   3.272   3.417   1.042  0.7415  0.3536 -0.7804
16196TIP3   OH270078   3.752   6.203   3.679 -0.5288 -0.4632  0.5183
16196TIP3    H170079   3.673   6.255   3.691  0.1240  0.3905  1.3032
16196TIP3    H270080   3.782   6.185   3.768  1.2144  0.9009  0.2571
16197TIP3   OH270081   2.533   4.392   4.192 -0.0389 -0.6183  0.7750
16197TIP3    H170082   2.597   4.408   4.261 -1.4439  0.4104  1.9284
16197TIP3    H270083   2.466   4.337   4.234  0.6026 -2.6672 -0.7333
16198TIP3   OH270084   0.485   0.694  14.787  0.4812  0.2040 -0.1737
16198TIP3    H170085   0.465   0.623  14.848  0.0378 -0.1834 -0.7588
16198TIP3    H270086   0.435   0.673  14.708 -1.1034  2.0873  0.2423
16199TIP3   OH270087   1.832   1.427  14.872 -0.4072  0.1918  0.4482
16199TIP3    H170088   1.892   1.442  14.798  0.2143  0.9682  1.0975
16199TIP3    H270089   1.751   1.470  14.846 -0.9106 -1.3272 -0.6754
16200TIP3   OH270090   2.226   1.501  16.072  0.6007  0.8288  0.3120
16200TIP3    H170091   2.272   1.585  16.079 -0.3939  1.3889  0.3869
16200TIP3    H270092   2.163   1.502  16.144  1.4969 -0.6090  1.1763
16201TIP3   OH270093   5.076   6.044  15.064  0.3342 -0.2137 -0.2261
16201TIP3    H170094   5.140   6.080  15.126 -1.3802 -0.0109  1.4942
16201TIP3    H270095   5.084   5.949  15.074  0.4342 -0.1903 -0.0802
16202TIP3   OH270096   6.775   4.322  10.977  0.4258 -0.2592 -0.0686
16202TIP3    H170097   6.855   4.359  11.015  0.9957 -0.8201 -0.6972
16202TIP3    H270098   6.762   4.239  11.024 -1.1111  0.8694  1.6722
16203TIP3   OH270099   1.670   4.114  16.725 -0.6741  0.0847 -0.0807
16203TIP3    H170100   1.743   4.124  16.786 -0.4901 -2.3083  0.1790
16203TIP3    H270101   1.696   4.166  16.648 -0.2308  1.9031  1.2201
16204TIP3   OH270102   1.067   6.462  17.083 -0.3229  0.7690 -0.2773
16204TIP3    H170103   1.118   6.496  17.009 -0.9691 -3.0395 -2.7561
16204TIP3    H270104   1.125   6.473  17.158  2.9828 -0.5276 -2.4016
16205TIP3   OH270105   0.410   3.384  12.569  0.6591  0.2785  1.0024
16205TIP3    H170106   0.418   3.301  12.617  0.1564  0.4905  1.4690
16205TIP3    H270107   0.399   3.358  12.477  1.1338 -0.1489  1.0647
16206TIP3   OH270108   6.243   4.427  15.038 -0.0943  0.2370  0.4894
16206TIP3    H170109   6.254   4.427  14.943 -0.4402  0.0262  0.4455
16206TIP3    H270110   6.310   4.487  15.070  0.7317 -0.5231  0.2025
16207TIP3   OH270111   5.365   1.041   0.470  0.3599 -0.0638 -0.3796
16207TIP3    H170112   5.435   1.091   0.427 -0.3184  0.8877 -0.4193
16207TIP3    H270113   5.305   1.019   0.399  1.1958 -1.9310 -0.5505
16208TIP3   OH270114   6.274   3.195   4.048 -0.6496 -0.1255 -0.3317
16208TIP3    H170115   6.326   3.114   4.049 -0.1556  0.1916  0.2135
16208TIP3    H270116   6.337   3.262   4.021 -1.3336 -0.1027 -1.9740
16209TIP3   OH270117   3.212   4.925  16.147 -0.1667 -0.0781  0.5717
16209TIP3    H170118   3.307   4.933  16.156 -0.0916 -0.2777  0.0273
16209TIP3    H270119   3.187   4.865  16.218 -0.1846  1.5649  2.0159
16210TIP3   OH270120   6.279   2.467  12.516  0.0209  0.7549 -0.0646
16210TIP3    H170121   6.351   2.529  12.504 -0.1177  0.7051 -1.2345
16210TIP3    H270122   6.230   2.470  12.434 -1.2258  0.6594  0.6584
16211TIP3   OH270123   5.231   5.414  11.780  0.1709  0.8639 -0.0989
16211TIP3    H170124   5.278   5.437  11.860 -2.6430  0.7295  1.7441
16211TIP3    H270125   5.242   5.319  11.772  0.3490  0.8570  0.2011
16212TIP3   OH270126   0.645   4.096   1.280 -0.2408 -0.0914 -0.1615
16212TIP3    H170127   0.655   4.092   1.184 -0.7191  0.3732 -0.2366
16212TIP3    H270128   0.725   4.138   1.311  0.9906 -2.3382 -0.1295
16213TIP3   OH270129   4.584   2.848  13.475 -0.3213  0.1009  0.1191
16213TIP3    H170130   4.616   2.799  13.399 -1.2236 -0.4578  0.0856
16213TIP3    H270131   4.523   2.788  13.518  2.1005 -0.6146  2.8075
16214TIP3   OH270132   6.595   1.875   4.780 -0.1510 -0.2423 -0.3234
16214TIP3    H170133   6.618   1.782   4.781  0.3946 -0.1160 -0.5243
16214TIP3    H270134   6.568   1.893   4.690  0.0409 -0.1416 -0.3626
16215TIP3   OH270135   6.732   2.770   4.296  0.4343  0.0176  0.0669
16215TIP3    H170136   6.694   2.835   4.355  1.1558  0.1713  0.3720
16215TIP3    H270137   6.825   2.789   4.295  0.5095 -0.3251 -0.7102
16216TIP3   OH270138   1.439   5.804  12.196  0.1500 -0.0789  0.1666
16216TIP3    H170139   1.508   5.786  12.132  0.8707  1.8937  0.3101
16216TIP3    H270140   1.358   5.781  12.151  0.8166 -1.3709 -0.4204
16217TIP3   OH270141   2.692   6.314  13.694 -0.5147 -0.2270 -0.1105
16217TIP3    H170142   2.779   6.294  13.730 -0.4376 -0.2998 -0.3381
16217TIP3    H270143   2.641   6.340  13.771 -0.8104 -1.9072  0.3101
16218TIP3   OH270144   0.910   4.235   6.295  1.0578 -0.4101 -0.1210
16218TIP3    H170145   0.867   4.314   6.326 -1.0511 -1.2549 -0.7295
16218TIP3    H270146   0.884   4.167   6.357 -0.4135 -1.4062 -1.7356
16219TIP3   OH270147   2.885   2.614  14.467  0.0853  0.1116  0.0890
16219TIP3    H170148   2.937   2.536  14.485 -0.5611 -0.7382 -1.5732
16219TIP3    H270149   2.805   2.602  14.519 -0.4800 -0.8846 -0.9747
16220TIP3   OH270150   6.080   5.162  16.163  0.7185 -0.2811 -0.1157
16220TIP3    H170151   6.022   5.217  16.215 -0.1415 -1.1413 -0.1262
16220TIP3    H270152   6.166   5.171  16.204  0.5335  0.8159  0.0600
16221TIP3   OH270153   2.842   3.745  16.125  0.1904 -0.4942  0.4448
16221TIP3    H170154   2.907   3.809  16.155  0.8826 -1.5453  1.2510
16221TIP3    H270155   2.769   3.754  16.187 -0.0283  0.0078  0.1217
16222TIP3   OH270156   1.252   5.128  14.158 -0.2068 -0.1679 -0.0742
16222TIP3    H170157   1.197   5.184  14.213  1.2603  0.5379  0.7337
16222TIP3    H270158   1.303   5.189  14.105 -1.2058 -0.8351 -1.8881
16223TIP3   OH270159   5.906   1.294  17.272 -0.1675  0.2053 -0.3675
16223TIP3    H170160   6.000   1.300  17.289  0.1324  0.9717 -2.0351
16223TIP3    H270161   5.874   1.226  17.332  1.4332 -0.0343  0.2515
16224TIP3   OH270162   0.383   1.762   3.686 -0.3992  0.1760 -0.0518
16224TIP3    H170163   0.401   1.749   3.593  1.0521  0.1108  0.2147
16224TIP3    H270164   0.329   1.686   3.711  1.4921 -1.2955 -0.2546
16225TIP3   OH270165   5.238   1.682  16.630  0.0475  0.0823 -0.1846
16225TIP3    H170166   5.260   1.629  16.707  1.1500  1.8740  0.7981
16225TIP3    H270167   5.261   1.627  16.555 -0.9853 -1.6724  0.7356
16226TIP3   OH270168   4.329   4.914   4.919  0.2195  0.1332 -0.1395
16226TIP3    H170169   4.387   4.908   4.995  0.3420 -1.2233 -0.3151
16226TIP3    H270170   4.301   5.005   4.917 -0.4327  0.0262  2.0171
16227TIP3   OH270171   1.418   4.468   1.464 -0.3598 -0.0118  0.0283
16227TIP3    H170172   1.463   4.552   1.473  1.8176 -0.9428 -1.3827
16227TIP3    H270173   1.337   4.490   1.417 -0.9544  1.5628  1.6675
16228TIP3   OH270174   4.362   2.769  10.766  0.1746  0.8060  0.7070
16228TIP3    H170175   4.335   2.677  10.758  1.7601  0.4390 -1.2446
16228TIP3    H270176   4.286   2.813  10.804 -0.9778 -1.1297  0.8006
16229TIP3   OH270177   2.948   5.699   4.072  0.0913  0.1794  0.5406
16229TIP3    H170178   3.023   5.639   4.070 -0.9359 -1.1810 -2.1714
16229TIP3    H270179   2.987   5.786   4.067  1.5181 -0.4941 -0.7094
16230TIP3   OH270180   1.123   4.877   4.979 -0.6586 -0.3991  0.5541
16230TIP3    H170181   1.079   4.848   5.058 -2.6012  0.4111 -0.1677
16230TIP3    H270182   1.131   4.972   4.988  0.1861 -0.4275  0.2780
16231TIP3   OH270183   4.085   2.474  15.502 -0.4011  0.0654 -0.0779
16231TIP3    H170184   4.026   2.400  15.517  2.0235 -1.9956  0.0491
16231TIP3    H270185   4.134   2.483  15.583  0.7984  0.3761 -0.8086
16232TIP3   OH270186   2.709   3.967   0.619  0.3537 -0.4746  0.1934
16232TIP3    H170187   2.740   3.991   0.707 -0.8321 -1.7296  1.0051
16232TIP3    H270188   2.614   3.958   0.629 -0.0594  1.2411 -1.7137
16233TIP3   OH270189   5.500   5.202  15.735  0.2725  0.3079  0.3475
16233TIP3    H170190   5.555   5.172  15.808 -0.2853 -0.1921  0.5677
16233TIP3    H270191   5.563   5.229  15.668  0.8184 -1.1120  0.2435
16234TIP3   OH270192   3.543   2.897   6.374 -0.0331  0.0645  0.5024
16234TIP3    H170193   3.545   2.801   6.375 -0.0617  0.0589  0.0272
16234TIP3    H270194   3.634   2.923   6.359 -0.2273  0.0843 -0.7711
16235TIP3   OH270195   2.191   1.860   6.333 -0.0943 -0.5956  0.2952
16235TIP3    H170196   2.180   1.811   6.414 -0.3965 -0.1394  0.5368
16235TIP3    H270197   2.191   1.952   6.360 -0.5818 -0.4224 -0.2546
16236TIP3   OH270198   0.353   2.527  12.812 -0.0248  0.7911 -0.4469
16236TIP3    H170199   0.395   2.597  12.861 -0.4267  0.2710  0.6942
16236TIP3    H270200   0.419   2.458  12.807 -0.5897  0.0857  1.0989
16237TIP3   OH270201   6.550   6.070  14.334 -0.3052  0.3857  0.5891
16237TIP3    H170202   6.476   6.015  14.359 -1.7842  1.8059 -0.4173
16237TIP3    H270203   6.601   6.016  14.275 -0.3788 -0.7141  1.5014
16238TIP3   OH270204   6.694   5.900   0.703 -0.3192 -0.0433  0.6223
16238TIP3    H170205   6.769   5.881   0.647  0.7304 -1.7009  2.4553
16238TIP3    H270206   6.701   5.994   0.722  0.5521  0.0746 -0.2264
16239TIP3   OH270207   5.426   5.950  13.385  0.0566  0.6543  0.2517
16239TIP3    H170208   5.490   5.976  13.319 -1.2514  0.7176 -1.0546
16239TIP3    H270209   5.369   6.027  13.395 -1.1581 -0.1234 -0.3331
16240TIP3   OH270210   4.221   3.258   5.350 -0.1654 -0.0493  0.4037
16240TIP3    H170211   4.302   3.267   5.299 -0.2700 -0.6658  0.1238
16240TIP3    H270212   4.160   3.214   5.292 -0.9874  1.1566  0.3225
16241TIP3   OH270213   5.116   6.299   3.117 -0.1599  0.7382 -0.1102
16241TIP3    H170214   5.208   6.323   3.118  0.1242 -0.3407  0.0007
16241TIP3    H270215   5.090   6.298   3.209 -0.0237  0.0718 -0.0769
16242TIP3   OH270216   3.541   3.278   4.585  0.4063  0.0845 -0.5927
16242TIP3    H170217   3.599   3.341   4.542  0.3058 -0.1375 -1.0666
16242TIP3    H270218   3.517   3.320   4.668  2.5306 -0.5112  0.3744
16243TIP3   OH270219   6.033   4.588  15.038  0.4033  0.2385 -0.2244
16243TIP3    H170220   6.103   4.523  15.046 -1.4772 -1.7739  1.3317
16243TIP3    H270221   5.991   4.568  14.955 -0.1327 -0.5890  0.2206
16244TIP3   OH270222   5.448   2.909   3.795 -0.2691 -0.8774 -0.5161
16244TIP3    H170223   5.515   2.932   3.860 -3.0186  1.1364  1.8332
16244TIP3    H270224   5.412   2.826   3.826 -0.9090 -0.4127  0.0082
16245TIP3   OH270225   3.124   2.361  13.185 -0.4103  0.0363  0.4598
16245TIP3    H170226   3.065   2.418  13.235  0.9707  0.4014  1.7483
16245TIP3    H270227   3.210   2.403  13.194  0.4540 -1.6800  0.5502
16246TIP3   OH270228   2.611   3.897  14.727 -0.1782  0.4200 -0.2226
16246TIP3    H170229   2.693   3.851  14.706  0.3805  1.3010 -0.0093
16246TIP3    H270230   2.578   3.852  14.805 -0.6605 -0.8685 -1.1363
16247TIP3   OH270231   1.194   2.135   5.434  0.2332  0.3509 -0.4245
16247TIP3    H170232   1.124   2.097   5.381  1.8407 -1.2163 -1.5471
16247TIP3    H270233   1.223   2.063   5.491  2.5774  0.1035 -1.7848
16248TIP3   OH270234   5.740   5.418   0.240  0.4794 -0.1848 -0.1981
16248TIP3    H170235   5.811   5.444   0.181  0.3653  2.0160  0.5473
16248TIP3    H270236   5.764   5.456   0.325 -1.4216  0.3364  0.1505
16249TIP3   OH270237   6.768   6.529  12.496  0.2345 -0.0872 -0.2277
16249TIP3    H170238   6.720   6.579  12.429  0.0010 -0.7813 -0.5851
16249TIP3    H270239   6.833   6.591  12.529 -0.8552  0.8664  0.2288
16250TIP3   OH270240   5.763   2.807  13.791  0.5700  0.5984 -0.1473
16250TIP3    H170241   5.761   2.902  13.780 -2.0893  0.4916 -1.0976
16250TIP3    H270242   5.739   2.771  13.706  0.6230 -0.9178  0.4359
16251TIP3   OH270243   5.418   0.322   4.640  0.5924 -0.1416 -0.3863
16251TIP3    H170244   5.410   0.401   4.586 -1.4642 -0.1898 -0.2422
16251TIP3    H270245   5.502   0.284   4.616  0.2611  0.4584 -2.7105
16252TIP3   OH270246   5.031   3.891  11.867  0.1224 -0.4222  0.1391
16252TIP3    H170247   5.068   3.804  11.883 -0.1070 -0.4809  0.3483
16252TIP3    H270248   4.960   3.875  11.805  1.6023 -0.0846 -1.7403
16253TIP3   OH270249   4.329   5.452   6.273 -0.2626 -0.1769  0.1652
16253TIP3    H170250   4.310   5.546   6.275  1.6581  0.2527  1.0025
16253TIP3    H270251   4.244   5.410   6.263 -1.0514  1.6977 -2.0893
16254TIP3   OH270252   4.497   5.317  17.091 -0.1120 -0.4696  0.0297
16254TIP3    H170253   4.491   5.369  17.011 -2.1251 -4.5008 -2.7740
16254TIP3    H270254   4.419   5.341  17.141  1.3158  2.2982  1.1569
16255TIP3   OH270255   5.552   6.127  15.358 -0.1768 -0.0252 -0.2910
16255TIP3    H170256   5.634   6.107  15.404  0.9158 -0.5295 -2.3572
16255TIP3    H270257   5.510   6.042  15.346 -0.5377  0.1227 -0.0871
16256TIP3   OH270258   4.197   0.705  14.788 -0.0938 -0.1415 -0.9608
16256TIP3    H170259   4.119   0.650  14.785 -0.9613  0.7598  1.7954
16256TIP3    H270260   4.269   0.643  14.799 -0.8719 -0.8895  0.2778
16257TIP3   OH270261   2.514   0.850   0.825 -0.2942  0.0158  0.3704
16257TIP3    H170262   2.511   0.942   0.801 -2.8067 -0.0027  0.3540
16257TIP3    H270263   2.554   0.849   0.913 -2.2046  1.4034  1.3236
16258TIP3   OH270264   6.481   0.151  11.616  0.7962 -0.0653 -1.1339
16258TIP3    H170265   6.446   0.069  11.652  0.0491  0.4112 -0.7467
16258TIP3    H270266   6.440   0.220  11.668 -0.3432  0.6640 -2.8961
16259TIP3   OH270267   3.877   4.531  11.635  0.2147 -0.2700  0.1876
16259TIP3    H170268   3.921   4.495  11.711  0.7621 -0.0165  0.0006
16259TIP3    H270269   3.863   4.456  11.577  0.1977 -0.3901  0.3476
16260TIP3   OH270270   4.673   4.703   3.887  0.0139  0.2138  0.5105
16260TIP3    H170271   4.740   4.726   3.952 -0.5211  2.0880  0.4576
16260TIP3    H270272   4.592   4.695   3.938 -0.2952  1.1087  0.1783
16261TIP3   OH270273   2.083   0.999  13.653  0.2817  0.6949 -0.2003
16261TIP3    H170274   2.081   0.906  13.630 -1.0007  1.1452 -2.1935
16261TIP3    H270275   1.998   1.015  13.695 -0.2102  1.2808 -1.3873
16262TIP3   OH270276   6.142   0.005   1.373  0.6734 -0.3381 -0.3333
16262TIP3    H170277   6.099  -0.053   1.436  1.1478 -1.0032 -0.6021
16262TIP3    H270278   6.070   0.044   1.323  0.2127  1.1250  1.3745
16263TIP3   OH270279   0.580   1.856  15.895 -0.5837  0.0611 -0.7623
16263TIP3    H170280   0.642   1.885  15.828 -0.4616  1.3472 -0.1115
16263TIP3    H270281   0.542   1.936  15.930 -2.0225 -0.6734 -0.5659
16264TIP3   OH270282   0.379   6.454   2.009 -0.3271  0.8538  0.0210
16264TIP3    H170283   0.286   6.449   2.032 -0.7727 -4.2770 -1.6322
16264TIP3    H270284   0.380   6.462   1.914  0.6281 -2.5884 -0.3985
16265TIP3   OH270285   1.577   3.324  17.071 -0.1382 -0.0285  0.6463
16265TIP3    H170286   1.653   3.377  17.050 -0.3871  0.3291  0.6244
16265TIP3    H270287   1.612   3.238  17.094  0.1784 -0.2400 -0.5895
16266TIP3   OH270288   2.537   4.613   4.885  0.4912 -0.0316  0.4726
16266TIP3    H170289   2.561   4.696   4.843  0.3098 -0.7695 -1.1809
16266TIP3    H270290   2.573   4.546   4.827  0.0861 -1.1291  1.4477
16267TIP3   OH270291   4.056   4.154   0.302  0.2376 -0.2813 -0.2111
16267TIP3    H170292   4.046   4.147   0.207  0.5193  0.5910 -0.3112
16267TIP3    H270293   4.149   4.168   0.316  0.1253  0.1410  0.1520
16268TIP3   OH270294   2.537   5.307   3.769 -0.0082  0.1014 -0.1671
16268TIP3    H170295   2.515   5.376   3.832 -1.2573  1.4546 -1.9835
16268TIP3    H270296   2.452   5.271   3.743  0.5814 -1.5800  0.1096
16269TIP3   OH270297   3.638   6.311   0.834 -0.6132 -0.0525 -0.0205
16269TIP3    H170298   3.656   6.405   0.830 -3.7298  0.6730  0.7117
16269TIP3    H270299   3.654   6.287   0.925 -0.8394 -0.0103  0.0292
16270TIP3   OH270300   0.133   4.231  15.860 -0.1332  0.2052  0.0478
16270TIP3    H170301   0.112   4.146  15.821 -0.6515 -0.6180  1.9993
16270TIP3    H270302   0.204   4.266  15.805  0.0791 -1.4863 -0.8062
16271TIP3   OH270303   4.380   2.953   3.499 -0.2569 -0.3439 -0.1188
16271TIP3    H170304   4.287   2.972   3.485 -0.1692  0.2146  0.0012
16271TIP3    H270305   4.425   3.028   3.459  0.2494 -1.6813 -2.1905
16272TIP3   OH270306   3.055   0.136   4.651 -0.3673 -0.1850  0.2924
16272TIP3    H170307   3.127   0.091   4.696 -0.8386 -0.1922  1.0708
16272TIP3    H270308   3.088   0.152   4.563 -1.0173 -4.2390 -0.8940
16273TIP3   OH270309   0.643   1.737   2.178  0.9174  0.6052 -0.0812
16273TIP3    H170310   0.600   1.693   2.105 -0.8857  0.8880  0.7405
16273TIP3    H270311   0.658   1.668   2.242 -1.4708  0.9924  1.0077
16274TIP3   OH270312   5.432   4.231   0.293  0.0095 -0.1021 -0.0420
16274TIP3    H170313   5.467   4.293   0.229  3.0059 -1.7537 -0.1942
16274TIP3    H270314   5.416   4.151   0.243  0.0709 -0.6871  0.8463
16275TIP3   OH270315   0.807   5.633  15.794 -0.3732  0.4419 -0.5911
16275TIP3    H170316   0.852   5.705  15.751  0.5389  0.4228  0.2776
16275TIP3    H270317   0.870   5.602  15.860 -1.4175 -0.0227  0.2111
16276TIP3   OH270318   3.196   3.408   0.190  0.1810 -0.3185  0.2500
16276TIP3    H170319   3.200   3.348   0.116 -0.8930 -1.3283  0.9703
16276TIP3    H270320   3.114   3.457   0.177 -0.8588 -1.6246  1.5453
16277TIP3   OH270321   1.005   4.643  15.224 -0.0023  0.2402  0.1030
16277TIP3    H170322   1.054   4.579  15.173  0.5946  2.7019 -2.6423
16277TIP3    H270323   1.071   4.697  15.267 -0.3578  1.1117 -0.4065
16278TIP3   OH270324   2.707   5.893  11.685 -0.3121  0.1394  0.2521
16278TIP3    H170325   2.615   5.916  11.668  0.0715  1.0674 -0.6857
16278TIP3    H270326   2.714   5.801  11.658 -0.4940  0.6589 -1.7096
16279TIP3   OH270327   3.014   4.976   0.106  0.1322  0.1489  0.2263
16279TIP3    H170328   3.058   4.927   0.175  2.1679  1.0359 -0.3515
16279TIP3    H270329   2.921   4.957   0.118  0.6168 -1.5310  1.7598
16280TIP3   OH270330   0.525   6.028   5.265 -0.5369 -0.0764  0.1451
16280TIP3    H170331   0.569   6.069   5.190  0.0178 -1.4540 -0.3046
16280TIP3    H270332   0.494   6.102   5.317  2.9986  1.0533  0.9397
16281TIP3   OH270333   6.626   5.259  13.376  0.3455  0.5917 -0.5127
16281TIP3    H170334   6.695   5.216  13.326 -0.4990  1.9721 -3.0279
16281TIP3    H270335   6.546   5.214  13.350 -0.1587  1.5831 -0.7163
16282TIP3   OH270336   5.987   0.395   2.434 -0.5433  0.2323  0.6365
16282TIP3    H170337   6.000   0.397   2.529  0.0928  3.0449  0.5789
16282TIP3    H270338   5.926   0.467   2.417  2.0493  2.1442 -1.3684
16283TIP3   OH270339   4.510   2.845  15.103  0.4575 -0.1307 -0.0744
16283TIP3    H170340   4.440   2.825  15.166  0.8206 -0.3474  0.2644
16283TIP3    H270341   4.568   2.769  15.107  1.6770  0.8139  0.9638
16284TIP3   OH270342   6.458   2.123  13.386  0.1083 -0.0255 -0.0957
16284TIP3    H170343   6.503   2.052  13.432  0.0059 -0.7613 -1.0972
16284TIP3    H270344   6.398   2.159  13.451  1.5453  0.4622  1.0281
16285TIP3   OH270345   5.716   6.098   2.535 -0.5457  0.0922 -0.0002
16285TIP3    H170346   5.769   6.024   2.506 -1.4245 -0.2801 -0.6638
16285TIP3    H270347   5.762   6.130   2.613  1.3742  0.5598 -1.2368
16286TIP3   OH270348   3.754   1.086  13.716 -0.0854  0.2334  0.3891
16286TIP3    H170349   3.754   0.995  13.687  1.7702  0.3040  0.0116
16286TIP3    H270350   3.687   1.128  13.662 -1.1693 -0.9410  0.7717
16287TIP3   OH270351   0.149   3.670   4.988 -0.0088 -0.3964 -0.1161
16287TIP3    H170352   0.128   3.608   4.918  1.0683 -0.3961 -0.4541
16287TIP3    H270353   0.112   3.753   4.958  0.2970 -0.4339 -0.6159
16288TIP3   OH270354   4.818   6.677   5.175  0.3671  0.8293 -0.6051
16288TIP3    H170355   4.801   6.644   5.087 -2.2112 -2.2204  0.8369
16288TIP3    H270356   4.748   6.740   5.192 -1.8064 -1.6578  0.5262
16289TIP3   OH270357   0.436   2.490   3.508  0.3124  0.4727 -0.1235
16289TIP3    H170358   0.468   2.534   3.429  3.0718 -1.3525 -0.1497
16289TIP3    H270359   0.361   2.543   3.536  2.3076  4.1245 -1.0961
16290TIP3   OH270360   5.088   0.193  14.683  0.0783 -0.3417  0.6499
16290TIP3    H170361   5.176   0.230  14.688 -0.2372  0.7608 -1.0089
16290TIP3    H270362   5.043   0.226  14.761  1.1813 -1.1564  1.6678
16291TIP3   OH270363   0.169   0.297   1.085 -0.8674 -0.2963  0.7604
16291TIP3    H170364   0.173   0.250   1.169 -0.3151  0.7109  1.3039
16291TIP3    H270365   0.247   0.268   1.038 -1.0216 -0.6352  0.7082
16292TIP3   OH270366   2.983   0.860   1.950 -0.9071 -0.2665  0.2596
16292TIP3    H170367   2.949   0.934   2.001 -0.2433 -0.4582  1.0050
16292TIP3    H270368   2.916   0.792   1.960 -1.8802  0.4566 -1.0463
16293TIP3   OH270369   0.066   1.832  15.886 -0.5459  0.1531  0.4639
16293TIP3    H170370   0.157   1.839  15.916 -0.8415 -1.3144  1.8468
16293TIP3    H270371   0.047   1.738  15.889 -1.6917  0.2787 -1.1921
16294TIP3   OH270372   5.465   2.103  15.849  0.1804 -0.4887  0.2596
16294TIP3    H170373   5.485   2.196  15.854  3.6687 -1.1407  1.6042
16294TIP3    H270374   5.507   2.074  15.768 -0.1785 -1.0522  0.2692
16295TIP3   OH270375   3.347   6.558  15.572  0.2186  0.7794 -0.0223
16295TIP3    H170376   3.323   6.578  15.663  1.4530  0.0126  0.5006
16295TIP3    H270377   3.321   6.467  15.560  2.3290  0.0667  0.4183
16296TIP3   OH270378   1.174   4.111  12.434 -0.2144  0.3891 -0.6313
16296TIP3    H170379   1.203   4.175  12.369 -0.9985  0.7752 -0.6078
16296TIP3    H270380   1.184   4.155  12.518 -0.9926  0.5759 -0.6323
16297TIP3   OH270381   3.375   6.040   4.514  0.1404  0.5930 -0.3786
16297TIP3    H170382   3.464   6.011   4.532 -0.3451 -0.9524 -0.3542
16297TIP3    H270383   3.320   5.982   4.567 -0.8871  1.4838 -0.4366
16298TIP3   OH270384   5.723   5.131  14.109 -0.0132 -0.2679  0.1821
16298TIP3    H170385   5.803   5.170  14.072  0.2282  0.3725  1.3287
16298TIP3    H270386   5.751   5.094  14.193 -0.7746 -0.6975  0.2561
16299TIP3   OH270387   6.041   2.949  14.353 -0.2521  0.0654  0.2990
16299TIP3    H170388   6.136   2.960  14.352 -0.2441  0.0259 -0.9118
16299TIP3    H270389   6.013   2.972  14.264 -1.3261 -0.3168  0.5222
16300TIP3   OH270390   1.852   2.195  14.519  0.4333 -0.4824 -0.6039
16300TIP3    H170391   1.764   2.176  14.550  0.7106  0.7606  1.1245
16300TIP3    H270392   1.840   2.264  14.453 -0.1003 -2.6328 -2.9104
16301TIP3   OH270393   2.742   6.385   6.647  0.5336 -0.1498 -0.8525
16301TIP3    H170394   2.776   6.352   6.564  1.0008 -0.8912 -0.3811
16301TIP3    H270395   2.651   6.409   6.629  0.7420  0.0547 -1.6613
16302TIP3   OH270396   4.149   4.320   1.601 -0.4481  0.1016 -0.5020
16302TIP3    H170397   4.106   4.266   1.666  2.2805 -0.4698  0.9815
16302TIP3    H270398   4.243   4.313   1.621  0.4064  1.2801 -3.4465
16303TIP3   OH270399   2.118   0.940   0.922  0.0106  0.0314  0.1674
16303TIP3    H170400   2.157   0.887   0.991 -1.2800 -0.4403  0.5768
16303TIP3    H270401   2.096   0.877   0.854  0.0608  0.2994 -0.0976
16304TIP3   OH270402   2.026   1.359  11.988  0.3820  0.4184 -0.2851
16304TIP3    H170403   2.076   1.328  11.913  0.0893 -1.5588  0.2725
16304TIP3    H270404   1.966   1.423  11.952  0.4440 -0.2792 -1.7008
16305TIP3   OH270405   0.356   1.722  12.184  0.1798  0.1546  0.7736
16305TIP3    H170406   0.420   1.652  12.195 -1.0735 -1.1211  0.3308
16305TIP3    H270407   0.336   1.751  12.273  1.9613  1.1863  0.8888
16306TIP3   OH270408   1.154   6.639   2.454  0.3280  0.3030  0.0673
16306TIP3    H170409   1.082   6.582   2.426  0.8578  0.0674 -0.8074
16306TIP3    H270410   1.125   6.672   2.540 -0.8969  0.3343 -0.3299
16307TIP3   OH270411   3.981   5.997  16.837  0.4202 -0.1199 -0.3915
16307TIP3    H170412   3.899   6.033  16.872  0.2475 -0.1277 -0.7836
16307TIP3    H270413   4.046   6.020  16.902  0.2525  0.6342 -0.4735
16308TIP3   OH270414   6.071   2.831  16.634  0.7900  0.3026 -0.4752
16308TIP3    H170415   6.092   2.760  16.695  3.2917  0.9755 -0.4165
16308TIP3    H270416   5.980   2.816  16.610 -0.8500  0.7097  4.3675
16309TIP3   OH270417   4.520   5.823  10.418 -0.4304  0.2168  0.0295
16309TIP3    H170418   4.546   5.910  10.448  0.4327  0.6771 -1.9186
16309TIP3    H270419   4.602   5.774  10.412 -0.6597 -0.0871 -0.8003
16310TIP3   OH270420   2.018   6.164  11.365  0.0133  0.4004  0.0862
16310TIP3    H170421   1.980   6.105  11.300  1.3741  2.0365 -2.3516
16310TIP3    H270422   1.949   6.228  11.383 -0.1090  0.3860 -0.3301
16311TIP3   OH270423   5.832   6.236   1.102 -0.5581 -0.3397  0.5288
16311TIP3    H170424   5.800   6.258   1.015  0.1627 -0.6668  0.1740
16311TIP3    H270425   5.767   6.175   1.137 -0.6373 -0.5261  0.0599
16312TIP3   OH270426   3.676   2.078   3.448 -0.4902  0.1258 -0.0079
16312TIP3    H170427   3.658   1.990   3.482  1.4881 -0.3766 -0.1416
16312TIP3    H270428   3.601   2.098   3.392 -2.5309 -0.1310  2.4424
16313TIP3   OH270429   4.234   4.985   3.569 -0.4876  0.4190 -0.3253
16313TIP3    H170430   4.328   5.002   3.559 -0.6943  2.9288  1.1658
16313TIP3    H270431   4.194   5.031   3.495 -0.8443  4.9132  2.2948
16314TIP3   OH270432   2.642   1.393  16.540 -0.1816 -0.0625  0.0290
16314TIP3    H170433   2.653   1.320  16.479  0.2490 -0.2039  0.2740
16314TIP3    H270434   2.731   1.425  16.555 -0.2186 -0.3831  1.0146
16315TIP3   OH270435   3.936   0.152  13.319  0.1321  0.1646  0.1518
16315TIP3    H170436   4.018   0.111  13.348  0.0828 -0.4418 -0.5424
16315TIP3    H270437   3.939   0.240  13.355  1.0001  0.0809  0.2957
16316TIP3   OH270438   0.136   3.606  12.751  0.1345  0.1591  0.0492
16316TIP3    H170439   0.049   3.610  12.712 -0.1445  0.6464  0.7045
16316TIP3    H270440   0.189   3.665  12.697 -0.5140  1.7023  1.0057
16317TIP3   OH270441   3.152   2.912   5.211 -0.2721 -0.2163  0.3046
16317TIP3    H170442   3.135   2.861   5.290  0.2816  0.4850  0.8862
16317TIP3    H270443   3.127   3.001   5.234  1.2023  0.2594  0.1682
16318TIP3   OH270444   3.545   4.277   3.702  0.7681  0.3320  0.0933
16318TIP3    H170445   3.571   4.223   3.627  1.7924  1.5749 -0.4706
16318TIP3    H270446   3.489   4.345   3.664  0.6423  0.4994  0.5771
16319TIP3   OH270447   1.809   6.518  12.159  0.9345  0.1683  0.1447
16319TIP3    H170448   1.767   6.590  12.206 -0.9240  0.0478 -1.2371
16319TIP3    H270449   1.886   6.497  12.212  0.5866  2.0160  1.4901
16320TIP3   OH270450   1.644   3.681   4.937  0.1469 -0.2544 -0.4422
16320TIP3    H170451   1.593   3.718   4.865  0.8476  2.5589  0.3892
16320TIP3    H270452   1.729   3.661   4.898  0.2592  0.4935 -0.6009
16321TIP3   OH270453   2.235   2.101  11.895  0.0070  0.5369 -0.0893
16321TIP3    H170454   2.256   2.051  11.973  2.0346 -0.2769 -1.0847
16321TIP3    H270455   2.278   2.185  11.907  0.4532  0.3542 -0.3799
16322TIP3   OH270456   4.078   3.790  14.081 -0.5516  0.2664  0.1272
16322TIP3    H170457   4.131   3.799  14.161 -1.0607  0.1549  0.4832
16322TIP3    H270458   3.996   3.836  14.102 -1.0210 -0.4896 -0.0224
16323TIP3   OH270459   1.250   2.310   2.719 -0.4000 -0.3490  0.2686
16323TIP3    H170460   1.156   2.310   2.701 -0.2491 -0.4629 -0.5474
16323TIP3    H270461   1.286   2.241   2.663  0.4174  0.9438 -0.8979
16324TIP3   OH270462   1.214   4.208  17.371 -0.2976 -0.3348 -0.5184
16324TIP3    H170463   1.296   4.235  17.413 -1.5798  1.3538  1.0855
16324TIP3    H270464   1.213   4.113  17.379 -0.1059 -0.1681  2.7320
16325TIP3   OH270465   4.088   0.645  15.791 -0.5709  0.4721  0.6034
16325TIP3    H170466   4.137   0.624  15.712 -1.4198 -0.1742  0.2353
16325TIP3    H270467   4.001   0.607  15.777 -0.6801  0.1634  1.9150
16326TIP3   OH270468   2.385   0.612   3.497 -0.0692 -0.1541 -0.3186
16326TIP3    H170469   2.442   0.687   3.482  0.7220 -0.8774 -1.0664
16326TIP3    H270470   2.443   0.543   3.528 -1.1951  0.3403  3.3925
16327TIP3   OH270471   6.028   6.652   3.026  0.1545 -0.0032 -0.1851
16327TIP3    H170472   5.949   6.641   3.079  0.5245  0.3797  0.4613
16327TIP3    H270473   6.011   6.729   2.972 -0.5155 -0.8183 -1.1879
16328TIP3   OH270474   0.239   0.003   4.065  0.0625 -0.0834  0.4875
16328TIP3    H170475   0.213   0.045   4.147 -0.4976  1.3260 -0.3663
16328TIP3    H270476   0.180  -0.072   4.057  0.1608 -0.2648  1.3867
16329TIP3   OH270477   4.480   2.143  13.070  0.0406 -0.3550 -0.1969
16329TIP3    H170478   4.521   2.150  12.983 -1.2654  0.3353 -0.7908
16329TIP3    H270479   4.553   2.144  13.131  0.9084  2.8509 -1.0788
16330TIP3   OH270480   4.239   1.542   5.374  0.1379 -0.2436  0.1428
16330TIP3    H170481   4.202   1.562   5.460  0.4342 -0.6510  0.3686
16330TIP3    H270482   4.174   1.487   5.331 -1.2090  2.0665 -0.9277
16331TIP3   OH270483   2.948   2.392   3.686  0.2029  0.4131  0.3058
16331TIP3    H170484   2.888   2.325   3.653  1.3347  0.6018 -2.4054
16331TIP3    H270485   3.026   2.343   3.713  0.5273  0.4980 -0.4458
16332TIP3   OH270486   3.435   0.713  12.768  0.1217 -0.0331  0.0824
16332TIP3    H170487   3.431   0.625  12.732  0.4739 -0.0519  0.0879
16332TIP3    H270488   3.495   0.706  12.842  0.8264  0.3961 -0.4434
16333TIP3   OH270489   1.303   1.969   5.616 -0.0821 -0.0609 -0.3558
16333TIP3    H170490   1.365   1.944   5.685  0.9553 -0.8681 -1.5355
16333TIP3    H270491   1.351   1.954   5.534 -1.6075 -0.0383 -1.2865
16334TIP3   OH270492   4.737   4.663   0.534  0.0067  0.4468 -0.3507
16334TIP3    H170493   4.679   4.630   0.465 -0.6798  1.2925 -0.1931
16334TIP3    H270494   4.695   4.743   0.564  0.1718 -0.0261  1.2281
16335TIP3   OH270495   4.282   5.937  13.764  0.0737  0.3630  0.1662
16335TIP3    H170496   4.299   6.030  13.779  2.2299  0.3803 -1.8220
16335TIP3    H270497   4.332   5.892  13.832  0.4628  0.6195  0.0471
16336TIP3   OH270498   1.352   5.655  11.757  0.1593 -0.7971 -0.8564
16336TIP3    H170499   1.402   5.641  11.837 -0.8038  0.4703  0.0179
16336TIP3    H270500   1.282   5.716  11.783  0.3451  0.3571 -2.8442
16337TIP3   OH270501   3.095   3.958   3.972 -0.5263 -0.1467  0.3231
16337TIP3    H170502   3.124   3.961   3.881 -1.1263  0.9796  0.1573
16337TIP3    H270503   3.005   3.927   3.968 -0.7884  0.5740  0.4596
16338TIP3   OH270504   4.129   2.923   0.433  0.0076  0.2132  0.1588
16338TIP3    H170505   4.040   2.914   0.397 -0.3644  1.1272  0.8205
16338TIP3    H270506   4.150   3.016   0.424 -0.3364  0.6264  2.7784
16339TIP3   OH270507   5.062   6.748  13.649 -1.0748  0.3058  0.0457
16339TIP3    H170508   5.001   6.697  13.703 -1.7114  0.2403 -0.7183
16339TIP3    H270509   5.008   6.780  13.576  0.2355 -1.6476 -1.8960
16340TIP3   OH270510   6.373   0.412  14.649  0.3032 -0.3972 -0.0747
16340TIP3    H170511   6.349   0.449  14.734  0.0806 -2.9725  1.0472
16340TIP3    H270512   6.296   0.425  14.594  0.3161  0.9501  0.1772
16341TIP3   OH270513   2.539   6.147   1.027 -0.0567 -0.0740 -0.4217
16341TIP3    H170514   2.532   6.123   1.120 -0.8894  0.8267 -0.2357
16341TIP3    H270515   2.453   6.128   0.991 -0.7748  2.5046 -0.2675
16342TIP3   OH270516   3.995   1.676  11.004 -0.1633  0.3015  0.6987
16342TIP3    H170517   4.014   1.759  11.050 -0.9985  1.4089 -0.8638
16342TIP3    H270518   3.913   1.646  11.044  1.3628 -1.1428  2.9910
16343TIP3   OH270519   0.797   1.422   0.548 -0.1655  0.2552 -0.3046
16343TIP3    H170520   0.731   1.357   0.572 -1.6484  2.0999  0.9141
16343TIP3    H270521   0.773   1.500   0.598  0.8439  2.1267 -2.5464
16344TIP3   OH270522   1.120   4.208  11.721  0.7905 -0.2761 -0.0113
16344TIP3    H170523   1.160   4.129  11.759  0.8146 -0.4971 -0.4900
16344TIP3    H270524   1.133   4.276  11.788 -1.2436 -1.1964  1.4282
16345TIP3   OH270525   4.514   2.679   1.225  0.2853 -0.6271  0.3909
16345TIP3    H170526   4.525   2.676   1.320  0.2796  0.3300  0.4297
16345TIP3    H270527   4.482   2.768   1.207 -0.8395 -1.1649 -0.3915
16346TIP3   OH270528   6.069   4.471  15.895 -0.3340  0.0015 -0.5091
16346TIP3    H170529   6.005   4.541  15.905  0.4831  0.9634 -1.7114
16346TIP3    H270530   6.081   4.436  15.983 -1.8446  0.3853 -0.1334
16347TIP3   OH270531   1.532   3.330  11.813 -0.5440  0.2477  0.0326
16347TIP3    H170532   1.552   3.371  11.897 -0.1316 -1.1712  0.6520
16347TIP3    H270533   1.608   3.351  11.758 -0.0067 -0.2557  0.5630
16348TIP3   OH270534   0.334   1.392  15.246  0.4449  0.0775 -0.0401
16348TIP3    H170535   0.243   1.419  15.261 -0.5256 -1.9199 -1.6912
16348TIP3    H270536   0.367   1.455  15.182  0.4414  1.1291  0.9567
16349TIP3   OH270537   3.505   0.643   3.851 -0.2763  0.1841 -0.0089
16349TIP3    H170538   3.473   0.658   3.762 -2.7270 -1.2017  0.5626
16349TIP3    H270539   3.465   0.713   3.903  0.0030  0.1522  0.2517
16350TIP3   OH270540   0.160   0.597   1.214 -0.4184 -0.3892  0.1096
16350TIP3    H170541   0.066   0.582   1.227 -0.1277 -0.9817  1.8375
16350TIP3    H270542   0.166   0.689   1.187 -1.3331  0.7448  3.2809
16351TIP3   OH270543   1.024   6.672   0.495 -0.6309  0.3719 -0.0653
16351TIP3    H170544   0.943   6.628   0.469 -0.3339 -0.1188 -0.1620
16351TIP3    H270545   1.009   6.699   0.586  0.2738 -2.5666  1.0490
16352TIP3   OH270546   1.521   0.804   2.003 -0.3215 -0.5241  0.5484
16352TIP3    H170547   1.504   0.796   2.096 -2.0205 -0.1641  0.3047
16352TIP3    H270548   1.445   0.850   1.968  0.6158  0.0190 -0.9081
16353TIP3   OH270549   2.333   5.189   2.259  0.6070 -0.1694  0.5086
16353TIP3    H170550   2.330   5.242   2.179  1.4525  1.6793  1.6468
16353TIP3    H270551   2.241   5.174   2.282  0.2680 -2.4694 -1.8262
16354TIP3   OH270552   5.346   3.450   2.155 -0.8090 -0.7180 -0.4117
16354TIP3    H170553   5.276   3.394   2.188 -0.6757 -0.1669  0.8507
16354TIP3    H270554   5.313   3.539   2.167  0.1921 -0.4488  0.3979
16355TIP3   OH270555   5.435   4.547   6.946 -0.2161 -0.1183 -0.5792
16355TIP3    H170556   5.495   4.574   7.016 -0.2901  0.4717 -0.7400
16355TIP3    H270557   5.492   4.535   6.870 -0.3075  0.5364 -0.7569
16356TIP3   OH270558   2.497   2.057  15.497 -0.6080  0.3271  0.3739
16356TIP3    H170559   2.537   1.992  15.439 -1.9551 -0.6440  0.4930
16356TIP3    H270560   2.561   2.128  15.501  0.9192 -0.9933  0.2482
16357TIP3   OH270561   4.394   4.205   1.755 -0.2070  0.7833 -0.4248
16357TIP3    H170562   4.459   4.156   1.704  0.8118  0.9671  0.6310
16357TIP3    H270563   4.342   4.137   1.799 -1.5005  0.6127 -2.1366
16358TIP3   OH270564   1.547   6.244   4.543 -0.4813  0.0335 -0.4962
16358TIP3    H170565   1.532   6.323   4.595 -0.5033 -0.5693  0.4402
16358TIP3    H270566   1.611   6.194   4.594 -0.8132 -0.7625 -0.8487
16359TIP3   OH270567   5.785   2.410  16.567 -0.5557  0.1539  0.0824
16359TIP3    H170568   5.840   2.405  16.645  1.2601 -0.1390 -1.1477
16359TIP3    H270569   5.835   2.363  16.500 -1.7697  0.9294 -1.4183
16360TIP3   OH270570   4.251   1.615   3.937  0.0008 -0.2910  0.4302
16360TIP3    H170571   4.318   1.677   3.965  0.2156 -0.3792  0.1290
16360TIP3    H270572   4.281   1.531   3.971  0.8199 -0.5810 -0.9152
16361TIP3   OH270573   2.773   4.669   1.191 -0.1498  0.3654  0.7735
16361TIP3    H170574   2.836   4.605   1.159  0.1207  0.7397  0.5535
16361TIP3    H270575   2.734   4.707   1.112 -0.6268  0.1624  0.9062
16362TIP3   OH270576   5.911   4.340   6.197  0.3517 -0.1195  0.3377
16362TIP3    H170577   5.992   4.342   6.145  0.6883 -1.2206  0.7890
16362TIP3    H270578   5.938   4.304   6.281 -0.6755 -0.8426  0.3759
16363TIP3   OH270579   5.469   1.726  11.520 -0.1534  0.1944 -0.3961
16363TIP3    H170580   5.511   1.809  11.497 -1.4457  1.2871  0.9980
16363TIP3    H270581   5.388   1.726  11.469  0.2354 -0.6672 -1.0557
16364TIP3   OH270582   5.198   3.972  16.532 -0.2205  0.2408  0.7400
16364TIP3    H170583   5.218   3.952  16.623  2.0686  1.5716  0.6191
16364TIP3    H270584   5.108   4.004  16.533 -1.0751 -1.9766  2.1165
16365TIP3   OH270585   1.576   3.058  12.169  0.3155 -0.2554 -0.2242
16365TIP3    H170586   1.501   3.115  12.188 -0.3582 -1.0942 -0.2650
16365TIP3    H270587   1.597   3.077  12.078 -0.5980 -0.8165 -0.5718
16366TIP3   OH270588   6.505   4.247   1.695  0.1748  0.4478 -0.6547
16366TIP3    H170589   6.583   4.198   1.669 -0.0730 -0.1272 -0.3287
16366TIP3    H270590   6.514   4.331   1.649  0.8889  0.3218 -0.7672
16367TIP3   OH270591   2.857   0.816   5.546 -0.4823  0.1390  0.4192
16367TIP3    H170592   2.795   0.843   5.478 -2.1075 -1.6350  1.0863
16367TIP3    H270593   2.935   0.788   5.498 -2.0357 -2.2534 -0.8956
16368TIP3   OH270594   3.456   4.554  14.404 -0.0105  0.1580 -0.1068
16368TIP3    H170595   3.537   4.596  14.376 -0.1106  0.9040  0.6552
16368TIP3    H270596   3.396   4.567  14.331 -0.2193  1.9266  0.3299
16369TIP3   OH270597   0.567   4.812   3.509 -0.2761 -0.6559 -0.2091
16369TIP3    H170598   0.532   4.847   3.592  1.6907 -0.5132  0.6174
16369TIP3    H270599   0.551   4.881   3.445 -0.0222  0.0897  0.5168
16370TIP3   OH270600   3.837   5.658  16.703 -0.4551  0.7854 -0.1267
16370TIP3    H170601   3.860   5.566  16.718 -0.9487  0.6953  0.0980
16370TIP3    H270602   3.844   5.699  16.789 -2.4404  0.4533  0.2514
16371TIP3   OH270603   3.516   2.105  16.343  0.1972  0.1388 -0.3279
16371TIP3    H170604   3.433   2.058  16.331 -0.5001  1.2278  0.1025
16371TIP3    H270605   3.537   2.094  16.435 -0.9179  2.1470  0.2082
16372TIP3   OH270606   2.726   1.545  17.444 -0.5963  0.1070 -0.3295
16372TIP3    H170607   2.640   1.586  17.453 -0.7425  0.6446 -3.2554
16372TIP3    H270608   2.708   1.451  17.450 -1.0927  0.2650  0.8975
16373TIP3   OH270609   2.236   2.595  15.056  0.5068 -0.1086  0.1132
16373TIP3    H170610   2.141   2.599  15.047  0.7287  2.4946 -3.8088
16373TIP3    H270611   2.252   2.597  15.150 -3.3003  1.1524  0.9090
16374TIP3   OH270612   4.399   0.235  16.997 -0.2599  1.0254 -0.5529
16374TIP3    H170613   4.354   0.271  16.921 -2.2336  1.2188  0.6365
16374TIP3    H270614   4.345   0.260  17.071  1.0034 -0.1076  0.8245
16375TIP3   OH270615   4.898   3.973  15.020  0.2181  0.1037  0.4419
16375TIP3    H170616   4.879   4.067  15.031 -0.2519 -0.0016  0.5739
16375TIP3    H270617   4.912   3.962  14.926 -1.5225  0.0007  0.1589
16376TIP3   OH270618   1.546   1.479   4.774 -0.0187  0.4339 -0.2704
16376TIP3    H170619   1.639   1.458   4.775 -0.3294 -1.1563  1.4218
16376TIP3    H270620   1.535   1.538   4.700  2.2266  0.2062 -0.8490
16377TIP3   OH270621   3.330   1.843  15.360  0.3038  0.0685  0.3172
16377TIP3    H170622   3.357   1.763  15.405  0.5802 -0.0176 -0.0038
16377TIP3    H270623   3.349   1.827  15.268 -0.1575  0.2913  0.1804
16378TIP3   OH270624   1.414   3.460   1.120  0.0161  0.1218 -0.3243
16378TIP3    H170625   1.330   3.484   1.159  0.8103  0.5015  1.2438
16378TIP3    H270626   1.462   3.416   1.191  2.4181  2.9020 -0.0374
16379TIP3   OH270627   3.483   2.925   6.103  0.6286 -0.3922  0.3607
16379TIP3    H170628   3.556   2.987   6.101  1.3688 -1.1703  1.5964
16379TIP3    H270629   3.451   2.929   6.193 -0.5709 -0.3957 -0.0585
16380TIP3   OH270630   2.468   1.579  15.422  0.3578  0.0427 -0.2890
16380TIP3    H170631   2.525   1.609  15.351 -1.1835  1.2951 -1.0885
16380TIP3    H270632   2.481   1.643  15.492  0.9131 -0.4419  0.0554
16381TIP3   OH270633   1.564   0.615   4.339 -0.0399  0.7230 -0.1031
16381TIP3    H170634   1.545   0.534   4.387 -1.5552  1.9176  1.4380
16381TIP3    H270635   1.651   0.641   4.368  0.7715 -0.6768 -1.1572
16382TIP3   OH270636   2.196   2.206  17.431  0.1558 -0.0294  0.6000
16382TIP3    H170637   2.132   2.204  17.503 -1.5593 -2.0929 -0.8389
16382TIP3    H270638   2.245   2.124  17.441  2.1975  1.1959  1.2529
16383TIP3   OH270639   2.388   6.495   1.624  0.0877  0.2498  0.0561
16383TIP3    H170640   2.335   6.558   1.574  1.0603  0.3078 -0.9499
16383TIP3    H270641   2.458   6.547   1.662 -0.4538  0.1439  1.2247
16384TIP3   OH270642   0.906   2.903   3.601 -0.2092 -0.0703 -0.3325
16384TIP3    H170643   0.827   2.852   3.616  0.4413 -0.3057  3.1334
16384TIP3    H270644   0.892   2.984   3.650  1.1684  0.4924 -0.8172
16385TIP3   OH270645   6.271   4.898   2.962 -0.1108 -0.4391  1.1161
16385TIP3    H170646   6.282   4.980   2.913 -0.1087 -1.0137  0.1232
16385TIP3    H270647   6.357   4.882   3.002  0.3393 -0.7181  0.0775
16386TIP3   OH270648   1.069   3.009   3.396 -0.1726 -0.1702  0.5379
16386TIP3    H170649   1.142   2.947   3.399  1.0384  1.2238  0.9777
16386TIP3    H270650   1.005   2.974   3.458  0.5711 -0.8673  0.9335
16387TIP3   OH270651   0.304   6.247   0.946  0.4189 -0.1316  0.1469
16387TIP3    H170652   0.304   6.183   0.875  0.7045 -1.1344  1.0311
16387TIP3    H270653   0.220   6.293   0.937  0.5797 -0.0369 -1.0062
16388TIP3   OH270654   0.888   5.093  11.818  0.0238 -0.0420 -0.2822
16388TIP3    H170655   0.928   5.179  11.811  1.7776 -0.8361 -0.6086
16388TIP3    H270656   0.937   5.039  11.755  0.2427 -1.7152  1.2491
16389TIP3   OH270657   1.907   5.948  11.211 -0.2938  0.0018 -0.2038
16389TIP3    H170658   1.953   5.868  11.187 -0.2445 -0.5025  1.4333
16389TIP3    H270659   1.819   5.919  11.234 -1.9479  1.0715 -4.3034
16390TIP3   OH270660   3.839   4.687   3.451 -0.2812  0.3738 -0.7461
16390TIP3    H170661   3.822   4.779   3.472  0.0362 -0.0041  1.3896
16390TIP3    H270662   3.917   4.690   3.395 -0.6095  1.4367 -1.1623
16391TIP3   OH270663   0.620   0.399  17.366  0.0059  0.2597  0.2044
16391TIP3    H170664   0.581   0.475  17.411 -2.1764 -1.2844  1.1083
16391TIP3    H270665   0.665   0.351  17.435 -2.2971 -1.4679  0.6025
16392TIP3   OH270666   4.661   3.435  12.079 -0.0805  0.1359  0.8955
16392TIP3    H170667   4.684   3.487  12.155  0.9961  0.2141  0.5383
16392TIP3    H270668   4.709   3.476  12.007 -1.1327  0.1069  0.1611
16393TIP3   OH270669   0.335   0.400   4.067 -0.1821  0.5665 -0.4787
16393TIP3    H170670   0.423   0.376   4.096 -0.0072 -0.0729 -1.5028
16393TIP3    H270671   0.345   0.487   4.028 -0.5314  1.7259  1.8203
16394TIP3   OH270672   3.973   6.035   0.239  0.6891 -0.1459 -0.0121
16394TIP3    H170673   4.026   5.956   0.233  1.2526  0.3289 -2.8506
16394TIP3    H270674   4.030   6.105   0.206 -0.7478  0.9158 -0.3605
16395TIP3   OH270675   1.350   5.991   2.000 -0.1971  0.2414  0.0938
16395TIP3    H170676   1.333   6.026   2.087 -0.9277 -0.2716  0.1661
16395TIP3    H270677   1.296   5.912   1.994  2.1008 -1.4853  0.3273
16396TIP3   OH270678   5.248   5.966   1.315 -0.2982 -0.5146  0.6045
16396TIP3    H170679   5.202   5.963   1.398 -0.3237 -0.9283  0.5769
16396TIP3    H270680   5.205   5.900   1.261 -1.8619  1.3492 -0.5643
16397TIP3   OH270681   4.066   1.380  12.088  0.1514 -0.1067 -0.0537
16397TIP3    H170682   4.014   1.341  12.018 -1.8054  0.7447  0.8600
16397TIP3    H270683   4.095   1.306  12.140 -1.2436 -0.5531  0.1284
16398TIP3   OH270684   3.754   4.094   0.255  0.0679 -0.2849 -0.4240
16398TIP3    H170685   3.690   4.117   0.323 -1.2787 -1.8067 -1.1200
16398TIP3    H270686   3.817   4.166   0.257 -0.5505  0.2741  1.6667
16399TIP3   OH270687   1.933   3.257   2.450  0.4721 -0.3047  0.0186
16399TIP3    H170688   1.941   3.285   2.359  0.6888  1.1851  0.4579
16399TIP3    H270689   2.023   3.260   2.484  0.1712  1.2272  0.8075
16400TIP3   OH270690   5.851   5.863   6.084  0.2608 -0.0388  0.9245
16400TIP3    H170691   5.858   5.897   6.173  0.8816  0.9447  0.5176
16400TIP3    H270692   5.782   5.916   6.043  1.7419  1.3138  0.0597
16401TIP3   OH270693   4.028   6.589   2.580 -0.1637  0.0609  0.4695
16401TIP3    H170694   3.978   6.513   2.607 -0.2112  0.0093  0.2433
16401TIP3    H270695   4.080   6.558   2.506  0.1373  0.1363  0.6499
16402TIP3   OH270696   1.996   3.697  11.617  0.4001 -0.8480  0.0391
16402TIP3    H170697   1.955   3.691  11.703 -0.8572 -0.4800 -0.5176
16402TIP3    H270698   2.001   3.791  11.599 -3.9452 -0.8028 -2.3393
16403TIP3   OH270699   1.217   0.357  13.507  0.0125 -0.4190 -0.6407
16403TIP3    H170700   1.308   0.346  13.478  0.3000 -2.1015  0.7311
16403TIP3    H270701   1.200   0.450  13.495  1.7318 -0.1444 -1.4238
16404TIP3   OH270702   3.452   3.979   2.655  0.1835  0.4570  0.9946
16404TIP3    H170703   3.469   3.905   2.713 -0.7803 -1.9843 -1.6044
16404TIP3    H270704   3.357   3.990   2.656  0.2337  1.0149  0.5642
16405TIP3   OH270705   0.217   6.700   4.594 -0.0806  0.1742 -0.1554
16405TIP3    H170706   0.229   6.682   4.501 -1.0820  1.2063 -0.5128
16405TIP3    H270707   0.288   6.653   4.637  1.3898  1.0094 -1.5808
16406TIP3   OH270708   6.465   4.436   2.931  0.2196 -0.1826  0.3740
16406TIP3    H170709   6.468   4.529   2.953  1.8766  0.2146 -1.2477
16406TIP3    H270710   6.496   4.391   3.009  3.4104  0.9638 -0.0785
16407TIP3   OH270711   0.963   3.331  12.257 -0.2593 -0.4054 -0.3911
16407TIP3    H170712   0.900   3.397  12.286  0.3640 -0.2798  0.7536
16407TIP3    H270713   0.983   3.281  12.336  1.8626  0.2426 -0.4495
16408TIP3   OH270714   6.301   1.972   5.946  0.0414  0.2628 -0.3158
16408TIP3    H170715   6.396   1.978   5.959 -0.0439  0.1701  0.3632
16408TIP3    H270716   6.264   1.984   6.033 -0.5777  0.3566 -0.5881
16409TIP3   OH270717   6.078   0.648   0.964 -0.0865  0.5784 -0.2519
16409TIP3    H170718   6.091   0.615   1.054 -2.9095 -0.5085 -0.1617
16409TIP3    H270719   6.024   0.726   0.975 -1.3914 -0.1867 -1.0332
16410TIP3   OH270720   4.797   3.662  14.657 -0.3215  0.1049  0.0203
16410TIP3    H170721   4.802   3.736  14.718 -1.6389  1.0744 -0.9815
16410TIP3    H270722   4.808   3.702  14.571 -0.4427 -0.9635 -0.4994
16411TIP3   OH270723   0.189   0.244   3.410 -0.1236  0.0674  0.3103
16411TIP3    H170724   0.142   0.189   3.472  0.2383 -2.8656 -1.8053
16411TIP3    H270725   0.129   0.253   3.336  0.5692  0.9178 -0.1656
16412TIP3   OH270726   1.969   2.091  15.577 -0.2253  0.0760 -0.2882
16412TIP3    H170727   1.890   2.041  15.602 -1.4032  1.8152 -0.3359
16412TIP3    H270728   2.002   2.046  15.499  0.6785 -2.5362  1.4559
16413TIP3   OH270729   2.117   3.495   0.053 -0.0009 -0.6832 -0.5776
16413TIP3    H170730   2.118   3.399   0.059 -0.3462 -0.6560 -0.0846
16413TIP3    H270731   2.166   3.514  -0.028  1.6386 -1.1854  0.2574
16414TIP3   OH270732   3.911   3.268   3.789  0.5604  0.4051  0.1390
16414TIP3    H170733   3.969   3.324   3.738 -0.5338  0.3164 -1.2894
16414TIP3    H270734   3.940   3.278   3.879  1.6953  1.6518 -0.3337
16415TIP3   OH270735   4.692   3.457   3.373 -0.1624  0.0125 -0.4861
16415TIP3    H170736   4.659   3.528   3.319 -0.7676  1.3419  1.5268
16415TIP3    H270737   4.624   3.390   3.371 -1.2697  1.0648  0.4630
16416TIP3   OH270738   3.009   0.450  13.960  0.4851 -0.0151 -0.1649
16416TIP3    H170739   3.011   0.437  13.865 -1.8708  0.3424 -0.3292
16416TIP3    H270740   3.017   0.544  13.972  1.1510 -0.0912  0.0296
16417TIP3   OH270741   5.011   3.734  13.758  0.5966 -0.4113 -0.0804
16417TIP3    H170742   4.940   3.764  13.701  0.9662  0.3072 -0.1719
16417TIP3    H270743   4.991   3.772  13.843  2.2339  2.0586 -0.6853
16418TIP3   OH270744   2.371   4.006   4.467  0.0819  0.0408  0.2960
16418TIP3    H170745   2.377   4.076   4.401 -3.7306  0.5501  0.2176
16418TIP3    H270746   2.412   4.043   4.545  0.9748  1.0795 -0.6343
16419TIP3   OH270747   6.684   0.696  17.381 -0.5488  0.8302 -0.3101
16419TIP3    H170748   6.751   0.763  17.397  0.1449  0.7186 -2.4594
16419TIP3    H270749   6.730   0.626  17.334 -1.6379 -0.4187  0.3930
16420TIP3   OH270750   6.231   3.593  11.303  0.1989  0.3826 -0.0305
16420TIP3    H170751   6.286   3.515  11.294  0.4781  0.5056  0.5401
16420TIP3    H270752   6.205   3.593  11.395  0.1194  0.9151 -0.0500
16421TIP3   OH270753   6.498   5.085   0.070  0.4725  0.0106 -0.1580
16421TIP3    H170754   6.581   5.038   0.077  1.1761  1.4258  2.4185
16421TIP3    H270755   6.433   5.025   0.106  1.0612  0.2392  1.3678
16422TIP3   OH270756   0.884   5.923   5.108  0.0246  0.0583  0.3056
16422TIP3    H170757   0.903   5.938   5.201 -2.6881  1.1503  0.7939
16422TIP3    H270758   0.941   5.984   5.062  3.7536 -2.6308  0.8723
16423TIP3   OH270759   0.595   1.185   1.650  0.1357 -0.1228 -0.7479
16423TIP3    H170760   0.655   1.210   1.720  2.1755  0.1105 -2.4579
16423TIP3    H270761   0.557   1.102   1.679  0.8948 -0.0202  0.6153
16424TIP3   OH270762   4.775   6.498   3.292  0.6030 -0.5896 -0.0389
16424TIP3    H170763   4.683   6.491   3.266  0.5589 -1.2537  0.2585
16424TIP3    H270764   4.823   6.504   3.210  0.1501  2.3569 -0.2008
16425TIP3   OH270765   1.170   6.108   4.209  0.3043 -0.2774  0.4011
16425TIP3    H170766   1.222   6.109   4.129  0.0899 -0.9393  0.2466
16425TIP3    H270767   1.165   6.200   4.236  1.4157 -0.1817  0.3314
16426TIP3   OH270768   2.795   4.645  12.647 -0.2530 -0.1595  0.2794
16426TIP3    H170769   2.813   4.699  12.570  2.3815 -0.4759  0.6055
16426TIP3    H270770   2.736   4.577  12.614 -2.4280  1.9358 -0.4743
16427TIP3   OH270771   2.552   0.413   3.613 -0.0896  0.2898 -0.1919
16427TIP3    H170772   2.630   0.440   3.565  0.4148 -0.7900  0.0079
16427TIP3    H270773   2.583   0.391   3.700 -0.5460 -0.5189 -0.2252
16428TIP3   OH270774   1.814   0.654  14.072 -0.3424 -0.1739  0.1676
16428TIP3    H170775   1.725   0.672  14.103  0.0965 -0.1192  1.4284
16428TIP3    H270776   1.812   0.561  14.047 -0.2564 -0.7193  2.0566
16429TIP3   OH270777   6.350   1.811  12.120  0.0772 -0.3450 -0.3528
16429TIP3    H170778   6.284   1.878  12.138 -0.3215 -0.9069  0.3771
16429TIP3    H270779   6.301   1.728  12.124  0.4825 -0.6639 -1.6307
16430TIP3   OH270780   5.956   5.310  13.546 -0.6843 -0.2908 -0.2234
16430TIP3    H170781   5.975   5.371  13.617 -0.4996 -0.8600  0.2289
16430TIP3    H270782   5.860   5.303  13.545 -0.6486 -1.5223  1.0796
16431TIP3   OH270783   5.246   3.478   5.148 -0.2018 -0.6898  0.3923
16431TIP3    H170784   5.168   3.474   5.203  0.0406 -1.1183  0.7064
16431TIP3    H270785   5.247   3.395   5.101 -0.9839  0.0908 -1.0655
16432TIP3   OH270786   2.778   3.947   6.299  0.3253 -0.4227 -0.1475
16432TIP3    H170787   2.764   4.039   6.278  0.6389  0.4465  2.9779
16432TIP3    H270788   2.819   3.948   6.385 -2.2727 -3.5058  1.3445
16433TIP3   OH270789   4.384   4.145  17.194  0.4687  1.0326  0.0277
16433TIP3    H170790   4.437   4.107  17.264 -0.8530 -1.2472 -0.1299
16433TIP3    H270791   4.429   4.227  17.172  1.2088  1.5793  3.1582
16434TIP3   OH270792   3.787   2.565   1.778 -0.3607 -0.5330 -0.6852
16434TIP3    H170793   3.777   2.650   1.821  0.8933 -1.4855  1.6784
16434TIP3    H270794   3.741   2.503   1.835  0.7659 -1.7716 -1.0738
16435TIP3   OH270795   5.141   6.306  11.209 -0.1004 -0.0472  0.2193
16435TIP3    H170796   5.130   6.231  11.151 -1.9643 -0.4591  1.0078
16435TIP3    H270797   5.098   6.379  11.163  0.7637  0.2778 -0.0778
16436TIP3   OH270798   3.617   3.223  15.172 -0.3031 -0.4860  0.2617
16436TIP3    H170799   3.597   3.252  15.261 -0.3431 -1.0048  0.4271
16436TIP3    H270800   3.534   3.228  15.126 -0.3441 -0.4969  0.3342
16437TIP3   OH270801   2.855   2.586   0.392 -0.2747  0.0011  0.6404
16437TIP3    H170802   2.803   2.620   0.465  0.1678 -0.4765  1.1816
16437TIP3    H270803   2.945   2.585   0.425  0.4388  2.6181 -0.8970
16438TIP3   OH270804   0.978   0.826   1.108 -0.2852 -0.0314  0.3905
16438TIP3    H170805   0.927   0.839   1.188  0.3503  2.7227  0.4467
16438TIP3    H270806   0.918   0.779   1.049 -2.6117  2.2390  0.7761
16439TIP3   OH270807   2.745   3.511   3.291 -0.6138  0.6080 -0.5843
16439TIP3    H170808   2.672   3.453   3.266 -0.5520  0.4930 -0.4988
16439TIP3    H270809   2.765   3.560   3.211  0.6502 -0.9078 -1.2519
16440TIP3   OH270810   2.490   0.088   5.676 -0.7177  0.2572 -0.1590
16440TIP3    H170811   2.568   0.034   5.665 -0.3720  0.6815  0.1727
16440TIP3    H270812   2.522   0.178   5.669 -1.1504  0.4394  0.1558
16441TIP3   OH270813   3.082   3.896   1.586  0.3980  0.0617  0.5107
16441TIP3    H170814   3.050   3.850   1.663 -0.8640 -2.0242 -1.1215
16441TIP3    H270815   3.015   3.962   1.567 -0.2949 -0.7096  0.1682
16442TIP3   OH270816   3.968   5.860  15.764 -0.1588 -0.1917  0.4830
16442TIP3    H170817   3.904   5.915  15.809 -1.3061 -1.1178  0.0463
16442TIP3    H270818   3.932   5.849  15.676  0.1912 -1.3553  0.4623
16443TIP3   OH270819   4.933   2.417   3.407 -0.6912  0.6704 -0.7600
16443TIP3    H170820   4.852   2.381   3.442  0.0714 -0.5235 -0.1457
16443TIP3    H270821   4.995   2.344   3.410  0.4546  1.5963 -1.0711
16444TIP3   OH270822   2.032   4.181  16.232 -0.8618  0.2729 -0.3558
16444TIP3    H170823   1.953   4.130  16.253 -1.0095  1.0391  1.1073
16444TIP3    H270824   2.002   4.271  16.228  0.1743  0.8356  2.1826
16445TIP3   OH270825   3.791   5.865  16.233 -0.2290  0.2848 -0.4778
16445TIP3    H170826   3.819   5.826  16.316  1.9076 -0.0129 -1.2596
16445TIP3    H270827   3.769   5.790  16.178  0.1823  0.3792 -0.7717
16446TIP3   OH270828   1.455   3.690   5.776 -0.5952 -0.2392 -0.1649
16446TIP3    H170829   1.484   3.625   5.712 -0.5489 -0.1689 -0.2141
16446TIP3    H270830   1.532   3.706   5.830 -0.9002 -1.0423  0.5304
16447TIP3   OH270831   5.691   3.959   6.828 -0.1650 -0.3910  0.3231
16447TIP3    H170832   5.668   4.048   6.857  1.1359 -0.6811  2.3753
16447TIP3    H270833   5.650   3.901   6.892 -0.8981 -1.3167 -0.9296
16448TIP3   OH270834   3.703   4.540  14.630  0.8369  0.3560  0.2857
16448TIP3    H170835   3.704   4.632  14.657 -0.4313  0.1087  1.2390
16448TIP3    H270836   3.693   4.491  14.712 -1.7080 -0.4926 -0.4472
16449TIP3   OH270837   4.137   2.404  17.029 -0.3227  0.1219  0.1377
16449TIP3    H170838   4.137   2.499  17.017 -0.5632 -0.1374 -2.2815
16449TIP3    H270839   4.132   2.392  17.124  0.5026  2.5121  0.5404
16450TIP3   OH270840   6.310   1.797   2.929  0.3828  0.7756  0.0516
16450TIP3    H170841   6.232   1.831   2.885  0.2450 -0.8262 -1.0564
16450TIP3    H270842   6.300   1.702   2.925  1.1519  0.5518  2.2317
16451TIP3   OH270843   1.623   1.282   6.507 -0.1202 -0.0785 -0.1685
16451TIP3    H170844   1.636   1.197   6.549  0.4411 -0.4439 -1.0424
16451TIP3    H270845   1.535   1.277   6.469 -0.6822  0.3039  1.0431
16452TIP3   OH270846   3.867   0.864   0.762 -0.4469 -0.0411 -0.2011
16452TIP3    H170847   3.898   0.924   0.829  0.4703 -1.2010  0.4580
16452TIP3    H270848   3.818   0.919   0.701 -0.1114  1.2639  0.6637
16453TIP3   OH270849   1.402   4.898   2.888 -0.2434 -0.0227 -0.2277
16453TIP3    H170850   1.350   4.975   2.911  1.1167  0.7713  0.2989
16453TIP3    H270851   1.375   4.832   2.951  0.9445  1.0737  1.5099
16454TIP3   OH270852   5.115   6.546   4.652  0.3706 -0.3438  0.3982
16454TIP3    H170853   5.071   6.540   4.567  0.7088  0.4301  0.1591
16454TIP3    H270854   5.045   6.540   4.716  0.1084 -0.8985  0.0714
16455TIP3   OH270855   6.725   3.629   1.176 -0.1163  0.3784 -0.6983
16455TIP3    H170856   6.693   3.660   1.091  2.3813 -0.1340 -1.9164
16455TIP3    H270857   6.696   3.538   1.181 -2.0747  0.9840  0.0314
16456TIP3   OH270858   3.384   3.768   3.475 -0.3019 -0.0501  0.5770
16456TIP3    H170859   3.427   3.852   3.493  3.3234 -1.7030  0.6454
16456TIP3    H270860   3.329   3.753   3.552  0.0088  1.6632  1.1815
16457TIP3   OH270861   6.085   6.071   0.114 -0.1673 -0.1543  0.2138
16457TIP3    H170862   6.041   6.148   0.077 -1.7284  0.0305  2.2895
16457TIP3    H270863   6.114   6.022   0.037  0.5740  2.2917 -1.1762
16458TIP3   OH270864   3.642   5.085   0.221  0.5727 -0.6596  0.0104
16458TIP3    H170865   3.695   5.158   0.252  0.0730 -0.6206  0.7874
16458TIP3    H270866   3.662   5.014   0.282  1.0853 -1.1961 -0.7605
16459TIP3   OH270867   0.889   3.780   0.063  0.0188  0.7521  0.0458
16459TIP3    H170868   0.870   3.871   0.083 -1.0886  0.7617 -0.9118
16459TIP3    H270869   0.831   3.730   0.121  2.1731  0.5356  2.1712
16460TIP3   OH270870   5.266   6.026  16.111 -0.4711  0.7596 -0.0742
16460TIP3    H170871   5.358   6.007  16.090 -0.0716  1.2203  1.1257
16460TIP3    H270872   5.218   6.005  16.031  0.3522 -1.8363  0.0069
16461TIP3   OH270873   1.437   6.630  14.019  0.5344  0.2410 -0.6688
16461TIP3    H170874   1.437   6.589  14.105 -0.1790  0.8942 -0.3400
16461TIP3    H270875   1.509   6.588  13.972  2.0663  1.0699  0.8224
16462TIP3   OH270876   1.139   4.687  11.053  0.0266 -0.5099 -0.5243
16462TIP3    H170877   1.149   4.658  10.963  0.2336 -2.6168  0.1250
16462TIP3    H270878   1.056   4.648  11.082 -0.3082  0.5793  0.0642
16463TIP3   OH270879   2.709   4.471  16.852  0.0724  0.1823 -0.4384
16463TIP3    H170880   2.698   4.381  16.882 -1.7686  0.5725  0.2367
16463TIP3    H270881   2.799   4.494  16.876  0.8731 -1.7178 -1.4162
16464TIP3   OH270882   0.595   3.299   4.236  0.3525  0.0761  0.2626
16464TIP3    H170883   0.600   3.369   4.171  0.9972  1.2481  1.5444
16464TIP3    H270884   0.643   3.226   4.196 -0.5622  0.2420 -1.2015
16465TIP3   OH270885   6.130   3.325  13.604  0.2207 -0.6075  0.7992
16465TIP3    H170886   6.145   3.276  13.685 -1.3293 -2.0189  0.2949
16465TIP3    H270887   6.067   3.392  13.628  0.3847 -0.4982  0.9298
16466TIP3   OH270888   5.512   3.335  12.563 -0.1779 -0.1863 -0.2523
16466TIP3    H170889   5.596   3.365  12.530  1.4041 -2.5388  1.3690
16466TIP3    H270890   5.518   3.345  12.658 -1.8324 -0.2046 -0.1036
16467TIP3   OH270891   3.203   0.113  12.803 -0.7487 -0.0489  0.8841
16467TIP3    H170892   3.192   0.090  12.711  0.6960  0.1335  0.6306
16467TIP3    H270893   3.211   0.030  12.849 -1.3545 -0.1384  0.8240
16468TIP3   OH270894   4.880   4.784   2.370  0.7395 -0.0800  0.3722
16468TIP3    H170895   4.806   4.795   2.310  0.8524 -2.2394 -0.2344
16468TIP3    H270896   4.872   4.857   2.431 -3.2505 -1.3474  1.6851
16469TIP3   OH270897   4.764   5.843   4.577  0.0823  0.1037  0.0769
16469TIP3    H170898   4.801   5.879   4.496 -0.6346 -0.5750 -0.5747
16469TIP3    H270899   4.819   5.768   4.597 -1.3179 -1.3729 -1.3200
16470TIP3   OH270900   6.459   0.910  15.351 -0.3068  0.7584  0.7050
16470TIP3    H170901   6.523   0.840  15.361 -1.4675 -0.6477 -1.0085
16470TIP3    H270902   6.508   0.991  15.369  1.8302 -0.2705 -0.1265
16471TIP3   OH270903   6.160   5.885   5.284 -0.1732 -0.2585  0.2903
16471TIP3    H170904   6.088   5.885   5.221  0.5209  1.0616 -0.5524
16471TIP3    H270905   6.239   5.881   5.230  0.4463 -3.6799  1.2392
16472TIP3   OH270906   3.830   5.837  13.883  0.2624 -0.0928  0.3591
16472TIP3    H170907   3.750   5.817  13.834 -0.8860  1.0134  1.6711
16472TIP3    H270908   3.896   5.778  13.847 -0.9721 -0.5780 -1.2305
16473TIP3   OH270909   4.454   0.230  17.438 -0.4169 -0.4656  0.0390
16473TIP3    H170910   4.428   0.322  17.442 -1.5840 -0.7711 -0.3089
16473TIP3    H270911   4.527   0.229  17.376 -2.2202 -0.1398 -2.2152
16474TIP3   OH270912   1.027   0.877  13.867 -0.0824 -0.4908  0.3901
16474TIP3    H170913   1.090   0.944  13.897 -0.4601 -0.2808  0.7205
16474TIP3    H270914   1.042   0.803  13.925  0.3299 -0.6977  0.0299
16475TIP3   OH270915   2.850   0.134   1.867 -0.8076 -0.0596  0.0673
16475TIP3    H170916   2.829   0.133   1.773  3.0520 -2.2163 -1.0277
16475TIP3    H270917   2.846   0.042   1.893 -0.1904  0.3073  1.5277
16476TIP3   OH270918   2.630   6.769  12.848 -0.0311  0.0584 -0.4082
16476TIP3    H170919   2.712   6.782  12.897 -1.0178 -0.7079  1.5732
16476TIP3    H270920   2.580   6.708  12.902 -2.5271  1.6017 -0.8268
16477TIP3   OH270921   2.746   3.670   3.049 -0.1847  0.0998 -0.3509
16477TIP3    H170922   2.653   3.682   3.067 -0.0743 -0.1522  0.4462
16477TIP3    H270923   2.749   3.615   2.971 -0.6897  1.7407 -1.5986
16478TIP3   OH270924   3.617   1.625  16.682 -0.4653  0.3717 -0.2254
16478TIP3    H170925   3.704   1.640  16.646  0.0045  1.8444  1.3594
16478TIP3    H270926   3.564   1.594  16.608  1.0529  0.7493 -1.5129
16479TIP3   OH270927   2.504   5.124  16.487 -0.4619 -0.1171 -0.4564
16479TIP3    H170928   2.477   5.109  16.578  2.3130 -2.0363  0.1939
16479TIP3    H270929   2.479   5.044  16.441  0.4917 -0.2753 -0.7276
16480TIP3   OH270930   1.956   4.647  13.378 -0.7411  0.1917 -0.5963
16480TIP3    H170931   1.910   4.731  13.373 -0.3311  0.6988  2.2439
16480TIP3    H270932   2.039   4.662  13.332 -0.1029  1.8395  0.9510
16481TIP3   OH270933   2.170   4.596  16.671  0.1271 -1.2252  0.4381
16481TIP3    H170934   2.265   4.606  16.669 -0.0597  1.2247 -1.1068
16481TIP3    H270935   2.146   4.622  16.760  0.8688 -1.4328  0.7107
16482TIP3   OH270936   0.026   4.179  15.540  0.1762 -0.1970  0.9283
16482TIP3    H170937   0.054   4.141  15.623  1.2934  1.2349  1.2565
16482TIP3    H270938   0.034   4.108  15.477 -1.0614 -1.4078  2.0963
16483TIP3   OH270939   6.617   2.032   1.627 -0.1581 -0.2291  0.1042
16483TIP3    H170940   6.601   2.066   1.715  0.1525  0.4776 -0.1109
16483TIP3    H270941   6.531   2.001   1.598 -0.4813  0.4943  0.2561
16484TIP3   OH270942   4.604   5.418   2.484 -0.2256  0.6202 -0.2660
16484TIP3    H170943   4.643   5.338   2.450 -2.1743 -0.5959  0.1663
16484TIP3    H270944   4.592   5.402   2.577  0.3546  1.8681  0.0435
16485TIP3   OH270945   3.489   6.707  13.331 -0.0304 -0.1013 -0.3185
16485TIP3    H170946   3.466   6.773  13.265 -0.2669 -0.1323 -0.2703
16485TIP3    H270947   3.406   6.688  13.375  0.2376  0.3607  0.4020
16486TIP3   OH270948   3.250   4.860  14.966 -0.6503  0.4283  0.0641
16486TIP3    H170949   3.323   4.821  14.918  0.2258  1.3532  0.5974
16486TIP3    H270950   3.210   4.787  15.013  0.5760  0.0583  0.5693
16487TIP3   OH270951   1.774   0.674  16.075 -0.1506  0.0327  0.2889
16487TIP3    H170952   1.719   0.731  16.021 -1.5910 -1.7452 -0.2371
16487TIP3    H270953   1.712   0.614  16.116  1.3811 -1.8594 -0.0458
16488TIP3   OH270954   1.887   1.544   5.457 -0.1530 -0.7645  0.5210
16488TIP3    H170955   1.868   1.569   5.367  1.4166  1.6747  0.7781
16488TIP3    H270956   1.837   1.464   5.471 -4.9693  1.6711 -0.7514
16489TIP3   OH270957   3.355   0.287   1.383 -0.2492 -0.2781  0.2954
16489TIP3    H170958   3.440   0.319   1.412  1.1188 -2.0677 -1.4646
16489TIP3    H270959   3.292   0.327   1.444  1.9578 -0.2790  2.7588
16490TIP3   OH270960   0.845   4.751   3.487  0.4059  0.5041  0.5435
16490TIP3    H170961   0.877   4.837   3.460  1.4481  0.0386  0.2069
16490TIP3    H270962   0.752   4.751   3.465  1.3164 -0.2988 -4.5934
16491TIP3   OH270963   2.193   2.107   6.458 -0.1082  0.3086  0.3603
16491TIP3    H170964   2.286   2.116   6.479 -0.2531  1.8395  0.5029
16491TIP3    H270965   2.148   2.146   6.532 -0.8691 -0.2616  0.2125
16492TIP3   OH270966   0.260   0.413  15.014  0.2463  0.2531  0.5405
16492TIP3    H170967   0.245   0.398  15.107 -0.1519  1.4200  0.6788
16492TIP3    H270968   0.354   0.423  15.006  0.4228 -1.1468  0.5987
16493TIP3   OH270969   3.739   4.408  14.383  0.2851 -0.1514  0.3977
16493TIP3    H170970   3.725   4.450  14.468  0.2177  1.8382 -0.5319
16493TIP3    H270971   3.675   4.337  14.380 -1.7750  1.5669  0.8719
16494TIP3   OH270972   0.569   4.592   0.261  0.3529 -0.4457 -0.1873
16494TIP3    H170973   0.534   4.587   0.172  0.2629  1.0769 -0.2690
16494TIP3    H270974   0.562   4.685   0.284  2.8062 -0.3315  0.4093
16495TIP3   OH270975   5.063   2.679  12.498 -0.0331  0.0302  0.0862
16495TIP3    H170976   5.129   2.722  12.444  0.9818 -2.6153 -0.9013
16495TIP3    H270977   5.029   2.609  12.443 -0.6799 -1.2746  2.0703
16496TIP3   OH270978   1.833   0.697  11.826 -0.2464 -0.0778 -0.1489
16496TIP3    H170979   1.786   0.730  11.903 -0.8385  0.3323 -0.6687
16496TIP3    H270980   1.894   0.767  11.803  0.0503 -0.2706  0.0429
16497TIP3   OH270981   3.773   5.504   4.844 -0.0113  0.2800 -0.2413
16497TIP3    H170982   3.768   5.502   4.940 -0.4384  1.2531 -0.2293
16497TIP3    H270983   3.706   5.567   4.818 -2.1729 -2.2965 -1.3848
16498TIP3   OH270984   6.252   2.266  12.723 -0.4415 -0.2685  0.4613
16498TIP3    H170985   6.222   2.319  12.649  1.2908 -1.0686 -0.8750
16498TIP3    H270986   6.323   2.317  12.762  2.9438 -2.3800 -2.3045
16499TIP3   OH270987   5.321   2.310   1.375 -0.0115 -0.2928 -0.3710
16499TIP3    H170988   5.258   2.262   1.428  0.9535 -1.2004 -0.0193
16499TIP3    H270989   5.326   2.397   1.416  0.7587 -0.9977  1.0791
16500TIP3   OH270990   4.531   5.811  17.123 -0.0824 -0.0276  0.3773
16500TIP3    H170991   4.584   5.732  17.109 -2.1449 -1.7606  1.8319
16500TIP3    H270992   4.557   5.841  17.210 -0.8956 -0.4340  0.7664
16501TIP3   OH270993   4.680   1.349  13.138 -0.1826  0.6675 -0.1081
16501TIP3    H170994   4.635   1.267  13.162  1.5772  0.5983  3.5913
16501TIP3    H270995   4.717   1.331  13.052 -0.9456 -1.9880  0.0138
16502TIP3   OH270996   1.217   0.736   2.294  0.1117  0.1439  0.3445
16502TIP3    H170997   1.205   0.761   2.386  1.4245 -1.0128  0.8575
16502TIP3    H270998   1.255   0.814   2.253  1.0793  0.1171  1.1681
16503TIP3   OH270999   0.168   2.373  17.144 -0.0626  0.1018 -0.7631
16503TIP3    H171000   0.249   2.363  17.094 -0.3311 -0.2648 -1.1439
16503TIP3    H271001   0.114   2.299  17.116 -0.2095 -0.1311  0.1063
16504TIP3   OH271002   1.560   3.875  12.096  0.3250  0.9798 -0.2386
16504TIP3    H171003   1.554   3.876  12.000 -1.4481 -1.0533 -0.2095
16504TIP3    H271004   1.651   3.850  12.113 -0.0813 -1.6970 -1.4962
16505TIP3   OH271005   1.516   1.931  14.821  0.3873  0.3107  0.0554
16505TIP3    H171006   1.579   1.945  14.891 -0.5559 -0.8413  1.1864
16505TIP3    H271007   1.434   1.911  14.866 -0.5170  0.6217 -1.3797
16506TIP3   OH271008   3.687   1.859   4.281 -0.1751 -0.4348 -0.0943
16506TIP3    H171009   3.667   1.767   4.294 -1.6005 -0.2182 -0.5385
16506TIP3    H271010   3.621   1.906   4.332 -0.0406  0.3405 -0.6022
16507TIP3   OH271011   1.207   0.782  14.072 -0.3878  0.5918 -0.5429
16507TIP3    H171012   1.151   0.704  14.080 -0.4000  0.7181  0.9799
16507TIP3    H271013   1.269   0.761  14.003 -1.9744  0.2293 -1.9121
16508TIP3   OH271014   2.065   0.900   1.353 -0.0152  0.5558 -0.2071
16508TIP3    H171015   2.160   0.907   1.346  0.1053  1.8039  1.8898
16508TIP3    H271016   2.033   0.990   1.345 -0.9526  0.2377 -0.1531
16509TIP3   OH271017   0.754   1.700  13.605  0.2175  0.4959 -0.1749
16509TIP3    H171018   0.723   1.658  13.685 -0.5246  1.3672  0.0240
16509TIP3    H271019   0.751   1.794  13.624  1.3290  0.6758 -0.7718
16510TIP3   OH271020   3.484   2.613   2.323  0.3897 -0.3985  0.7283
16510TIP3    H171021   3.550   2.665   2.369  0.1238  0.4110  0.2145
16510TIP3    H271022   3.425   2.678   2.283 -0.0242 -1.0908  0.1821
16511TIP3   OH271023   1.644   6.245   5.496 -0.3202 -0.6023  0.4298
16511TIP3    H171024   1.561   6.200   5.513 -1.9177  1.9652  0.0290
16511TIP3    H271025   1.637   6.274   5.405  0.0307  1.4518  1.0038
16512TIP3   OH271026   4.766   2.189   0.187 -0.2541 -0.3215 -0.1773
16512TIP3    H171027   4.691   2.170   0.243 -1.7919 -1.1682 -2.3890
16512TIP3    H271028   4.756   2.131   0.112  1.0111  1.5682 -1.9384
16513TIP3   OH271029   6.160   2.326  11.361  0.0731 -0.7396  0.4177
16513TIP3    H171030   6.174   2.345  11.454  0.0989  2.4877 -0.1328
16513TIP3    H271031   6.248   2.326  11.323 -0.0746  1.4289 -0.0828
16514TIP3   OH271032   2.559   3.397  11.049  0.8923  0.0548  0.2191
16514TIP3    H171033   2.533   3.320  10.997 -1.5576  0.2125  1.0733
16514TIP3    H271034   2.501   3.467  11.018  1.5598  0.9754  1.0075
16515TIP3   OH271035   0.618   5.232  13.960 -0.0029  0.2342  0.4484
16515TIP3    H171036   0.556   5.304  13.967  1.4552  1.4377  1.9598
16515TIP3    H271037   0.668   5.252  13.881  0.4772  0.9996  0.9257
16516TIP3   OH271038   2.753   5.742  15.673 -0.2081 -0.3752  0.2435
16516TIP3    H171039   2.729   5.815  15.731  2.6378  0.6766  0.2495
16516TIP3    H271040   2.798   5.680  15.730 -0.2464 -0.8871 -0.2753
16517TIP3   OH271041   5.968   2.521   6.648  0.1355 -0.3852  1.1690
16517TIP3    H171042   5.927   2.588   6.593  1.1377 -1.0789 -0.5058
16517TIP3    H271043   6.005   2.570   6.721 -1.5830  0.5253  1.4811
16518TIP3   OH271044   3.101   6.563  13.806  0.0656  0.0172  0.2862
16518TIP3    H171045   3.081   6.655  13.790  3.4151  0.7532 -0.3675
16518TIP3    H271046   3.081   6.550  13.899  0.9955  1.8667  0.7834
16519TIP3   OH271047   3.696   1.097  14.189  0.2219  0.3291 -0.1763
16519TIP3    H171048   3.745   1.110  14.270  1.1631 -1.6780 -0.3696
16519TIP3    H271049   3.763   1.073  14.124 -0.6815  0.4517 -1.1867
16520TIP3   OH271050   6.443   1.470  15.396  0.4226 -0.5960  0.3233
16520TIP3    H171051   6.382   1.543  15.406 -0.1298 -0.8708 -0.8488
16520TIP3    H271052   6.529   1.511  15.389  0.3834 -0.1917  1.7941
16521TIP3   OH271053   4.325   0.185   2.793 -0.0190 -0.1702  0.1877
16521TIP3    H171054   4.303   0.259   2.849 -1.5774 -1.6993  1.6944
16521TIP3    H271055   4.248   0.172   2.738 -0.1398 -1.2350  0.5928
16522TIP3   OH271056   1.909   5.129  12.442 -0.7731  0.7548  0.6471
16522TIP3    H171057   1.896   5.097  12.353 -2.5228  1.2890  0.6738
16522TIP3    H271058   1.979   5.074  12.478  0.3489  0.8855 -1.1998
16523TIP3   OH271059   1.116   1.604  12.628  0.0517  0.2899  0.1567
16523TIP3    H171060   1.037   1.595  12.573  0.0911 -1.0658  0.2845
16523TIP3    H271061   1.111   1.530  12.688  0.2294  1.5154  1.7413
16524TIP3   OH271062   1.169   1.425   5.702  0.0309 -0.2634  0.0243
16524TIP3    H171063   1.213   1.487   5.644 -0.1387  0.9617  1.1746
16524TIP3    H271064   1.239   1.391   5.758  0.0126 -0.6431 -0.1781
16525TIP3   OH271065   6.182   5.806  13.418  0.2100 -0.0670 -0.2303
16525TIP3    H171066   6.123   5.882  13.410 -2.1607 -1.6657  0.6747
16525TIP3    H271067   6.232   5.824  13.498 -0.5967  0.4158  0.1910
16526TIP3   OH271068   1.379   1.423   3.924 -0.0185  0.2085 -0.3937
16526TIP3    H171069   1.387   1.328   3.912  2.0456  0.4235 -1.2086
16526TIP3    H271070   1.315   1.450   3.858  0.0331 -0.5160 -0.7572
16527TIP3   OH271071   5.698   6.146   3.368  0.0600 -0.4671 -0.1929
16527TIP3    H171072   5.677   6.237   3.387 -0.1438 -0.5584  0.0150
16527TIP3    H271073   5.655   6.096   3.437  2.0395 -0.5741  1.0083
16528TIP3   OH271074   1.474   2.760   3.363  0.2164  0.2979  0.3592
16528TIP3    H171075   1.486   2.675   3.321 -0.5871  1.0616 -1.5274
16528TIP3    H271076   1.379   2.769   3.371  0.3054  0.8984  0.7829
16529TIP3   OH271077   6.427   4.180  15.144  0.2091  0.2872  0.1853
16529TIP3    H171078   6.490   4.222  15.203 -0.5056 -0.7612  1.7826
16529TIP3    H271079   6.358   4.245  15.133 -0.8376 -0.3105  2.5523
16530TIP3   OH271080   6.579   3.233   4.331  0.4417  0.2675 -1.0668
16530TIP3    H171081   6.652   3.185   4.370  0.2199 -0.3054 -1.3425
16530TIP3    H271082   6.602   3.325   4.343  1.3749  0.0973 -1.4683
16531TIP3   OH271083   5.954   4.104   2.814  0.0266 -0.1378  0.4095
16531TIP3    H171084   6.045   4.085   2.836 -0.1067 -0.4663  0.6794
16531TIP3    H271085   5.957   4.133   2.722  0.4918  0.5528  0.6291
16532TIP3   OH271086   6.574   5.521  13.469 -0.6961 -0.3711  0.3302
16532TIP3    H171087   6.587   5.427  13.456  0.8285 -0.2865  1.0340
16532TIP3    H271088   6.523   5.549  13.393 -0.0457 -1.5325 -0.5559
16533TIP3   OH271089   2.419   4.484   4.538  0.3554  0.1622 -0.1164
16533TIP3    H171090   2.344   4.472   4.596 -0.0207 -1.3246 -0.8631
16533TIP3    H271091   2.394   4.557   4.482  0.2178  0.8148  0.7709
16534TIP3   OH271092   1.724   4.947  12.252 -0.2270  0.2072 -0.0793
16534TIP3    H171093   1.716   4.954  12.156 -0.6072 -0.4629 -0.0964
16534TIP3    H271094   1.722   4.853  12.270  0.6515  0.2897  0.5264
16535TIP3   OH271095   3.691   3.700  15.804  0.3431 -0.3332  0.2016
16535TIP3    H171096   3.694   3.743  15.890 -0.6875  0.3120 -0.0704
16535TIP3    H271097   3.692   3.606  15.824 -0.6143 -0.2030  0.9685
16536TIP3   OH271098   4.469   1.921  11.304  0.8434  0.0124 -0.3632
16536TIP3    H171099   4.417   1.985  11.353  1.9320 -1.4193  2.9147
16536TIP3    H271100   4.489   1.965  11.221 -1.6639  2.3564  0.1400
16537TIP3   OH271101   5.904   1.780  13.575 -0.3566  0.6064  0.1404
16537TIP3    H171102   5.837   1.716  13.548 -0.7654 -0.2561  2.8886
16537TIP3    H271103   5.857   1.842  13.630  0.5543  1.7883 -0.3840
16538TIP3   OH271104   5.317   2.413  13.176 -0.0206 -0.3927 -0.0709
16538TIP3    H171105   5.337   2.450  13.090  0.2974 -0.9036 -0.2235
16538TIP3    H271106   5.381   2.453  13.235 -1.5302  1.5632  0.3595
16539TIP3   OH271107   5.815   0.803   2.465 -0.1871  0.1527  0.4213
16539TIP3    H171108   5.739   0.845   2.505 -1.1147  0.9975 -2.0402
16539TIP3    H271109   5.778   0.729   2.416  0.7688 -0.2914  0.3603
16540TIP3   OH271110   3.537   2.621  14.169 -0.5535 -0.1518 -0.4838
16540TIP3    H171111   3.541   2.648  14.261 -0.3013  0.1306 -0.5760
16540TIP3    H271112   3.507   2.699  14.122  0.0632 -0.0548 -0.7337
16541TIP3   OH271113   3.248   3.595  13.834 -0.0261  0.5336  0.1741
16541TIP3    H171114   3.203   3.661  13.886 -0.7661  0.6171 -0.5407
16541TIP3    H271115   3.191   3.519  13.838  0.2309  0.3321  0.0182
16542TIP3   OH271116   6.436   6.621   0.989 -0.6671 -0.3314  0.2518
16542TIP3    H171117   6.456   6.682   1.060  0.1963 -1.5244  1.0763
16542TIP3    H271118   6.501   6.551   0.998 -0.7573 -0.6920 -1.5070
16543TIP3   OH271119   1.150   0.834  14.842  0.5582 -0.0542 -0.5096
16543TIP3    H171120   1.190   0.789  14.767 -0.1499 -1.6495  0.0198
16543TIP3    H271121   1.217   0.829  14.910  0.3458 -0.6824 -0.3358
16544TIP3   OH271122   2.615   5.947   5.982  0.3965  0.4607  0.1291
16544TIP3    H171123   2.673   5.908   6.048  1.0707  0.7163 -0.2971
16544TIP3    H271124   2.527   5.920   6.008  0.8328 -1.2922 -0.1174
16545TIP3   OH271125   3.529   0.460  13.633 -0.1836 -0.7509 -0.2279
16545TIP3    H171126   3.529   0.396  13.705  0.5061  0.7060  1.1310
16545TIP3    H271127   3.594   0.525  13.659 -0.6974  0.3951 -1.6676
16546TIP3   OH271128   4.164   3.612   4.464 -0.0080 -0.7237 -0.5033
16546TIP3    H171129   4.233   3.586   4.404  0.4803 -1.8534  0.5220
16546TIP3    H271130   4.127   3.530   4.497 -1.1790 -0.1420 -0.2769
16547TIP3   OH271131   6.118   3.398   1.088 -0.6507  0.8714  0.3046
16547TIP3    H171132   6.203   3.430   1.119  0.2790 -0.8017 -0.4229
16547TIP3    H271133   6.068   3.383   1.169  0.4233  0.0904  0.8452
16548TIP3   OH271134   2.661   4.063  11.124  0.1453  0.3052 -0.0178
16548TIP3    H171135   2.598   3.991  11.119 -0.3063  0.6927 -0.0204
16548TIP3    H271136   2.742   4.023  11.154  0.0605 -0.3079 -0.5845
16549TIP3   OH271137   2.743   0.809   5.781  0.3602  0.3604 -0.0242
16549TIP3    H171138   2.806   0.819   5.709  0.1963 -1.5214 -0.4768
16549TIP3    H271139   2.797   0.795   5.858  0.6010 -2.1815 -0.5517
16550TIP3   OH271140   1.950   3.079   5.437  0.4281 -0.8799 -0.4715
16550TIP3    H171141   1.902   2.998   5.452 -0.9160 -0.2359 -1.0829
16550TIP3    H271142   1.921   3.109   5.351  0.6297  0.4143 -0.1195
16551TIP3   OH271143   1.960   5.403  11.981  0.2995 -0.1795  0.2129
16551TIP3    H171144   2.006   5.330  12.023 -0.3164  0.5022  2.1762
16551TIP3    H271145   2.021   5.434  11.914  0.6335 -2.3624 -0.5817
16552TIP3   OH271146   2.733   6.502  11.686 -0.0939  0.5427 -0.0641
16552TIP3    H171147   2.655   6.534  11.730  0.2857  0.5564  0.6058
16552TIP3    H271148   2.788   6.580  11.675  0.6245  0.2379  1.1434
16553TIP3   OH271149   2.838   2.636  15.155  0.8681 -0.1132  0.6283
16553TIP3    H171150   2.786   2.715  15.140  1.2973  0.7486  3.1511
16553TIP3    H271151   2.774   2.566  15.170  0.4866 -0.2964 -1.6034
16554TIP3   OH271152   6.000   0.156  11.381 -0.2090  0.1718  0.2728
16554TIP3    H171153   6.041   0.242  11.383 -1.2057  0.6379  2.5035
16554TIP3    H271154   6.075   0.095  11.378  0.5231  1.0529  0.0501
16555TIP3   OH271155   4.353   0.911   1.727  0.1846  0.0384 -0.2705
16555TIP3    H171156   4.323   0.972   1.660 -1.8722 -1.2270 -0.6160
16555TIP3    H271157   4.354   0.963   1.808 -4.4029  0.0975  0.0463
16556TIP3   OH271158   2.600   5.897   2.781  0.0748 -0.4476  0.0936
16556TIP3    H171159   2.540   5.969   2.759  0.7216  0.7438  1.9309
16556TIP3    H271160   2.544   5.831   2.823 -0.4568 -0.8693 -1.2299
16557TIP3   OH271161   1.658   4.824   0.393 -0.2546 -0.1241  0.2186
16557TIP3    H171162   1.646   4.769   0.470 -0.4524 -2.9840 -1.6929
16557TIP3    H271163   1.738   4.791   0.352 -1.3396 -0.2648 -1.9445
16558TIP3   OH271164   3.254   2.641  12.799 -0.1939  0.1229 -0.1408
16558TIP3    H171165   3.340   2.621  12.764  0.9191  0.5734  2.1314
16558TIP3    H271166   3.269   2.712  12.862 -2.2307  0.2773  0.2616
16559TIP3   OH271167   6.185   6.074  14.641  0.2877 -0.3604 -0.5274
16559TIP3    H171168   6.097   6.104  14.617 -0.0080 -2.3372 -2.0858
16559TIP3    H271169   6.217   6.143  14.700 -1.5666  1.3375 -1.3597
16560TIP3   OH271170   1.287   3.201   1.165  0.0204 -0.4369  0.2316
16560TIP3    H171171   1.347   3.212   1.239  1.2590 -1.6859 -0.5349
16560TIP3    H271172   1.262   3.290   1.141  1.6241  0.1343  0.5468
16561TIP3   OH271173   0.010   6.508  10.674  0.2281 -0.3144 -0.3527
16561TIP3    H171174  -0.013   6.587  10.722  1.5369 -0.3185  0.3061
16561TIP3    H271175  -0.059   6.500  10.608 -1.3146 -0.0087  1.1436
16562TIP3   OH271176   4.863   3.681  17.274  0.3803  0.6707 -0.2400
16562TIP3    H171177   4.779   3.720  17.297  0.5379  0.2859  1.0166
16562TIP3    H271178   4.890   3.729  17.195 -0.7460  1.1677 -0.3449
16563TIP3   OH271179   2.655   1.048   2.256 -0.1737  0.3502 -0.0079
16563TIP3    H171180   2.629   1.034   2.347  0.9638 -0.1098  0.2735
16563TIP3    H271181   2.623   0.972   2.209 -0.7026  0.5543  0.0219
16564TIP3   OH271182   3.982   1.790  14.856  0.1777 -0.9266  0.2153
16564TIP3    H171183   4.045   1.722  14.878 -0.6508 -1.8304 -0.0945
16564TIP3    H271184   3.967   1.838  14.937  1.7180 -0.2862  0.1474
16565TIP3   OH271185   0.134   6.733  12.676 -0.2001 -0.1424 -0.2310
16565TIP3    H171186   0.142   6.815  12.726  0.2547 -0.8241  0.8602
16565TIP3    H271187   0.215   6.686  12.695  0.7943  0.2635 -2.9903
16566TIP3   OH271188   4.665   4.036   1.070 -0.2955 -0.1375 -0.3209
16566TIP3    H171189   4.595   3.971   1.073 -0.1800 -0.3597 -1.6183
16566TIP3    H271190   4.714   4.015   0.990  0.3315  0.9489 -0.2492
16567TIP3   OH271191   4.983   5.444   5.335  0.6683  0.5450  0.1394
16567TIP3    H171192   5.045   5.377   5.363  0.3716  0.5291  0.7630
16567TIP3    H271193   5.018   5.525   5.372 -0.1406  0.4110  1.2239
16568TIP3   OH271194   1.595   4.987  16.395  0.0312 -0.1369  0.2014
16568TIP3    H171195   1.530   4.938  16.345  0.3212 -0.7679  0.4421
16568TIP3    H271196   1.674   4.986  16.341  0.3345 -0.7901  0.6525
16569TIP3   OH271197   5.520   0.002   1.223  0.2850 -0.3021  0.2509
16569TIP3    H171198   5.509   0.071   1.288  0.3776 -0.4606  0.4377
16569TIP3    H271199   5.470   0.031   1.147 -2.0218 -1.3172  1.2781
16570TIP3   OH271200   6.358   5.493  16.055 -0.1798 -0.5155 -0.1637
16570TIP3    H171201   6.348   5.561  16.122 -1.4689 -0.5343 -0.3018
16570TIP3    H271202   6.441   5.450  16.076  1.1660  1.6912 -0.6428
16571TIP3   OH271203   5.509   4.164  16.694 -0.0740  0.8249 -0.0347
16571TIP3    H171204   5.527   4.071  16.710 -0.4842  0.6713 -0.4390
16571TIP3    H271205   5.455   4.191  16.768 -1.3989  0.2906 -0.7827
16572TIP3   OH271206   2.693   0.878   4.316 -0.1748 -0.2838 -0.7233
16572TIP3    H171207   2.677   0.926   4.234  0.1453  1.6175  0.2865
16572TIP3    H271208   2.635   0.802   4.310 -2.4722  1.4137 -1.3991
16573TIP3   OH271209   4.612   2.202   2.047 -0.0277 -0.1424 -0.8010
16573TIP3    H171210   4.572   2.229   2.130  0.2082  2.3564 -1.4193
16573TIP3    H271211   4.697   2.167   2.072 -0.6351 -1.0099  0.1304
16574TIP3   OH271212   3.951   1.741   0.103 -0.1593  0.0793 -0.0029
16574TIP3    H171213   4.027   1.684   0.114  0.2837  0.5303 -0.6878
16574TIP3    H271214   3.877   1.681   0.095  0.3699 -0.4270 -1.2873
16575TIP3   OH271215   0.053   1.705   4.837  0.4415  0.1692  0.1403
16575TIP3    H171216   0.027   1.656   4.915 -0.0575  1.9047  1.1123
16575TIP3    H271217   0.048   1.797   4.863  1.5881  0.7585 -1.5456
16576TIP3   OH271218   1.748   0.775  12.057 -0.0139  0.0605  0.0995
16576TIP3    H171219   1.673   0.810  12.107 -0.0461 -0.9263  0.7590
16576TIP3    H271220   1.769   0.693  12.100  1.9841  0.7004  0.4329
16577TIP3   OH271221   0.733   3.803   4.087 -0.2058 -0.2930  0.3907
16577TIP3    H171222   0.717   3.883   4.138  2.7599  0.5449  0.1600
16577TIP3    H271223   0.790   3.750   4.143  0.2302 -0.9297 -0.6353
16578TIP3   OH271224   2.388   4.371  13.082  0.3668 -0.1219 -0.0699
16578TIP3    H171225   2.400   4.425  13.160 -2.6627 -1.1862  1.2467
16578TIP3    H271226   2.438   4.292  13.100 -0.1225 -0.2630  0.7193
16579TIP3   OH271227   0.852   5.228  15.880 -0.2704  0.2351 -0.1015
16579TIP3    H171228   0.899   5.165  15.825 -0.9289 -0.0038 -0.4004
16579TIP3    H271229   0.912   5.245  15.953  0.0470 -0.4918 -0.1823
16580TIP3   OH271230   6.184   4.582  14.472 -0.6619  0.3822 -0.6103
16580TIP3    H171231   6.175   4.497  14.430 -0.8886  0.1665 -0.1352
16580TIP3    H271232   6.239   4.632  14.413 -0.0724 -0.2762 -0.6388
16581TIP3   OH271233   0.808   5.034   1.218  0.3598  0.2389  0.2695
16581TIP3    H171234   0.903   5.043   1.224  0.3081 -0.1698  2.6461
16581TIP3    H271235   0.774   5.093   1.286 -1.1773  1.3433 -1.3712
16582TIP3   OH271236   3.610   3.813   2.826  0.0775  0.1401  0.5963
16582TIP3    H171237   3.635   3.827   2.918  1.4666 -0.7120  0.3737
16582TIP3    H271238   3.693   3.815   2.778 -0.2538 -2.4259 -0.2390
16583TIP3   OH271239   2.184   0.434   4.386 -0.2847  0.3799 -0.4494
16583TIP3    H171240   2.190   0.528   4.401 -0.6209  0.2564  0.5660
16583TIP3    H271241   2.139   0.425   4.302 -0.0930  1.1236 -0.6342
16584TIP3   OH271242   2.378   1.551  12.313  0.3870 -0.0556  0.0114
16584TIP3    H171243   2.422   1.467  12.323 -0.3515 -0.2971  1.5320
16584TIP3    H271244   2.337   1.567  12.398  0.1968  1.6713 -0.3616
16585TIP3   OH271245   4.243   3.716  14.613 -0.3812  0.8776 -0.1955
16585TIP3    H171246   4.263   3.624  14.631  0.6243  0.9711 -0.7736
16585TIP3    H271247   4.179   3.740  14.680 -0.8391 -0.3038 -0.1770
16586TIP3   OH271248   4.559   1.488  14.466  0.1917 -0.1486  0.1784
16586TIP3    H171249   4.603   1.411  14.503 -0.6376 -1.5644 -1.6575
16586TIP3    H271250   4.506   1.521  14.538  1.3546 -0.6307  1.3120
16587TIP3   OH271251   0.690   4.374  13.820 -0.0147  0.5781  0.3624
16587TIP3    H171252   0.709   4.321  13.897  1.0899 -0.6786 -0.7359
16587TIP3    H271253   0.670   4.461  13.855  0.3681  0.0142  2.0598
16588TIP3   OH271254   5.355   5.138   6.295 -0.5231 -0.0552 -0.1686
16588TIP3    H171255   5.412   5.082   6.348 -0.3452 -0.3723 -0.6900
16588TIP3    H271256   5.325   5.082   6.224 -1.5691  0.0777  0.1439
16589TIP3   OH271257   3.145   0.531  13.011  0.2764 -0.0397  1.0049
16589TIP3    H171258   3.111   0.469  13.076  2.7886 -0.7333  1.7712
16589TIP3    H271259   3.158   0.478  12.932  0.4561 -0.0052  1.0113
16590TIP3   OH271260   6.461   2.997   4.046 -0.1926  0.1850  0.0301
16590TIP3    H171261   6.542   3.018   3.999 -0.8648  1.4591 -0.6179
16590TIP3    H271262   6.475   2.909   4.080  1.0152 -0.0827 -1.0664
16591TIP3   OH271263   2.926   1.735  14.070 -0.2771 -0.0938 -0.1866
16591TIP3    H171264   3.000   1.793  14.051 -0.0349  0.4756  2.1592
16591TIP3    H271265   2.883   1.723  13.986  1.9552  0.2825 -1.4663
16592TIP3   OH271266   1.003   3.783  11.841  0.1035  0.3876  0.4698
16592TIP3    H171267   0.936   3.716  11.853 -0.5135  1.2891  2.5053
16592TIP3    H271268   1.071   3.760  11.905  0.0234  1.4945  0.9729
16593TIP3   OH271269   4.376   4.748   2.025 -0.3565  0.1738  0.0209
16593TIP3    H171270   4.401   4.761   1.933 -1.1552 -0.9893 -0.3931
16593TIP3    H271271   4.388   4.833   2.066 -0.4138  0.8314 -1.2738
16594TIP3   OH271272   3.217   2.326  13.510  0.2255 -0.3800 -0.0444
16594TIP3    H171273   3.231   2.266  13.583  1.0164 -1.1259 -0.8013
16594TIP3    H271274   3.145   2.287  13.460  0.1235 -0.2102 -0.0327
16595TIP3   OH271275   0.373   6.250   6.205 -0.0944 -0.0600  0.2810
16595TIP3    H171276   0.281   6.251   6.232 -0.2503  0.9903 -0.2151
16595TIP3    H271277   0.394   6.342   6.189  0.9261 -0.3289 -0.0081
16596TIP3   OH271278   0.504   4.934   3.928 -0.1688  0.0574  0.0485
16596TIP3    H171279   0.472   4.962   3.842 -0.2680 -0.9053 -0.2344
16596TIP3    H271280   0.534   5.015   3.970  0.3267  0.4807 -1.0855
16597TIP3   OH271281   4.072   1.880   6.680 -0.8010 -0.2375  0.7561
16597TIP3    H171282   4.122   1.938   6.737 -0.1169 -1.3309  1.3069
16597TIP3    H271283   4.062   1.800   6.731 -1.6801 -0.6284 -0.0062
16598TIP3   OH271284   0.479   3.654   1.793  0.3477  0.2703  0.2001
16598TIP3    H171285   0.561   3.609   1.812  0.3084  0.4298  0.7661
16598TIP3    H271286   0.459   3.630   1.702  0.1323 -1.1638  0.5997
16599TIP3   OH271287   3.727   1.009   1.899 -0.0861  0.0717  0.6901
16599TIP3    H171288   3.703   0.994   1.991  1.2981  1.1285  1.2619
16599TIP3    H271289   3.645   1.036   1.858 -1.0497 -1.8736  1.2411
16600TIP3   OH271290   6.423   4.229   4.365  0.4424 -0.1018 -0.0492
16600TIP3    H171291   6.488   4.280   4.318  0.2880  0.9312  0.8165
16600TIP3    H271292   6.340   4.275   4.349  0.1579 -0.5780  0.0319
16601TIP3   OH271293   2.588   3.702   4.247  0.7445  0.0249 -0.0879
16601TIP3    H171294   2.566   3.796   4.244 -0.1946 -0.0928  1.7708
16601TIP3    H271295   2.672   3.696   4.202  1.6976  2.0400  1.2636
16602TIP3   OH271296   2.549   1.298   4.499  0.0311  0.0030  0.1138
16602TIP3    H171297   2.578   1.228   4.557  0.7048  1.4897  1.6679
16602TIP3    H271298   2.566   1.379   4.549  0.3852  1.3451 -2.0519
16603TIP3   OH271299   2.465   3.954  13.885 -0.8311  0.3891 -0.0214
16603TIP3    H171300   2.429   4.038  13.913 -1.6241  0.3650 -0.9267
16603TIP3    H271301   2.508   3.919  13.963 -3.2412  0.1486  1.3067
16604TIP3   OH271302   0.055   4.085   6.214 -0.2466 -0.7926 -0.6620
16604TIP3    H171303   0.001   4.011   6.186  0.4854 -0.8256 -2.0552
16604TIP3    H271304   0.070   4.069   6.307  0.3089 -2.6733 -1.0339
16605TIP3   OH271305   3.489   1.595  16.438 -0.0255 -0.1531 -0.1345
16605TIP3    H171306   3.527   1.581  16.351 -1.9054  1.7597 -1.3700
16605TIP3    H271307   3.395   1.594  16.423 -0.4990 -2.2973  2.3696
16606TIP3   OH271308   4.194   0.698  12.592  0.0858 -0.1117  0.0979
16606TIP3    H171309   4.122   0.653  12.636  0.0210 -1.2411 -1.1005
16606TIP3    H271310   4.197   0.784  12.633  0.3093 -1.2161  2.5924
16607TIP3   OH271311   5.186   4.529  14.332  0.2160 -0.0746 -0.5249
16607TIP3    H171312   5.224   4.605  14.377 -0.2577  0.3761 -0.8677
16607TIP3    H271313   5.257   4.464  14.331  0.3297  0.0128  0.5892
16608TIP3   OH271314   3.867   6.693  17.261  0.4138  0.1057  0.4119
16608TIP3    H171315   3.885   6.650  17.344  1.9275  0.6971  0.4102
16608TIP3    H271316   3.807   6.765  17.283  0.9300  0.3538  1.0299
16609TIP3   OH271317   0.383   4.686  13.031  0.0472 -0.0782 -0.0385
16609TIP3    H171318   0.405   4.716  12.943  2.9780  0.6577  0.8161
16609TIP3    H271319   0.468   4.669  13.072 -1.1096  0.9924  3.1159
16610TIP3   OH271320   3.928   0.736   6.307  0.1636 -0.3677 -0.4333
16610TIP3    H171321   3.889   0.819   6.334 -0.2887 -0.4168 -0.9262
16610TIP3    H271322   4.005   0.761   6.256 -0.6262 -0.2128 -1.5895
16611TIP3   OH271323   1.489   5.220   1.654  0.1262 -0.2853 -0.0641
16611TIP3    H171324   1.485   5.131   1.688  2.1404 -0.9788 -1.4917
16611TIP3    H271325   1.522   5.272   1.727  1.9509 -1.2932 -0.1297
16612TIP3   OH271326   4.731   3.663   3.964 -0.4844  0.0810  0.0239
16612TIP3    H171327   4.698   3.578   3.994  1.4263 -0.2953  1.1972
16612TIP3    H271328   4.717   3.661   3.869 -2.0075 -0.8191  0.2234
16613TIP3   OH271329   6.755   2.168  17.137  0.4224 -0.3859  0.0277
16613TIP3    H171330   6.673   2.216  17.143  0.2152 -0.5904 -0.9459
16613TIP3    H271331   6.731   2.077  17.154  0.6490 -0.3048  0.8665
16614TIP3   OH271332   3.513   5.223   2.608 -0.4521 -0.3277  0.1227
16614TIP3    H171333   3.527   5.249   2.699 -1.8186  0.9562  0.0018
16614TIP3    H271334   3.475   5.135   2.614  2.3743 -1.6578  0.6062
16615TIP3   OH271335   1.507   4.920   4.335  0.7341  0.3048  0.5844
16615TIP3    H171336   1.468   4.945   4.419 -0.3813 -0.8903  0.4512
16615TIP3    H271337   1.524   4.826   4.344 -1.0575 -0.2322 -1.1329
16616TIP3   OH271338   3.815   1.834   2.169 -0.0536  0.7633 -0.6603
16616TIP3    H171339   3.848   1.765   2.110 -0.5823 -1.3217  1.3236
16616TIP3    H271340   3.888   1.850   2.228 -0.0926  1.6157 -0.8415
16617TIP3   OH271341   6.383   3.088   4.937 -0.7218 -0.9214  0.4162
16617TIP3    H171342   6.317   3.021   4.923 -1.8251  0.1402  0.3283
16617TIP3    H271343   6.373   3.148   4.863 -1.5106  0.6858  1.7573
16618TIP3   OH271344   4.743   6.596  15.908  0.3766  0.1891 -0.0581
16618TIP3    H171345   4.696   6.660  15.855  0.4186 -0.2123 -0.5861
16618TIP3    H271346   4.695   6.593  15.991  0.9827  1.6846  0.3826
16619TIP3   OH271347   0.958   1.371  14.815  0.1536 -0.1307  0.8145
16619TIP3    H171348   0.866   1.376  14.790  1.2751  0.1932 -4.6182
16619TIP3    H271349   0.985   1.462  14.826 -0.0626 -0.2073  2.0597
16620TIP3   OH271350   0.695   5.106  16.643  0.5772  0.1483 -0.0179
16620TIP3    H171351   0.760   5.069  16.583 -0.2650 -0.3120 -0.6612
16620TIP3    H271352   0.682   5.038  16.709  2.1701  1.0017  1.2477
16621TIP3   OH271353   6.600   1.297   3.543  0.4877  0.0301 -0.1368
16621TIP3    H171354   6.629   1.338   3.462 -2.0092  2.0930 -0.1244
16621TIP3    H271355   6.632   1.353   3.613  1.1319 -0.7660  0.2298
16622TIP3   OH271356   1.988   3.881   4.568  0.0474 -0.5693  0.8776
16622TIP3    H171357   1.895   3.897   4.548  0.9564  3.8569 -0.8248
16622TIP3    H271358   2.024   3.844   4.487  0.2904  0.4922  0.4885
16623TIP3   OH271359   5.935   2.758   6.493 -0.5369 -1.0316  0.3342
16623TIP3    H171360   5.988   2.837   6.500 -1.2346 -0.4272 -0.8906
16623TIP3    H271361   5.869   2.767   6.561 -1.2975  0.0050 -0.5104
16624TIP3   OH271362   5.784   2.478  11.794 -0.2856 -0.5567  0.2982
16624TIP3    H171363   5.707   2.428  11.823 -1.1678 -0.1777 -1.2530
16624TIP3    H271364   5.857   2.417  11.802 -0.8812 -1.1903  1.0322
16625TIP3   OH271365   6.054   2.828  14.606  0.2861 -0.3272 -0.0928
16625TIP3    H171366   6.058   2.881  14.527 -0.4959  1.8360  1.2116
16625TIP3    H271367   6.134   2.848  14.653 -0.3435  0.3183  0.7466
16626TIP3   OH271368   3.546   2.699  15.022  0.3420  0.0332  0.4346
16626TIP3    H171369   3.546   2.788  14.987 -2.6204  0.3039  0.8199
16626TIP3    H271370   3.554   2.710  15.117 -0.4705 -0.0294  0.5229
16627TIP3   OH271371   4.481   3.407  15.226 -0.8657  0.4912 -0.1291
16627TIP3    H171372   4.569   3.440  15.208 -0.3336 -0.3359  0.7856
16627TIP3    H271373   4.478   3.322  15.182 -1.1545  0.4660 -0.0619
16628TIP3   OH271374   1.999   4.550  17.233 -0.3926  0.0957  0.0065
16628TIP3    H171375   2.010   4.480  17.298 -1.8910  1.2071  1.5516
16628TIP3    H271376   1.914   4.532  17.193 -0.6671  0.8692  0.2304
16629TIP3   OH271377   6.612   3.684  12.082  0.2290  0.0249 -0.4363
16629TIP3    H171378   6.567   3.685  12.166 -0.4925 -0.6739 -0.8047
16629TIP3    H271379   6.678   3.753  12.089 -0.3725  0.5203  0.3977
16630TIP3   OH271380   4.355   4.154  15.109  0.2607  0.5953 -0.5283
16630TIP3    H171381   4.438   4.200  15.116 -0.1787  1.4278 -0.6308
16630TIP3    H271382   4.373   4.079  15.053  0.7935  1.1305 -1.0754
16631TIP3   OH271383   3.090   4.094   2.098 -0.3622  0.3590  0.2069
16631TIP3    H171384   3.085   4.072   2.191 -0.8819  1.4814  0.4611
16631TIP3    H271385   3.001   4.080   2.066 -0.0548 -0.6060 -0.2810
16632TIP3   OH271386   4.097   6.084  11.989  0.0187 -0.0389 -0.3197
16632TIP3    H171387   4.100   6.003  11.938 -1.3118  0.0747 -0.6139
16632TIP3    H271388   4.068   6.056  12.076 -1.9858  0.2631 -0.8381
16633TIP3   OH271389   6.218   4.621  13.833  0.1571  0.0768  0.5181
16633TIP3    H171390   6.149   4.688  13.831 -0.1524 -0.2608 -0.1631
16633TIP3    H271391   6.299   4.671  13.824 -0.0740  0.3601 -0.0241
16634TIP3   OH271392   1.856   5.039  14.438 -0.8157  0.2090 -0.8095
16634TIP3    H171393   1.800   5.104  14.396 -0.6858 -0.5948 -2.2941
16634TIP3    H271394   1.848   4.961  14.383  1.6296  0.0088 -1.0140
16635TIP3   OH271395   6.687   1.489  16.426 -0.0266  0.3882 -0.0326
16635TIP3    H171396   6.706   1.427  16.497  0.3517  0.7101  0.1488
16635TIP3    H271397   6.697   1.438  16.346  0.3809  0.2385  0.1135
16636TIP3   OH271398   2.771   3.028   6.020  0.3625  0.9421 -0.1365
16636TIP3    H171399   2.826   2.993   6.091 -3.3483 -1.3960  1.9024
16636TIP3    H271400   2.798   2.979   5.942  1.4427  0.1887  0.6834
16637TIP3   OH271401   3.373   5.127  15.472  0.4615 -0.2659  0.0877
16637TIP3    H171402   3.433   5.089  15.408  1.0966  2.0996 -0.8499
16637TIP3    H271403   3.292   5.140  15.424 -0.0602 -1.2571  0.6718
16638TIP3   OH271404   0.768   4.867   4.390  0.7061 -0.0106  0.0897
16638TIP3    H171405   0.766   4.793   4.451  0.6933 -2.1185 -2.2953
16638TIP3    H271406   0.798   4.829   4.308 -0.1253  2.5063 -1.4796
16639TIP3   OH271407   2.868   0.387   0.013 -0.4388 -0.4429 -0.3293
16639TIP3    H171408   2.832   0.385   0.101 -0.0769  1.4112 -0.0974
16639TIP3    H271409   2.794   0.410  -0.043 -0.0865  1.4282 -0.0918
16640TIP3   OH271410   6.425   1.655   5.694 -0.2403  0.1196  0.6975
16640TIP3    H171411   6.408   1.564   5.671 -1.8884  0.2756  1.2292
16640TIP3    H271412   6.362   1.676   5.763 -1.0268  2.1378 -0.5324
16641TIP3   OH271413   4.523   6.399  14.058  0.2903 -0.5919 -0.0161
16641TIP3    H171414   4.449   6.440  14.015  1.0037 -0.6654 -1.3595
16641TIP3    H271415   4.488   6.318  14.095 -0.8621  0.6066  1.6518
16642TIP3   OH271416   1.572   6.655  11.455  0.0634  0.3294  0.3313
16642TIP3    H171417   1.554   6.659  11.549 -1.5438 -2.0966  0.2514
16642TIP3    H271418   1.659   6.617  11.448 -0.2882 -0.6097  0.8824
16643TIP3   OH271419   5.731   0.843  15.457 -0.0546 -0.0211  0.0861
16643TIP3    H171420   5.711   0.834  15.550  0.8972 -2.0900  0.1550
16643TIP3    H271421   5.648   0.825  15.413 -0.7251  1.8518  0.5105
16644TIP3   OH271422   5.586   5.781  12.740 -0.5066 -0.2058 -0.4003
16644TIP3    H171423   5.679   5.768  12.721 -0.0501  0.1054  1.4666
16644TIP3    H271424   5.543   5.707  12.696  0.6569 -0.5875 -0.9493
16645TIP3   OH271425   5.311   2.073   0.569 -0.0568 -0.8526  0.4786
16645TIP3    H171426   5.280   2.141   0.509 -2.8376 -2.3272  0.0885
16645TIP3    H271427   5.401   2.056   0.540  0.6180  2.2710  0.3390
16646TIP3   OH271428   2.616   6.199   2.888  0.2945  0.1535  0.1282
16646TIP3    H171429   2.600   6.230   2.799  0.4545 -0.0045  0.0437
16646TIP3    H271430   2.696   6.245   2.915 -0.2912  0.9511  0.5532
16647TIP3   OH271431   6.489   2.700  15.518 -0.1486  0.5175  0.0148
16647TIP3    H171432   6.461   2.674  15.430 -0.7577  1.4021 -0.0715
16647TIP3    H271433   6.585   2.697  15.514 -0.1779 -1.2776 -0.0855
16648TIP3   OH271434   3.689   6.179  15.809 -0.3629  0.2915 -0.0942
16648TIP3    H171435   3.732   6.258  15.842 -0.7672  0.6258 -0.3528
16648TIP3    H271436   3.719   6.109  15.866 -1.0994  0.8654  1.0217
16649TIP3   OH271437   1.881   6.141  12.801 -0.4322 -0.1524  0.4088
16649TIP3    H171438   1.821   6.083  12.849  0.3831 -0.4424  1.1184
16649TIP3    H271439   1.856   6.229  12.829 -1.6303 -0.1390 -0.6170
16650TIP3   OH271440   3.776   0.489  11.125 -0.0058 -0.6601  0.2471
16650TIP3    H171441   3.760   0.581  11.103  0.5299 -0.2149  1.6437
16650TIP3    H271442   3.848   0.462  11.067  0.5635  0.1280  0.5767
16651TIP3   OH271443   3.689   2.387   3.907  0.3472 -0.0675  0.0982
16651TIP3    H171444   3.725   2.476   3.910  0.0834  0.0246  2.8686
16651TIP3    H271445   3.705   2.358   3.817  0.3962  2.7808 -0.9192
16652TIP3   OH271446   6.107   6.413  14.597 -0.3807  0.2264  0.5965
16652TIP3    H171447   6.087   6.507  14.599 -0.3881  0.2176  1.4146
16652TIP3    H271448   6.021   6.370  14.600 -0.3497  0.2002  1.6413
16653TIP3   OH271449   4.844   2.069  11.938 -0.4565  0.0390  0.4563
16653TIP3    H171450   4.939   2.069  11.953 -0.1978  2.2233 -0.7339
16653TIP3    H271451   4.814   2.153  11.972 -1.8193 -0.1858 -0.1116
16654TIP3   OH271452   5.227   0.538  12.388 -0.2327  0.1965  0.3896
16654TIP3    H171453   5.284   0.604  12.350  1.4888 -1.2553  0.3055
16654TIP3    H271454   5.188   0.493  12.313 -0.5542  0.4038  0.4306
16655TIP3   OH271455   3.756   3.398   2.853  0.2111 -0.0307  0.5277
16655TIP3    H171456   3.795   3.368   2.935  3.6492 -0.3794 -1.0681
16655TIP3    H271457   3.790   3.487   2.841 -1.2492  0.4950  0.0274
16656TIP3   OH271458   4.681   6.101  15.481 -0.0820 -0.0011  0.2498
16656TIP3    H171459   4.636   6.155  15.546  1.1186  1.2642  0.0809
16656TIP3    H271460   4.770   6.093  15.515  0.4315  0.2628 -0.9817
16657TIP3   OH271461   1.563   1.654  12.126 -0.1769  0.0107 -0.3360
16657TIP3    H171462   1.580   1.622  12.038  0.4923 -0.3812 -0.0716
16657TIP3    H271463   1.539   1.576  12.177  0.6281  0.0428  0.1084
16658TIP3   OH271464   4.099   1.051  14.293 -0.5771 -0.6211 -0.4221
16658TIP3    H171465   4.047   1.109  14.237 -1.0964 -0.2400  0.4457
16658TIP3    H271466   4.035   0.986  14.325 -0.0034 -1.7134 -1.4095
16659TIP3   OH271467   0.696   1.319   4.921  0.3988 -0.4422 -0.3596
16659TIP3    H171468   0.730   1.364   4.999 -0.4873  1.8595 -1.2204
16659TIP3    H271469   0.615   1.278   4.951 -0.5553  1.3942 -0.2440
16660TIP3   OH271470   2.749   3.176   6.926 -0.0887  0.4603  0.1012
16660TIP3    H171471   2.687   3.114   6.964 -0.9843  1.4709  0.3476
16660TIP3    H271472   2.835   3.146   6.956 -0.1468 -2.3492 -2.1288
16661TIP3   OH271473   1.263   4.598   2.258 -0.4989  0.6454  0.0792
16661TIP3    H171474   1.168   4.615   2.259 -0.2488  2.3063  1.6958
16661TIP3    H271475   1.286   4.597   2.165 -1.7315  2.7469 -0.3151
16662TIP3   OH271476   0.687   5.650  15.131 -0.4049  0.0476 -0.3593
16662TIP3    H171477   0.704   5.689  15.045 -0.6485  0.6327 -0.1435
16662TIP3    H271478   0.667   5.558  15.112  1.6240 -0.3592 -0.7418
16663TIP3   OH271479   3.282   5.774  15.116 -0.3744  0.3120 -0.7462
16663TIP3    H171480   3.376   5.786  15.110 -0.4861  1.1122 -0.9431
16663TIP3    H271481   3.260   5.716  15.043 -0.1568  0.8416 -1.2295
16664TIP3   OH271482   4.841   2.547   5.503 -0.0272 -0.0230  0.5572
16664TIP3    H171483   4.857   2.626   5.452  2.2031 -2.2234 -2.6068
16664TIP3    H271484   4.901   2.553   5.577  1.2327  0.6320 -0.4730
16665TIP3   OH271485   2.880   4.398  12.517 -0.0705 -0.1946 -0.7028
16665TIP3    H171486   2.862   4.439  12.602  0.0670 -1.7317  0.0913
16665TIP3    H271487   2.950   4.335  12.534 -0.4269 -0.9318 -1.8341
16666TIP3   OH271488   3.574   4.638  16.750  0.2112 -0.0664 -0.4984
16666TIP3    H171489   3.578   4.646  16.655  2.0593  2.2595 -0.2901
16666TIP3    H271490   3.595   4.546  16.767  2.3603  0.0167 -2.2634
16667TIP3   OH271491   1.185   0.919  12.136 -0.0012 -0.1440 -0.0988
16667TIP3    H171492   1.262   0.884  12.180 -0.2074  2.5351  2.8476
16667TIP3    H271493   1.218   0.958  12.055  1.3734 -0.7902  0.1292
16668TIP3   OH271494   6.501   0.812   3.692  0.3810 -0.6773  0.4593
16668TIP3    H171495   6.419   0.847   3.726  0.2800  0.4612 -0.8250
16668TIP3    H271496   6.501   0.837   3.599  1.6347 -1.6838  0.1496
16669TIP3   OH271497   0.611   3.197   0.669 -0.0532 -0.3233  0.3141
16669TIP3    H171498   0.592   3.124   0.610 -2.4186  0.8026 -0.4267
16669TIP3    H271499   0.579   3.169   0.754  1.9662 -1.3397  0.8075
16670TIP3   OH271500   4.464   2.676   4.548 -0.3696  0.0901 -0.2183
16670TIP3    H171501   4.529   2.732   4.590  0.1970 -0.6120 -0.1453
16670TIP3    H271502   4.423   2.629   4.621  0.6507 -1.1698 -0.4197
16671TIP3   OH271503   4.289   4.848  13.517 -0.2020 -0.3676 -0.2638
16671TIP3    H171504   4.305   4.856  13.611 -0.3036 -1.8550 -0.0957
16671TIP3    H271505   4.209   4.897  13.502  0.2666  0.5929  0.2700
16672TIP3   OH271506   1.688   2.544  13.193 -0.0872 -0.1684 -0.1634
16672TIP3    H171507   1.781   2.519  13.189 -0.1318 -0.3930  0.1360
16672TIP3    H271508   1.656   2.502  13.273 -0.6786 -0.8696 -0.7595
16673TIP3   OH271509   0.613   0.985   3.389 -0.3802 -0.1749  0.4597
16673TIP3    H171510   0.698   0.971   3.347 -0.3674  0.3976  0.2878
16673TIP3    H271511   0.551   0.935   3.336  0.0394 -1.7839  1.4050
16674TIP3   OH271512   3.326   2.711   0.961 -0.5450 -0.5703  0.5696
16674TIP3    H171513   3.237   2.693   0.931  0.4265 -2.3184 -1.5015
16674TIP3    H271514   3.356   2.783   0.906  0.3733 -2.1252 -1.0701
16675TIP3   OH271515   1.142   1.292  15.301 -1.0387  0.2260  0.1705
16675TIP3    H171516   1.050   1.302  15.327 -0.8493  1.5344  0.3948
16675TIP3    H271517   1.140   1.228  15.230 -1.9591 -0.8250  1.0921
16676TIP3   OH271518   2.874   3.531  15.225 -0.4951 -0.4885  0.3772
16676TIP3    H171519   2.793   3.582  15.228 -0.4765 -0.4823  1.0219
16676TIP3    H271520   2.934   3.579  15.282 -0.6029 -1.4411  1.3232
16677TIP3   OH271521   5.972   2.298   5.785 -0.6244 -0.1585 -0.3078
16677TIP3    H171522   6.002   2.208   5.775  0.3505  0.1662 -0.4509
16677TIP3    H271523   5.877   2.293   5.774 -0.5243 -1.0883 -0.8938
16678TIP3   OH271524   5.518   3.813  11.173 -0.3447  0.8777  0.4411
16678TIP3    H171525   5.555   3.726  11.163  2.6631  2.1992 -1.6338
16678TIP3    H271526   5.433   3.808  11.129 -0.7908 -1.2245  1.4142
16679TIP3   OH271527   1.332   4.199  11.554 -0.0123  0.0900  0.1708
16679TIP3    H171528   1.317   4.118  11.505 -0.0939  1.3583 -2.0337
16679TIP3    H271529   1.253   4.210  11.607 -0.9176 -0.2427 -1.0643
16680TIP3   OH271530   1.990   5.703   1.297 -0.1429  0.2972  0.5518
16680TIP3    H171531   2.065   5.704   1.357 -0.1059 -0.0630  0.5113
16680TIP3    H271532   1.936   5.776   1.326 -0.3545 -0.1497  1.3070
16681TIP3   OH271533   1.988   4.137   2.047 -0.6056 -0.1409 -0.1965
16681TIP3    H171534   2.047   4.186   2.104 -2.8106  4.2634 -1.2075
16681TIP3    H271535   2.030   4.053   2.034  3.6038  1.3843  1.8829
16682TIP3   OH271536   5.030   0.569   1.068  0.0088  0.0921  0.1771
16682TIP3    H171537   5.026   0.665   1.067 -0.6389  0.0664 -0.1733
16682TIP3    H271538   4.999   0.543   0.982 -0.7686 -0.4599  0.6152
16683TIP3   OH271539   2.903   5.379  14.182 -0.3983 -0.4701  0.1596
16683TIP3    H171540   2.919   5.457  14.235  0.1966  0.6734 -1.6275
16683TIP3    H271541   2.808   5.368  14.183 -0.4044 -0.4281  1.3751
16684TIP3   OH271542   6.222   1.261   5.400  0.1500  0.3998  0.4112
16684TIP3    H171543   6.170   1.182   5.406 -1.4990  1.4735  0.8357
16684TIP3    H271544   6.285   1.243   5.330 -0.9411 -0.8593 -0.2950
16685TIP3   OH271545   1.249   2.997  16.225 -0.9092  0.2452  0.1605
16685TIP3    H171546   1.176   2.947  16.188 -0.6603  0.5424 -0.7635
16685TIP3    H271547   1.316   2.995  16.157 -0.0480 -0.0285  1.0088
16686TIP3   OH271548   4.661   5.372   5.012 -0.0749  0.5971 -0.2508
16686TIP3    H171549   4.724   5.341   5.077 -1.1527 -0.8888  0.1297
16686TIP3    H271550   4.713   5.384   4.932  0.6106 -1.1858 -0.1142
16687TIP3   OH271551   5.874   2.510  14.665  0.2901  0.0008 -0.2211
16687TIP3    H171552   5.791   2.552  14.688 -0.3542 -0.9623 -0.7256
16687TIP3    H271553   5.928   2.520  14.744 -0.8187 -0.6272  0.6460
16688TIP3   OH271554   1.141   4.038  15.754  0.3844 -0.2098  0.1332
16688TIP3    H171555   1.047   4.056  15.753  0.5302  0.7968  1.8336
16688TIP3    H271556   1.173   4.077  15.673 -0.3898  1.1742  0.4652
16689TIP3   OH271557   2.230   5.809   0.180 -0.2356  0.5847  0.3289
16689TIP3    H171558   2.236   5.797   0.275  1.5275  0.5544  0.2442
16689TIP3    H271559   2.174   5.886   0.169  1.5038  2.1132  1.5351
16690TIP3   OH271560   1.078   4.441   5.358 -0.0438 -0.1029  0.6021
16690TIP3    H171561   1.037   4.403   5.436 -1.5810 -1.2601 -0.6942
16690TIP3    H271562   1.084   4.534   5.377 -0.9890 -0.2732  1.8606
16691TIP3   OH271563   3.880   4.880  13.055 -0.7095 -0.0418  0.0980
16691TIP3    H171564   3.945   4.809  13.051 -0.7670 -0.0723 -0.3673
16691TIP3    H271565   3.878   4.915  12.966 -0.5580  0.6645  0.3646
16692TIP3   OH271566   6.323   3.391  15.056  0.2477  0.4664  0.1729
16692TIP3    H171567   6.291   3.471  15.097  0.7390  1.4458 -1.2999
16692TIP3    H271568   6.406   3.374  15.100 -0.5361 -0.0804  1.5019
16693TIP3   OH271569   2.778   3.213   3.165  0.2386 -0.0423  0.2025
16693TIP3    H171570   2.846   3.240   3.104  1.6547 -1.4905  1.0630
16693TIP3    H271571   2.696   3.242   3.125  1.3283  1.4917 -0.9992
16694TIP3   OH271572   5.988   4.265  15.132 -0.4587 -0.0842 -0.1482
16694TIP3    H171573   5.941   4.273  15.048  0.1140  0.7069 -0.4040
16694TIP3    H271574   6.077   4.293  15.112  0.2691 -1.9777  0.2282
16695TIP3   OH271575   1.232   5.006   2.624  0.0109  0.7686 -0.8966
16695TIP3    H171576   1.313   5.044   2.657 -0.5560  0.8225  0.5369
16695TIP3    H271577   1.210   4.938   2.687  0.4939 -1.3489 -2.8935
16696TIP3   OH271578   0.231   0.062  11.197  0.0829  0.2800  0.2586
16696TIP3    H171579   0.290   0.118  11.248 -0.5236  1.1702  0.0123
16696TIP3    H271580   0.233   0.100  11.108 -3.1568  2.3168  0.8700
16697TIP3   OH271581   4.618   5.019  12.202  0.1188  0.6451 -0.3343
16697TIP3    H171582   4.567   5.100  12.209 -0.1032  0.4013  1.1218
16697TIP3    H271583   4.704   5.047  12.171 -0.3473  1.2658 -1.1106
16698TIP3   OH271584   2.743   0.291  16.112  0.0621 -0.3512  0.1372
16698TIP3    H171585   2.785   0.290  16.025  0.1730  1.4449  0.1322
16698TIP3    H271586   2.650   0.289  16.093  0.0851  0.1578 -0.0244
16699TIP3   OH271587   0.200   2.009  11.818  0.2648  0.2723 -0.2223
16699TIP3    H171588   0.289   2.042  11.809  0.9761 -1.1625  1.0456
16699TIP3    H271589   0.202   1.959  11.899 -1.6808  0.1074 -0.2420
16700TIP3   OH271590   2.383   3.648   1.091  0.0553 -0.1933  0.0990
16700TIP3    H171591   2.362   3.571   1.038 -0.5241 -0.5086  0.7666
16700TIP3    H271592   2.383   3.615   1.181  1.3914  0.2407  0.2874
16701TIP3   OH271593   3.933   0.894  14.406 -0.6837 -0.3939  0.3100
16701TIP3    H171594   3.870   0.846  14.351 -2.9071 -0.4210  2.6897
16701TIP3    H271595   3.879   0.954  14.457  1.6292  1.9315  0.2253
16702TIP3   OH271596   1.375   0.143   2.642  0.2401 -0.4306 -0.5837
16702TIP3    H171597   1.432   0.159   2.717 -1.0062  0.0945  0.2799
16702TIP3    H271598   1.288   0.133   2.680 -1.1704  3.7328 -2.1834
16703TIP3   OH271599   3.202   1.935   2.458 -0.0925  0.1399  0.5630
16703TIP3    H171600   3.200   2.014   2.512  1.2901 -0.3098  1.3262
16703TIP3    H271601   3.246   1.870   2.513  0.7642 -0.5338 -0.8645
16704TIP3   OH271602   4.314   1.315   0.970  0.5820 -0.6338 -0.1607
16704TIP3    H171603   4.387   1.347   0.917  1.0166 -0.2188  0.6750
16704TIP3    H271604   4.310   1.376   1.043 -0.6902 -0.5770 -0.2633
16705TIP3   OH271605   0.181   4.342   1.108  0.0073 -0.2686  0.9742
16705TIP3    H171606   0.138   4.302   1.184  0.3360 -0.1487  1.2276
16705TIP3    H271607   0.109   4.373   1.053 -0.2623 -1.3100  0.7140
16706TIP3   OH271608   3.524   6.094   2.569 -0.3968  0.1104  0.3886
16706TIP3    H171609   3.522   6.005   2.533  1.2184  0.4300 -0.5831
16706TIP3    H271610   3.533   6.082   2.663 -0.1609 -0.7654  0.2631
16707TIP3   OH271611   0.791   3.607   0.971  0.0104  0.1716  0.1130
16707TIP3    H171612   0.780   3.618   0.877 -0.0905  1.4167  0.2626
16707TIP3    H271613   0.714   3.556   0.998 -0.1257  0.0897 -0.4191
16708TIP3   OH271614   5.017   6.113   5.308  0.0787 -0.4246 -0.4548
16708TIP3    H171615   5.019   6.138   5.400  0.8503 -0.0881 -0.5477
16708TIP3    H271616   4.946   6.164   5.270 -0.3036 -0.6391 -0.0248
16709TIP3   OH271617   2.292   0.321   2.398 -0.0610  0.1288  0.3023
16709TIP3    H171618   2.332   0.234   2.391  0.2360  0.3875 -1.9453
16709TIP3    H271619   2.199   0.306   2.385  0.1352  0.2540 -1.4031
16710TIP3   OH271620   6.561   6.160  13.305 -0.1413  1.0908 -0.4056
16710TIP3    H171621   6.630   6.107  13.265 -1.3107  0.0228 -1.0930
16710TIP3    H271622   6.528   6.107  13.377 -1.8938  0.4256 -1.6182
16711TIP3   OH271623   3.804   5.788   0.263  0.5341 -0.6285  0.5927
16711TIP3    H171624   3.823   5.867   0.313 -1.8082  1.0315 -0.9211
16711TIP3    H271625   3.765   5.729   0.326 -1.1708  0.9136  1.0593
16712TIP3   OH271626   6.384   5.199   3.557 -0.4161 -0.2404 -0.5645
16712TIP3    H171627   6.376   5.155   3.472 -3.4046 -2.0184  0.4742
16712TIP3    H271628   6.460   5.158   3.598  0.9722  0.5330 -2.2352
16713TIP3   OH271629   5.865   6.237   0.407 -0.5069  0.2331 -0.1410
16713TIP3    H171630   5.945   6.216   0.455  0.5996 -0.3597 -2.1291
16713TIP3    H271631   5.800   6.256   0.475  1.3366  0.8593  1.5350
16714TIP3   OH271632   3.812   6.173  14.311  0.4131 -0.0240  0.0555
16714TIP3    H171633   3.759   6.188  14.233 -0.4626  0.9100  0.8088
16714TIP3    H271634   3.753   6.189  14.384  1.7991  1.3144  0.9380
16715TIP3   OH271635   6.276   6.665  13.663  0.1528  0.7544  0.6130
16715TIP3    H171636   6.303   6.636  13.576  1.0186  0.4993  0.9614
16715TIP3    H271637   6.201   6.723  13.647  1.0261  1.6412 -0.3792
16716TIP3   OH271638   5.356   6.542   5.715  0.1105  0.7374 -0.1936
16716TIP3    H171639   5.350   6.586   5.800  0.0277 -0.0344  0.2023
16716TIP3    H271640   5.384   6.612   5.655  2.8804  0.7678  0.9391
16717TIP3   OH271641   3.668   4.075   0.533  0.0926  0.2016 -0.0129
16717TIP3    H171642   3.762   4.075   0.520  0.5968 -0.6407  2.8287
16717TIP3    H271643   3.646   4.166   0.553  0.4958  0.2498  0.2278
16718TIP3   OH271644   1.835   3.134  15.444 -0.7998 -0.2353  0.4822
16718TIP3    H171645   1.764   3.122  15.381  0.0749  1.7330 -0.9632
16718TIP3    H271646   1.799   3.196  15.509  0.2294  2.7017 -1.5513
16719TIP3   OH271647   3.603   1.372   1.144 -0.2185 -0.6760  0.1257
16719TIP3    H171648   3.616   1.431   1.218  1.0850 -2.4999  1.4175
16719TIP3    H271649   3.683   1.319   1.141 -0.4021 -0.9377 -2.3578
16720TIP3   OH271650   2.741   5.055  17.361  0.4548 -0.5006  1.2059
16720TIP3    H171651   2.818   5.110  17.350  0.3324 -0.6387 -0.5314
16720TIP3    H271652   2.752   5.017  17.449  2.1989 -0.2760  1.1278
16721TIP3   OH271653   1.253   6.426   3.995  0.4425  1.3260  0.4140
16721TIP3    H171654   1.218   6.437   4.084 -1.3738  0.8660 -0.2013
16721TIP3    H271655   1.202   6.354   3.959  1.0363  1.6285 -1.0740
16722TIP3   OH271656   0.336   5.809   1.006  0.3428  0.2200  0.2753
16722TIP3    H171657   0.245   5.838   1.016  0.0591  0.1706 -1.7915
16722TIP3    H271658   0.352   5.812   0.912  1.7584 -2.0004  0.3795
16723TIP3   OH271659   5.680   5.595  15.209 -0.2512 -0.1229 -0.3380
16723TIP3    H171660   5.616   5.530  15.240 -1.4429  0.0759 -2.2255
16723TIP3    H271661   5.651   5.677  15.250 -0.6303 -0.2167 -0.4113
16724TIP3   OH271662   0.235   0.502   1.932  0.3880 -0.0759  0.7141
16724TIP3    H171663   0.256   0.547   2.014  0.2133 -1.3983  1.5141
16724TIP3    H271664   0.292   0.426   1.931  0.3629 -0.1054 -0.3946
16725TIP3   OH271665   2.840   4.132   0.411 -0.0040 -0.0796 -0.1716
16725TIP3    H171666   2.914   4.142   0.471 -0.4598  0.3368  0.3339
16725TIP3    H271667   2.780   4.073   0.457 -0.6550  0.7603  0.0920
16726TIP3   OH271668   0.642   5.799  14.637  0.0392  0.0047  0.3235
16726TIP3    H171669   0.549   5.798  14.616  0.3025 -0.4723 -0.8621
16726TIP3    H271670   0.676   5.878  14.595  0.4229 -0.5605 -0.4664
16727TIP3   OH271671   6.113   0.825   3.018  0.2613  0.4820 -0.6886
16727TIP3    H171672   6.146   0.829   2.929  0.1924  0.0929 -0.7319
16727TIP3    H271673   6.111   0.732   3.039  1.8673  0.6379  0.3128
16728TIP3   OH271674   5.671   3.230  16.983  0.1594 -0.2208 -0.0938
16728TIP3    H171675   5.702   3.321  16.985 -1.0698  0.2700 -1.4566
16728TIP3    H271676   5.736   3.184  16.930  0.2520  0.0937 -0.2582
16729TIP3   OH271677   2.811   0.353  11.304 -0.1913 -0.3072 -0.4811
16729TIP3    H171678   2.904   0.348  11.280  0.3444 -0.1599  1.4155
16729TIP3    H271679   2.785   0.441  11.276  0.2948 -0.2640 -0.8257
16730TIP3   OH271680   1.510   1.287   1.276  0.1445  0.5520  0.1229
16730TIP3    H171681   1.557   1.233   1.212 -0.5183  1.5047 -1.2257
16730TIP3    H271682   1.418   1.278   1.252 -0.3505 -0.6261  2.2147
16731TIP3   OH271683   5.188   0.510   1.756 -0.0720  0.2872  0.0357
16731TIP3    H171684   5.245   0.587   1.762 -1.6683  1.4579  1.0989
16731TIP3    H271685   5.118   0.537   1.698  0.2507 -1.0271 -1.0099
16732TIP3   OH271686   5.939   2.252  16.390 -0.1709 -0.2876  0.4880
16732TIP3    H171687   5.890   2.170  16.385  1.4515 -1.4010  1.9006
16732TIP3    H271688   5.959   2.274  16.299 -0.2898 -1.6677  0.1114
16733TIP3   OH271689   1.809   4.368  15.566  0.0879  0.4760 -0.5045
16733TIP3    H171690   1.871   4.359  15.638 -1.1237 -2.3022  0.3507
16733TIP3    H271691   1.848   4.315  15.495 -1.2157 -1.3395  0.0602
16734TIP3   OH271692   6.182   5.612  17.378 -0.0109  0.2530  0.8557
16734TIP3    H171693   6.119   5.611  17.306  0.6344  0.8960  0.2695
16734TIP3    H271694   6.254   5.557  17.348  0.8854  1.6278  0.4120
16735TIP3   OH271695   2.738   2.738  15.432  0.0469  0.1275  0.0710
16735TIP3    H171696   2.816   2.756  15.483  1.3370  0.5534 -1.9298
16735TIP3    H271697   2.720   2.821  15.387 -2.3426  0.4299  1.4212
16736TIP3   OH271698   1.351   5.403   6.328 -0.0724 -0.4121 -0.1192
16736TIP3    H171699   1.356   5.328   6.388 -1.9783  1.7793  3.0885
16736TIP3    H271700   1.426   5.457   6.349 -1.3474  0.9174  1.2139
16737TIP3   OH271701   0.406   2.525   0.627 -0.0250  0.7421 -0.1824
16737TIP3    H171702   0.365   2.583   0.691 -0.9017  1.1196 -1.0520
16737TIP3    H271703   0.487   2.569   0.603 -0.8160  1.7928 -1.0443
16738TIP3   OH271704   4.917   6.422   4.810  0.0849 -0.0224 -0.1512
16738TIP3    H171705   4.905   6.332   4.781 -0.1610  0.1339 -0.5479
16738TIP3    H271706   4.844   6.437   4.871  1.1786 -0.6760  1.3840
16739TIP3   OH271707   0.452   5.985  13.389  0.2019  0.0193  0.0167
16739TIP3    H171708   0.438   6.010  13.480  1.3725 -0.8303  0.4567
16739TIP3    H271709   0.372   6.011  13.344 -0.5912  0.0238  1.3823
16740TIP3   OH271710   2.099   1.519   1.001  0.4554 -0.1110  0.1888
16740TIP3    H171711   2.160   1.467   0.948  1.0357 -0.1328  0.8629
16740TIP3    H271712   2.143   1.603   1.013  1.0392 -0.6186  1.9029
16741TIP3   OH271713   6.379   0.079  13.026  0.3338  0.6971 -0.4284
16741TIP3    H171714   6.373  -0.017  13.026  2.6595  0.4779  0.9725
16741TIP3    H271715   6.397   0.102  12.936 -2.3111  0.0767 -1.2265
16742TIP3   OH271716   3.007   4.443  15.434 -0.0226  1.0998  0.1588
16742TIP3    H171717   3.035   4.353  15.421  3.3652  2.0226  0.3026
16742TIP3    H271718   2.946   4.460  15.362 -0.7510 -1.2488  0.1367
16743TIP3   OH271719   4.892   5.906   2.183 -0.4141  0.0327 -0.2984
16743TIP3    H171720   4.946   5.918   2.261 -1.2089  1.3413  0.0730
16743TIP3    H271721   4.886   5.811   2.172 -0.4042 -0.1678  1.2976
16744TIP3   OH271722   5.136   6.395  14.119 -0.5531 -0.2019 -0.3420
16744TIP3    H171723   5.100   6.353  14.040 -0.2166 -1.8583  0.3459
16744TIP3    H271724   5.145   6.324  14.182 -1.7638  1.2540  1.5721
16745TIP3   OH271725   1.357   1.397  17.017  0.2921 -0.2354 -0.0557
16745TIP3    H171726   1.344   1.492  17.022 -0.3124 -0.3367  0.4964
16745TIP3    H271727   1.429   1.385  16.955  1.2651  0.6485  0.8898
16746TIP3   OH271728   0.728   3.657   2.012  0.2609  0.1720 -0.3811
16746TIP3    H171729   0.654   3.714   2.029  0.6522  0.6582 -0.2935
16746TIP3    H271730   0.702   3.572   2.048  0.0186  0.5109  0.2550
16747TIP3   OH271731   3.008   0.447  16.778 -0.3018  0.0688 -0.7567
16747TIP3    H171732   3.067   0.431  16.705 -0.8313  1.5503 -1.5590
16747TIP3    H271733   2.931   0.394  16.759 -0.1166 -0.1595 -0.8654
16748TIP3   OH271734   1.518   5.056  12.394 -0.2957 -0.3622 -0.3410
16748TIP3    H171735   1.532   5.107  12.473 -0.5294  0.0855 -0.5892
16748TIP3    H271736   1.605   5.050  12.353  0.6053 -3.4704  1.6417
16749TIP3   OH271737   1.311   5.986   3.312 -0.1511  0.0105  0.0440
16749TIP3    H171738   1.371   5.951   3.247 -2.1352 -1.8741 -0.8717
16749TIP3    H271739   1.240   6.026   3.261  0.6391  3.0272  1.0833
16750TIP3   OH271740   6.675   1.179  16.550 -0.3438  0.5855 -0.1697
16750TIP3    H171741   6.753   1.229  16.571 -0.5977  1.3761 -1.0587
16750TIP3    H271742   6.701   1.121  16.478 -0.3804  0.2998  0.0426
16751TIP3   OH271743   3.757   5.813   4.971 -0.4361  0.2264  0.0852
16751TIP3    H171744   3.767   5.775   4.884  0.6674  1.8930 -0.5599
16751TIP3    H271745   3.741   5.906   4.955 -2.2651  0.2344  1.6277
16752TIP3   OH271746   0.441   4.263   5.720 -0.3375 -0.3940 -0.0499
16752TIP3    H171747   0.453   4.276   5.814 -2.0752  0.0081  0.1539
16752TIP3    H271748   0.529   4.271   5.684  0.4141 -0.8525  1.5588
16753TIP3   OH271749   4.914   0.395   5.900 -0.1811 -0.7298  0.9128
16753TIP3    H171750   4.908   0.302   5.921  0.7253 -0.7450  1.1328
16753TIP3    H271751   4.955   0.435   5.977 -0.4681 -0.1629  0.7779
16754TIP3   OH271752   1.159   5.836   4.566  0.1128  0.0533  0.0013
16754TIP3    H171753   1.177   5.742   4.553  0.3449  0.1684 -0.5074
16754TIP3    H271754   1.122   5.840   4.654 -0.3621 -0.5778 -0.1619
16755TIP3   OH271755   1.681   6.242  12.333  0.5281  0.6052  0.2279
16755TIP3    H171756   1.749   6.238  12.400  0.2335  1.5042  0.6031
16755TIP3    H271757   1.699   6.168  12.276  1.6515  0.6663  0.4755
16756TIP3   OH271758   3.065   6.628  14.610 -0.2247  0.2978 -0.2780
16756TIP3    H171759   2.990   6.639  14.552 -1.0808 -1.4200  0.4286
16756TIP3    H271760   3.109   6.549  14.577 -0.1601 -0.1309  0.7889
16757TIP3   OH271761   3.291   3.685   4.878 -0.3354  0.3682  0.2173
16757TIP3    H171762   3.333   3.641   4.804 -0.1257  0.4215  0.3039
16757TIP3    H271763   3.352   3.755   4.902 -0.7834  0.8673 -0.0783
16758TIP3   OH271764   2.254   2.279  17.133  0.1510 -0.4025  0.1121
16758TIP3    H171765   2.180   2.245  17.184  0.0668  0.3275  0.4887
16758TIP3    H271766   2.327   2.222  17.155 -0.1648 -0.7922  0.1660
16759TIP3   OH271767   6.130   6.744   2.158  0.4025 -0.3430  0.2693
16759TIP3    H171768   6.131   6.806   2.231 -0.1348 -0.5420  0.4494
16759TIP3    H271769   6.129   6.799   2.080  0.1854 -0.1255  0.4231
16760TIP3   OH271770   4.253   1.868   6.255  0.1186  0.7129 -0.1709
16760TIP3    H171771   4.158   1.881   6.262 -0.0535 -1.0602  1.6895
16760TIP3    H271772   4.279   1.833   6.340  2.5665  1.6335 -0.4398
16761TIP3   OH271773   2.408   3.556   3.565  0.2448 -0.4916  0.4810
16761TIP3    H171774   2.348   3.565   3.640 -2.7276  0.4187 -1.8093
16761TIP3    H271775   2.424   3.462   3.560  0.0085 -0.6420  1.8824
16762TIP3   OH271776   6.134   6.610  11.457  0.3088 -0.2375 -0.1550
16762TIP3    H171777   6.186   6.680  11.417 -0.9680 -0.7513 -2.9704
16762TIP3    H271778   6.153   6.533  11.403 -1.9510 -0.8638 -0.1636
16763TIP3   OH271779   6.044   3.906  14.906 -0.0150 -0.1920  0.6357
16763TIP3    H171780   6.034   3.926  14.813 -1.3307 -1.4600  0.4559
16763TIP3    H271781   6.135   3.926  14.926  0.6021 -0.9485 -1.2203
16764TIP3   OH271782   4.653   2.134  13.266  0.8088  0.0199 -0.6078
16764TIP3    H171783   4.617   2.175  13.346  0.9637 -0.4504 -0.2937
16764TIP3    H271784   4.745   2.117  13.287  0.7658 -0.4130 -0.7681
16765TIP3   OH271785   3.399   5.912  14.255  1.0361  0.1489 -0.1768
16765TIP3    H171786   3.314   5.920  14.213  0.1059 -0.9895  1.3614
16765TIP3    H271787   3.451   5.859  14.194  0.2925 -0.0237 -0.6741
16766TIP3   OH271788   0.118   1.268  17.113 -1.0170  0.0910 -0.5885
16766TIP3    H171789   0.051   1.308  17.169 -0.2071  0.2112  0.3309
16766TIP3    H271790   0.121   1.177  17.142 -0.3478  0.2354 -0.1744
16767TIP3   OH271791   2.305   0.832  16.419  0.0154 -0.2674 -0.0204
16767TIP3    H171792   2.284   0.784  16.339  1.4859 -0.9557 -0.0397
16767TIP3    H271793   2.223   0.874  16.444 -0.3561  0.4977 -2.2308
16768TIP3   OH271794   5.001   3.529   1.820 -0.1202 -0.2335  0.0563
16768TIP3    H171795   5.086   3.524   1.865 -0.6010 -0.2829  0.9716
16768TIP3    H271796   5.024   3.535   1.727  0.8730 -1.4091  0.1966
16769TIP3   OH271797   5.507   6.263   1.120 -0.0336 -0.3025  0.3766
16769TIP3    H171798   5.476   6.201   1.054  2.2342 -1.4229  0.2703
16769TIP3    H271799   5.522   6.344   1.071 -2.7342  0.3663  0.4646
16770TIP3   OH271800   3.121   3.953  13.116 -0.0413  0.1150  0.0628
16770TIP3    H171801   3.046   3.921  13.167  0.8872 -0.4398  1.1314
16770TIP3    H271802   3.168   3.874  13.089  0.5727  0.4763  0.0508
16771TIP3   OH271803   6.451   1.536   2.013  0.3522  0.2893 -0.3184
16771TIP3    H171804   6.399   1.456   2.013  1.3120 -0.3537 -0.2624
16771TIP3    H271805   6.461   1.557   1.920  1.0354 -0.3020 -0.3910
16772TIP3   OH271806   0.170   4.406  14.546 -0.1256 -0.1068 -0.3777
16772TIP3    H171807   0.083   4.367  14.540 -0.0054 -1.0890  2.6623
16772TIP3    H271808   0.154   4.501  14.544 -0.8635 -0.1891 -2.9967
16773TIP3   OH271809   3.954   5.095   2.837  0.2144  0.3980 -0.2554
16773TIP3    H171810   3.943   5.080   2.930  0.6129  0.4338 -0.1990
16773TIP3    H271811   3.946   5.008   2.798 -1.4450  0.5755 -0.3536
16774TIP3   OH271812   2.198   6.436   0.644  0.4537 -0.0395  0.5226
16774TIP3    H171813   2.127   6.433   0.579  1.8177  0.0640 -1.0468
16774TIP3    H271814   2.201   6.348   0.680  0.4363 -0.4633 -0.4656
16775TIP3   OH271815   5.387   0.946   5.057 -0.2509  0.0540 -0.4497
16775TIP3    H171816   5.350   0.869   5.100  0.5122 -0.8288 -1.3232
16775TIP3    H271817   5.482   0.930   5.056  0.0576  1.6171  0.5032
16776TIP3   OH271818   5.798   3.603   2.286  0.2428 -0.1349  0.3429
16776TIP3    H171819   5.777   3.679   2.231 -0.5683 -0.1795  0.5726
16776TIP3    H271820   5.767   3.528   2.234  0.3168 -0.2473  0.4622
16777TIP3   OH271821   2.753   0.818  14.533  0.0694  0.1474  0.4629
16777TIP3    H171822   2.694   0.808  14.608 -0.8388 -0.9029 -0.3658
16777TIP3    H271823   2.795   0.903  14.548 -2.8530  1.7948  0.2762
16778TIP3   OH271824   2.148   2.492   2.176  0.4478  0.2907  0.0295
16778TIP3    H171825   2.085   2.420   2.180  0.4351  0.2907 -0.1704
16778TIP3    H271826   2.220   2.458   2.124  0.3024  0.5266 -0.3313
16779TIP3   OH271827   4.713   6.591  14.940 -0.0111  0.5388  0.0208
16779TIP3    H171828   4.730   6.567  15.031 -0.3437  0.1766 -0.0085
16779TIP3    H271829   4.790   6.642  14.913  0.8214 -0.6919  0.0099
16780TIP3   OH271830   1.718   4.987  12.795 -0.5349 -0.0165  0.2563
16780TIP3    H171831   1.694   4.993  12.703  0.0953  0.8185  0.1302
16780TIP3    H271832   1.761   4.903  12.804  0.0083  0.1887 -0.3669
16781TIP3   OH271833   0.271   4.331   0.194  0.0197  0.4150 -0.3047
16781TIP3    H171834   0.316   4.413   0.170  0.6850 -0.1851 -1.2019
16781TIP3    H271835   0.203   4.358   0.255  0.8973  1.5100  0.2404
16782TIP3   OH271836   5.957   4.049   4.928 -0.0455 -0.1787  0.4424
16782TIP3    H171837   6.040   4.008   4.904  0.4774 -0.1880  2.1155
16782TIP3    H271838   5.927   4.000   5.005 -0.7122  0.9279  0.9244
16783TIP3   OH271839   3.563   5.945  14.984 -0.2455 -0.4634 -0.0574
16783TIP3    H171840   3.540   5.854  14.999  0.3443 -0.6581 -0.3401
16783TIP3    H271841   3.628   5.943  14.915  0.0582  0.1427  0.2003
16784TIP3   OH271842   2.370   2.057   5.205 -0.0353  0.0333 -0.7352
16784TIP3    H171843   2.349   1.991   5.271  1.5115 -1.4144 -1.5938
16784TIP3    H271844   2.377   2.139   5.254 -0.0449 -0.7936  0.7071
16785TIP3   OH271845   6.410   2.645  13.074 -0.2677  0.3341 -0.1094
16785TIP3    H171846   6.451   2.722  13.114 -0.1956  0.1335  0.2132
16785TIP3    H271847   6.318   2.669  13.062 -0.9743 -0.5497  2.7728
16786TIP3   OH271848   4.727   1.538  13.903  0.1458 -0.2758 -0.1609
16786TIP3    H171849   4.668   1.468  13.877  0.5678 -0.5433 -0.4261
16786TIP3    H271850   4.778   1.501  13.975 -0.2962  0.0995  0.3547
16787TIP3   OH271851   0.240   4.821  15.058  0.1901 -0.1216 -0.1205
16787TIP3    H171852   0.187   4.847  14.983  0.4928  3.3159  0.7077
16787TIP3    H271853   0.225   4.726  15.066 -2.2063 -0.0764 -2.6226
16788TIP3   OH271854   2.725   2.854   2.073 -0.1051 -0.4494 -0.1694
16788TIP3    H171855   2.706   2.924   2.136 -0.5531 -1.1017  0.4380
16788TIP3    H271856   2.667   2.783   2.099  1.6212 -1.7354  0.4011
16789TIP3   OH271857   5.816   1.142  16.239 -0.1108 -0.1413  0.1705
16789TIP3    H171858   5.907   1.127  16.263 -0.2052 -0.6314  0.2324
16789TIP3    H271859   5.820   1.199  16.162  0.2394  0.0341  0.3174
16790TIP3   OH271860   0.896   1.423  10.548  0.4566  0.4850 -0.0085
16790TIP3    H171861   0.876   1.346  10.495  1.4464  0.3722 -0.2442
16790TIP3    H271862   0.960   1.471  10.496  1.2946  0.4845  0.9969
16791TIP3   OH271863   4.956   5.894  11.452 -0.0919  0.3030  0.0615
16791TIP3    H171864   4.904   5.899  11.372 -1.2412  0.0022  0.7577
16791TIP3    H271865   4.926   5.815  11.496  1.2449 -0.0901  0.3219
16792TIP3   OH271866   6.601   0.008  12.619 -0.3840 -0.2426  0.6565
16792TIP3    H171867   6.695   0.018  12.603 -0.1022 -0.9281  1.7709
16792TIP3    H271868   6.561   0.011  12.532  0.7262 -0.5444  0.1233
16793TIP3   OH271869   4.250   6.372   5.081  0.3945 -0.2736 -0.2753
16793TIP3    H171870   4.180   6.438   5.071  0.4589 -0.0055  0.9220
16793TIP3    H271871   4.249   6.350   5.174  1.5155 -0.7217 -0.3598
16794TIP3   OH271872   0.892   1.148   1.642 -0.4357 -0.1707 -0.0964
16794TIP3    H171873   0.956   1.161   1.573  0.3714  1.3180  0.8802
16794TIP3    H271874   0.811   1.127   1.596  0.3779 -0.5302 -1.4208
16795TIP3   OH271875   2.182   2.925   0.974  0.2039  0.4544 -0.1659
16795TIP3    H171876   2.154   3.016   0.982 -3.3774 -0.5895  1.2684
16795TIP3    H271877   2.218   2.904   1.060 -0.1299  0.2075 -0.0848
16796TIP3   OH271878   1.324   3.293  13.524  0.8420 -0.0828  0.6789
16796TIP3    H171879   1.370   3.318  13.444 -0.4299  1.2262  0.3093
16796TIP3    H271880   1.241   3.256  13.493  0.3831  0.3451  1.3944
16797TIP3   OH271881   3.813   4.645   2.146  0.2888  0.2945 -0.0882
16797TIP3    H171882   3.878   4.631   2.215  0.2867 -0.0278 -0.1527
16797TIP3    H271883   3.735   4.675   2.193 -0.3917 -1.8878  0.2974
16798TIP3   OH271884   0.664   4.079   3.040 -0.1956  0.5573  0.3812
16798TIP3    H171885   0.656   3.986   3.058 -0.8529  0.5159 -0.1094
16798TIP3    H271886   0.755   4.100   3.062  0.8082 -0.7947 -2.1025
16799TIP3   OH271887   2.043   2.269  12.219 -0.0967 -0.1291 -0.7719
16799TIP3    H171888   2.124   2.250  12.267  0.3009  0.2992 -1.2695
16799TIP3    H271889   2.023   2.188  12.172 -1.6929 -1.3528  1.7706
16800TIP3   OH271890   6.268   1.125  11.487 -0.0346 -0.0255 -0.0295
16800TIP3    H171891   6.362   1.123  11.503  0.2573 -0.2417 -1.6239
16800TIP3    H271892   6.231   1.061  11.548  1.0478 -1.1231 -0.4854
16801TIP3   OH271893   1.455   5.750  16.748  0.6190 -0.2377  0.0358
16801TIP3    H171894   1.399   5.693  16.801  1.3380  0.6835  1.8391
16801TIP3    H271895   1.532   5.697  16.729 -0.1636 -0.9845 -1.1587
16802TIP3   OH271896   4.885   4.792   2.768  0.0405 -0.0166  0.2170
16802TIP3    H171897   4.804   4.747   2.792  0.8722 -0.6790  1.9932
16802TIP3    H271898   4.865   4.835   2.685 -1.8852 -0.7710  0.2331
16803TIP3   OH271899   0.130   3.814  16.018 -0.1521 -0.6257  0.2044
16803TIP3    H171900   0.212   3.767  16.002  0.6210  0.2509  1.4590
16803TIP3    H271901   0.082   3.758  16.079 -1.3924 -2.0668 -1.9338
16804TIP3   OH271902   3.776   2.085   3.061 -0.0122 -0.3934 -0.0928
16804TIP3    H171903   3.856   2.061   3.108 -1.0171 -2.9671  0.4982
16804TIP3    H271904   3.752   2.170   3.096  1.2601 -0.5953  1.3835
16805TIP3   OH271905   2.947   4.546   3.941  0.8184  0.3200  0.6176
16805TIP3    H171906   2.980   4.612   3.880  0.4310 -0.0097  0.0399
16805TIP3    H271907   2.911   4.478   3.884 -1.9826  1.2025  1.2131
16806TIP3   OH271908   6.150   5.642  15.749  0.0733 -0.0253  0.0585
16806TIP3    H171909   6.208   5.654  15.824 -1.9730 -1.5113  2.0196
16806TIP3    H271910   6.204   5.594  15.685  1.4692  0.0793  1.0970
16807TIP3   OH271911   0.256   3.588   2.999  0.1343  0.5281  0.1562
16807TIP3    H171912   0.194   3.584   2.927  1.4143  0.1819 -0.9717
16807TIP3    H271913   0.280   3.496   3.015  0.8758  0.7003  0.0834
16808TIP3   OH271914   0.205   6.326   0.346  0.4445 -0.1056  0.1552
16808TIP3    H171915   0.291   6.287   0.335  0.1310 -0.5830 -0.7646
16808TIP3    H271916   0.222   6.415   0.377  1.2197 -0.4979  0.8857
16809TIP3   OH271917   0.141   5.115   4.827 -0.1602 -0.7497 -0.0903
16809TIP3    H171918   0.138   5.210   4.816 -0.6582 -0.6839  0.5737
16809TIP3    H271919   0.051   5.089   4.848 -0.0197 -1.3592 -0.2029
16810TIP3   OH271920   0.644   4.431  12.429 -0.4602  0.6065 -0.1114
16810TIP3    H171921   0.573   4.412  12.368 -2.1960 -0.0123  1.9864
16810TIP3    H271922   0.664   4.346  12.469  0.8830  0.9396 -0.0198
16811TIP3   OH271923   4.977   5.355   1.219  0.2762  0.0654 -0.1331
16811TIP3    H171924   5.024   5.439   1.221 -0.1612  0.3094  0.2373
16811TIP3    H271925   4.923   5.360   1.141  0.1831  0.1670 -0.0627
16812TIP3   OH271926   0.116   1.415  11.497 -0.6770  0.2315  0.2097
16812TIP3    H171927   0.184   1.420  11.430 -1.8724  3.0058 -0.9693
16812TIP3    H271928   0.112   1.322  11.520  2.0801 -0.3322 -1.1014
16813TIP3   OH271929   2.809   4.144   5.751  0.0197  0.1555  0.1510
16813TIP3    H171930   2.749   4.208   5.789 -0.2025 -0.7307  1.3613
16813TIP3    H271931   2.755   4.067   5.733  0.6742 -0.4608  0.7475
16814TIP3   OH271932   1.706   2.143  13.155 -0.5222  0.3243 -0.1191
16814TIP3    H171933   1.624   2.177  13.190 -0.6006 -0.8141  0.8423
16814TIP3    H271934   1.683   2.108  13.069 -1.0881 -0.1467  0.2187
16815TIP3   OH271935   0.539   1.816   2.536 -0.8184 -0.1016  0.3256
16815TIP3    H171936   0.634   1.804   2.542 -0.7855  0.0859  0.1861
16815TIP3    H271937   0.503   1.728   2.547 -0.5999 -0.2670 -0.2636
16816TIP3   OH271938   5.467   2.042   1.624 -0.2114 -0.2577  0.1986
16816TIP3    H171939   5.443   2.024   1.715  1.6886 -1.0789  0.5920
16816TIP3    H271940   5.533   2.111   1.629 -0.9265  0.5135 -0.6633
16817TIP3   OH271941   2.550   2.531  11.312 -0.1460 -0.0389 -0.6715
16817TIP3    H171942   2.605   2.592  11.263 -1.7643  1.4497 -0.7166
16817TIP3    H271943   2.509   2.476  11.245 -1.9263  1.6312 -1.0278
16818TIP3   OH271944   5.802   4.928   1.445 -0.2337  0.2947  0.0163
16818TIP3    H171945   5.864   4.976   1.500  1.3810 -2.1859  0.4987
16818TIP3    H271946   5.716   4.956   1.475  0.6360  1.4270  1.5554
16819TIP3   OH271947   2.271   5.079  12.843 -0.6118  0.5143 -0.2003
16819TIP3    H171948   2.255   5.169  12.870 -1.5228  0.2567  0.1621
16819TIP3    H271949   2.348   5.052  12.893  0.1529  1.3285 -0.8962
16820TIP3   OH271950   2.705   1.350  13.965  0.0005 -0.5115  0.0519
16820TIP3    H171951   2.778   1.386  14.015  1.7346  1.3291 -3.4450
16820TIP3    H271952   2.630   1.403  13.991  1.0491  1.0515  0.0559
16821TIP3   OH271953   6.100   4.816   2.005 -0.1644  0.3488 -0.0090
16821TIP3    H171954   6.018   4.768   1.990 -0.5330  0.8189  0.4560
16821TIP3    H271955   6.079   4.906   1.981  0.7643  0.1558 -1.7016
16822TIP3   OH271956   1.765   3.945  10.878 -0.0693  0.2149 -0.7518
16822TIP3    H171957   1.750   4.033  10.912  1.0653  0.2972 -0.4256
16822TIP3    H271958   1.806   3.898  10.950  0.4648 -0.2182 -1.3274
16823TIP3   OH271959   5.414   1.262  14.525 -0.1208 -0.3826  0.3970
16823TIP3    H171960   5.493   1.305  14.558 -0.9298  0.8765  0.7826
16823TIP3    H271961   5.445   1.203  14.457  0.9906  1.3349 -0.6552
16824TIP3   OH271962   5.007   3.615   1.002  0.7589 -0.6105  0.1187
16824TIP3    H171963   4.978   3.570   1.081 -0.2412 -1.7122 -0.8348
16824TIP3    H271964   5.006   3.707   1.025 -2.1125 -0.6701  0.6426
16825TIP3   OH271965   5.271   5.161  11.710 -0.4019 -0.0979  0.2976
16825TIP3    H171966   5.205   5.092  11.715 -0.4890  0.0773  3.2759
16825TIP3    H271967   5.341   5.132  11.767  1.5017  0.4140 -1.6523
16826TIP3   OH271968   6.606   6.080  16.398 -0.1433 -0.7386 -0.0505
16826TIP3    H171969   6.542   6.014  16.424  0.8493 -1.3839  0.8196
16826TIP3    H271970   6.662   6.035  16.335 -0.8360 -0.0185 -1.2162
16827TIP3   OH271971   0.187   6.474  16.696 -0.0330  0.2236  0.1707
16827TIP3    H171972   0.146   6.469  16.783 -0.4227 -0.0509 -0.0249
16827TIP3    H271973   0.178   6.565  16.670 -0.2399  0.2292  0.2618
16828TIP3   OH271974   3.560   0.738   0.752  0.4232 -0.1975  0.5131
16828TIP3    H171975   3.514   0.799   0.694  2.5158  0.5190 -0.4913
16828TIP3    H271976   3.637   0.787   0.782  0.8016 -1.4910  1.7725
16829TIP3   OH271977   2.415   6.218  15.509  0.4051 -0.9363 -0.1181
16829TIP3    H171978   2.462   6.135  15.506 -0.2775 -1.3132 -0.4245
16829TIP3    H271979   2.422   6.246  15.601 -0.5386 -2.0176  0.3019
16830TIP3   OH271980   3.195   4.771   5.427  0.0823 -0.0072  0.2924
16830TIP3    H171981   3.111   4.780   5.472 -0.8037  0.5521 -1.3755
16830TIP3    H271982   3.211   4.857   5.388 -0.3030 -0.9657 -2.2239
16831TIP3   OH271983   3.577   4.497  12.264 -0.7273  0.0323  0.2282
16831TIP3    H171984   3.663   4.524  12.294 -0.1524  0.7019 -1.8211
16831TIP3    H271985   3.547   4.435  12.330  0.4174  1.3135  2.0526
16832TIP3   OH271986   1.567   3.240   6.080  0.0933  0.3754  0.5260
16832TIP3    H171987   1.651   3.256   6.123 -0.7448  1.4118  1.8244
16832TIP3    H271988   1.501   3.271   6.142 -1.2201  0.6585 -0.9500
16833TIP3   OH271989   0.976   1.110  11.682  0.1077  0.4326 -0.4649
16833TIP3    H171990   1.008   1.030  11.723  1.5589  0.5315 -1.3295
16833TIP3    H271991   1.047   1.173  11.694 -1.2069  1.7750  0.6397
16834TIP3   OH271992   4.500   3.849   1.147 -0.4573 -0.2461 -0.9876
16834TIP3    H171993   4.422   3.833   1.201 -0.6511 -1.0865 -1.4915
16834TIP3    H271994   4.548   3.766   1.150  0.9304  0.5585  0.1049
16835TIP3   OH271995   4.290   5.595   0.555 -0.1417  0.1288  0.1597
16835TIP3    H171996   4.234   5.667   0.585  0.6112  0.4316  0.8846
16835TIP3    H271997   4.229   5.533   0.514 -1.0570  0.3031  1.1868
16836TIP3   OH271998   5.375   4.851   0.749 -0.2957  0.3583  0.2864
16836TIP3    H171999   5.448   4.913   0.741  0.2302 -0.2011  0.6894
16836TIP3    H272000   5.354   4.852   0.843 -0.3495 -0.0059  0.2769
16837TIP3   OH272001   3.906   3.913  14.644 -0.1384 -0.2474 -0.5132
16837TIP3    H172002   3.961   3.864  14.704  1.2788  0.4752 -1.1817
16837TIP3    H272003   3.965   3.977  14.603 -1.3133  0.0856 -1.7695
16838TIP3   OH272004   2.680   2.514  17.244 -0.1988 -0.6869 -1.1963
16838TIP3    H172005   2.692   2.595  17.195 -0.7322 -0.0320 -0.2837
16838TIP3    H272006   2.671   2.446  17.177 -1.3454  0.2409 -2.0267
16839TIP3   OH272007   1.605   0.020   1.913  0.0474 -0.1455  0.0232
16839TIP3    H172008   1.526   0.065   1.944 -0.5128 -1.6811  0.9339
16839TIP3    H272009   1.580  -0.072   1.910  1.2979 -0.4673 -1.3692
16840TIP3   OH272010   1.194   3.903  16.224 -0.2501  0.3466 -0.9042
16840TIP3    H172011   1.200   3.840  16.296  0.2741 -0.0280 -1.2668
16840TIP3    H272012   1.126   3.868  16.168  0.5545 -0.3237 -1.4955
16841TIP3   OH272013   2.427   5.506  16.800 -0.2499  0.6189  0.1093
16841TIP3    H172014   2.463   5.507  16.711  0.1866 -1.3893  0.2159
16841TIP3    H272015   2.497   5.541  16.855 -0.1935  1.0402 -0.2227
16842TIP3   OH272016   1.619   5.682   5.637 -0.0989 -0.0581 -0.3640
16842TIP3    H172017   1.684   5.681   5.566  0.8100 -1.4480  0.4397
16842TIP3    H272018   1.573   5.599   5.629 -0.1579 -0.1230  0.5189
16843TIP3   OH272019   6.676   4.866   1.078 -0.6486  0.1244  0.3133
16843TIP3    H172020   6.701   4.775   1.061 -1.4646  0.1890 -1.4365
16843TIP3    H272021   6.758   4.915   1.077 -0.3804 -0.3265 -0.6774
16844TIP3   OH272022   3.617   5.400  14.835  0.3414  0.6343 -0.7408
16844TIP3    H172023   3.699   5.413  14.882  0.6326  0.0100 -1.0774
16844TIP3    H272024   3.643   5.373  14.747 -0.2269 -0.5873 -0.5496
16845TIP3   OH272025   2.922   0.465   1.411  0.1330 -0.3699 -0.4363
16845TIP3    H172026   2.846   0.495   1.362 -0.8382  0.2637  1.3566
16845TIP3    H272027   2.930   0.372   1.388 -1.1041 -0.4132 -0.7787
16846TIP3   OH272028   4.665   5.970   0.899  0.2486 -0.4308  0.3097
16846TIP3    H172029   4.582   5.938   0.862  0.3870  0.2287 -0.6062
16846TIP3    H272030   4.732   5.917   0.855  0.4582  0.8422 -0.9647
16847TIP3   OH272031   6.672   0.876  16.400  0.3651  0.1429 -0.1009
16847TIP3    H172032   6.646   0.803  16.344 -0.3145  0.3898 -0.1089
16847TIP3    H272033   6.733   0.837  16.464  2.2103  0.1026 -1.7885
16848TIP3   OH272034   1.509   5.321  14.970 -0.3852  0.1598 -0.2223
16848TIP3    H172035   1.492   5.238  14.926  0.0270  0.0701 -0.2116
16848TIP3    H272036   1.425   5.344  15.010 -0.4956 -0.2609 -0.2063
16849TIP3   OH272037   2.151   4.973   0.289 -0.1055 -0.2106  0.0849
16849TIP3    H172038   2.074   5.011   0.332 -1.0399 -2.5010  0.6230
16849TIP3    H272039   2.127   4.970   0.196  0.1896  0.9149 -0.0398
16850TIP3   OH272040   6.125   4.323  17.397 -0.4644 -0.2896 -0.3659
16850TIP3    H172041   6.092   4.313  17.487 -2.1838 -0.1296 -0.9365
16850TIP3    H272042   6.105   4.414  17.375 -0.8874 -0.5748 -1.2068
16851TIP3   OH272043   4.045   6.245  13.094  0.0644 -1.1860 -0.0475
16851TIP3    H172044   4.045   6.185  13.168 -2.0584 -0.4004  0.6614
16851TIP3    H272045   3.998   6.199  13.024 -1.6264 -0.4301  0.5185
16852TIP3   OH272046   4.000   2.199   2.804 -0.0577 -0.1134  0.0167
16852TIP3    H172047   4.069   2.196   2.870  0.1932  0.0384 -0.2349
16852TIP3    H272048   3.919   2.204   2.854  0.1635  0.6552  0.3160
16853TIP3   OH272049   6.218   1.871  16.567  0.4432 -0.6360 -0.2402
16853TIP3    H172050   6.307   1.850  16.594  0.5128  0.4937  0.4543
16853TIP3    H272051   6.227   1.915  16.483  0.4950 -1.0409 -0.4465
16854TIP3   OH272052   5.643   3.361   0.726  0.1060 -0.1839 -0.4359
16854TIP3    H172053   5.737   3.366   0.743 -0.0842 -0.6324  0.9265
16854TIP3    H272054   5.618   3.450   0.703  0.5739  0.3657  1.0533
16855TIP3   OH272055   4.862   1.059  10.639 -0.0034  0.1875  0.0525
16855TIP3    H172056   4.939   1.095  10.594  1.1140 -2.1337 -0.0502
16855TIP3    H272057   4.899   1.011  10.714 -1.4275 -0.3365  0.4504
16856TIP3   OH272058   5.507   2.912   0.775  0.2052 -0.4436  0.1060
16856TIP3    H172059   5.551   2.828   0.790 -0.3954 -1.1134 -1.6437
16856TIP3    H272060   5.575   2.969   0.739  0.3150 -0.5929  0.0747
16857TIP3   OH272061   2.079   2.704   2.722 -0.4240 -0.1615  1.0408
16857TIP3    H172062   2.172   2.684   2.710 -0.5628 -1.0006  1.3479
16857TIP3    H272063   2.078   2.775   2.786  0.0717  0.8938 -0.0670
16858TIP3   OH272064   2.644   6.170   1.859  0.3091  0.8924  0.5580
16858TIP3    H172065   2.670   6.084   1.892  1.1212  0.6924 -0.5324
16858TIP3    H272066   2.549   6.171   1.868  0.4491  0.6181  2.2782
16859TIP3   OH272067   4.503   1.461   2.848  0.1799  0.3552  0.6273
16859TIP3    H172068   4.456   1.438   2.928 -0.7668  0.0185 -0.0176
16859TIP3    H272069   4.578   1.401   2.846 -1.0567 -1.2341  0.0979
16860TIP3   OH272070   1.666   4.604   2.838  0.1326 -0.6973 -0.1176
16860TIP3    H172071   1.731   4.587   2.770 -0.0168  0.7066 -0.6396
16860TIP3    H272072   1.582   4.597   2.793  0.0696  1.6157 -0.4496
16861TIP3   OH272073   3.669   4.803  13.609  0.3110 -0.2287  0.0654
16861TIP3    H172074   3.670   4.748  13.531  1.4320 -0.1401  0.0098
16861TIP3    H272075   3.655   4.741  13.681  0.0036 -0.3949 -0.1333
16862TIP3   OH272076   2.237   3.754   3.188  0.0152  0.4184  0.6352
16862TIP3    H172077   2.149   3.778   3.160 -0.0165  1.8723  1.8347
16862TIP3    H272078   2.282   3.838   3.201  0.6371 -0.1916  2.8824
16863TIP3   OH272079   2.890   2.327   5.819 -0.1465 -0.1206 -0.5859
16863TIP3    H172080   2.864   2.387   5.889 -0.8242 -0.1797 -0.7749
16863TIP3    H272081   2.968   2.367   5.781  0.2531 -0.1026  0.2154
16864TIP3   OH272082   3.192   0.004   5.303  0.9329  0.1533  0.4367
16864TIP3    H172083   3.141  -0.058   5.251  1.0675  1.3764 -1.2409
16864TIP3    H272084   3.248  -0.051   5.358 -0.7415 -1.2032  0.8721
16865TIP3   OH272085   3.742   0.842  13.581  0.1309 -0.5660  0.5289
16865TIP3    H172086   3.799   0.793  13.642  1.5887  0.1167 -0.2300
16865TIP3    H272087   3.784   0.830  13.496 -2.7336 -2.8540 -0.7315
16866TIP3   OH272088   3.209   6.107  16.096  0.1677 -0.3647 -0.2576
16866TIP3    H172089   3.276   6.068  16.152  0.8283  0.8566 -0.1441
16866TIP3    H272090   3.256   6.176  16.049 -1.1400  0.9419  0.2812
16867TIP3   OH272091   0.081   1.800   3.743  0.4189  0.1469 -0.8776
16867TIP3    H172092   0.055   1.829   3.831 -2.2505 -0.3130 -1.4039
16867TIP3    H272093   0.141   1.727   3.758  0.4748  0.4604  0.5581
16868TIP3   OH272094   5.989   0.817   3.491 -0.1883  0.6475  0.7514
16868TIP3    H172095   6.079   0.826   3.460 -0.2664  1.5333  0.7485
16868TIP3    H272096   5.948   0.901   3.469 -0.5926  0.8206  2.1115
16869TIP3   OH272097   3.545   1.860   4.016  0.1464 -0.1864 -0.0460
16869TIP3    H172098   3.604   1.870   3.942  0.1429  2.8628  0.2531
16869TIP3    H272099   3.602   1.836   4.089  0.1154 -3.5350 -0.9173
16870TIP3   OH272100   4.504   5.853   4.898 -0.4386  0.1331 -0.3529
16870TIP3    H172101   4.573   5.902   4.853  1.6288 -0.0157  2.4324
16870TIP3    H272102   4.425   5.904   4.883  0.7946  1.8783 -1.2802
16871TIP3   OH272103   3.985   1.360  11.115 -0.8008 -0.0391  0.3370
16871TIP3    H172104   3.968   1.417  11.040  1.9734  2.0127  1.1268
16871TIP3    H272105   4.003   1.420  11.187 -2.8986 -1.9412  2.6470
16872TIP3   OH272106   6.133   0.536  15.852  0.3781 -0.1275 -0.9698
16872TIP3    H172107   6.130   0.616  15.799  1.1516  0.8393  0.3905
16872TIP3    H272108   6.048   0.534  15.897  0.8600  0.6653  0.0040
16873TIP3   OH272109   3.408   2.352  16.530 -0.4128 -0.0562  0.6752
16873TIP3    H172110   3.366   2.357  16.616 -0.5545 -0.6510  0.6455
16873TIP3    H272111   3.347   2.301  16.477 -0.3630  0.3749  0.1986
16874TIP3   OH272112   2.855   5.287  11.517 -0.4342 -0.0337 -0.3498
16874TIP3    H172113   2.937   5.308  11.472 -1.1309  1.2425 -1.0545
16874TIP3    H272114   2.832   5.200  11.486 -0.5093  0.5205 -1.9113
16875TIP3   OH272115   1.510   5.666   5.379 -0.2222 -0.4647  0.1753
16875TIP3    H172116   1.549   5.714   5.306 -2.6783  1.2855 -0.1223
16875TIP3    H272117   1.547   5.706   5.457 -1.5326  1.3699 -0.0897
16876TIP3   OH272118   2.876   5.233   5.771  0.1311 -0.2011 -0.5385
16876TIP3    H172119   2.820   5.296   5.817  1.4430  0.2316  0.5503
16876TIP3    H272120   2.950   5.219   5.831  0.2591 -2.2085 -1.0793
16877TIP3   OH272121   2.072   3.322   1.905  0.0933  0.0805 -0.7749
16877TIP3    H172122   2.079   3.380   1.829  1.4054  1.0064  0.0161
16877TIP3    H272123   2.000   3.262   1.883 -0.7606  1.4803 -1.9573
16878TIP3   OH272124   4.042   3.100  11.950 -0.7698 -0.0518  0.3002
16878TIP3    H172125   4.028   3.005  11.943 -0.5090 -0.0010 -1.1870
16878TIP3    H272126   3.979   3.138  11.889  0.0070  0.6563 -0.0810
16879TIP3   OH272127   5.038   4.440  12.461  0.5285  0.4879  0.0482
16879TIP3    H172128   5.050   4.534  12.467 -0.0070  0.4759  1.6589
16879TIP3    H272129   5.025   4.411  12.551 -1.5356 -0.8076 -0.5765
16880TIP3   OH272130   0.720   3.117  12.620  1.0255 -0.5147  0.5288
16880TIP3    H172131   0.712   3.144  12.528  2.3075  0.2198  0.6096
16880TIP3    H272132   0.785   3.047  12.618  1.3472 -0.2293  0.9173
16881TIP3   OH272133   6.459   4.369  15.324  0.4804  0.4710 -0.3479
16881TIP3    H172134   6.365   4.383  15.336  0.5089  1.0760 -0.7983
16881TIP3    H272135   6.491   4.341  15.410 -0.0206  0.7639 -0.0629
16882TIP3   OH272136   3.133   1.313  12.631 -0.0951 -0.2536 -0.1443
16882TIP3    H172137   3.110   1.318  12.539  1.5229  0.0211 -0.5658
16882TIP3    H272138   3.214   1.262  12.633 -0.5349 -0.9594  1.2166
16883TIP3   OH272139   4.900   0.662   4.808 -0.3562  0.3753  0.3761
16883TIP3    H172140   4.864   0.747   4.834 -1.0038  0.3520 -0.4027
16883TIP3    H272141   4.993   0.679   4.793 -0.6195  1.1413 -0.5277
16884TIP3   OH272142   6.741   1.840  15.434  0.5684 -0.5250  0.0007
16884TIP3    H172143   6.718   1.864  15.524 -0.1646  0.8546 -0.5320
16884TIP3    H272144   6.674   1.881  15.380  1.5494 -0.4984 -1.2487
16885TIP3   OH272145   0.958   1.027  14.870 -0.2841 -0.0558  0.0865
16885TIP3    H172146   1.031   1.089  14.862  0.0751 -0.5990 -1.1123
16885TIP3    H272147   0.995   0.943  14.844 -0.9175 -0.6744  1.1311
16886TIP3   OH272148   2.648   6.544  13.563 -0.0041 -0.2928  0.0230
16886TIP3    H172149   2.670   6.465  13.612  0.3610  0.3337  0.8850
16886TIP3    H272150   2.638   6.513  13.473 -1.5327 -1.6248  0.5794
16887TIP3   OH272151   1.343   6.664   5.666 -0.3249  0.5595  0.1107
16887TIP3    H172152   1.301   6.618   5.739  0.7676 -2.3944 -0.9384
16887TIP3    H272153   1.422   6.612   5.648  0.8511  2.7513 -1.4543
16888TIP3   OH272154   4.208   2.034  16.173 -0.6485 -0.2616 -1.1989
16888TIP3    H172155   4.183   2.097  16.240 -0.6622 -0.3886 -1.0845
16888TIP3    H272156   4.247   2.087  16.104 -0.3291 -0.1615 -0.9452
16889TIP3   OH272157   2.514   0.126  17.187  0.4097  0.5760 -0.4168
16889TIP3    H172158   2.581   0.190  17.163  0.7199 -0.2993 -2.0348
16889TIP3    H272159   2.542   0.093  17.272  1.7018  0.6595 -0.7958
16890TIP3   OH272160   0.280   5.897   5.417 -0.0454 -0.0654 -0.0343
16890TIP3    H172161   0.376   5.896   5.415  0.0374  0.4530  1.7527
16890TIP3    H272162   0.258   5.990   5.430 -0.7594 -0.2474  0.0885
16891TIP3   OH272163   0.674   2.751  13.403  0.1688  0.1959  0.2152
16891TIP3    H172164   0.692   2.845  13.412  1.2688  0.2605 -1.9185
16891TIP3    H272165   0.584   2.746  13.370  0.5798  0.6276 -1.0445
16892TIP3   OH272166   1.059   3.660  13.786  0.1668  0.3661 -0.1105
16892TIP3    H172167   1.073   3.606  13.864  3.1076  0.6636 -0.3027
16892TIP3    H272168   0.965   3.659  13.772 -0.4268 -0.0592  3.1832
16893TIP3   OH272169   5.473   3.371  17.438  0.1722  0.4212  0.4760
16893TIP3    H172170   5.460   3.319  17.516  0.0048  0.8547  0.7416
16893TIP3    H272171   5.478   3.307  17.367  0.0260  0.0444  0.8017
16894TIP3   OH272172   1.801   0.085  16.825  0.0968  1.2478 -0.0531
16894TIP3    H172173   1.714   0.047  16.833 -0.2260  1.6749 -1.3278
16894TIP3    H272174   1.854   0.039  16.891 -0.9365  0.5617  0.3130
16895TIP3   OH272175   0.874   2.957   1.714 -0.1285  0.1677 -0.8240
16895TIP3    H172176   0.938   2.887   1.732 -1.0608 -0.2298  1.1242
16895TIP3    H272177   0.896   2.986   1.625  1.0813 -1.7438 -1.2115
16896TIP3   OH272178   1.720   3.845  11.384  0.0703  0.1356  0.0001
16896TIP3    H172179   1.624   3.848  11.376  0.0867  2.1277  0.0707
16896TIP3    H272180   1.737   3.857  11.478  0.3942 -2.2000  0.3072
16897TIP3   OH272181   5.117   4.216   2.070 -0.1638 -0.1769  0.0728
16897TIP3    H172182   5.154   4.128   2.058  0.6458  0.3048 -1.1426
16897TIP3    H272183   5.148   4.243   2.156 -0.8516 -1.2717  0.6871
16898TIP3   OH272184   1.677   1.402   1.484  0.5239 -0.1171 -0.1645
16898TIP3    H172185   1.616   1.373   1.417  0.9567 -1.9867  0.2051
16898TIP3    H272186   1.647   1.361   1.565  0.7814  1.0333  0.5470
16899TIP3   OH272187   5.801   2.573   2.056  0.0648  0.3058  0.2854
16899TIP3    H172188   5.839   2.489   2.030 -0.5367  0.0311  0.2807
16899TIP3    H272189   5.780   2.616   1.973  0.4538  0.5077  0.2856
16900TIP3   OH272190   0.180   1.238  11.097  0.1946 -0.1834  0.2811
16900TIP3    H172191   0.231   1.262  11.020 -0.1625 -1.3199 -0.3396
16900TIP3    H272192   0.093   1.276  11.082  0.2783  0.0515  0.3854
16901TIP3   OH272193   1.914   0.050  15.885  0.0653  0.2589 -0.1237
16901TIP3    H172194   1.988   0.110  15.898  0.2794 -0.3183  1.6516
16901TIP3    H272195   1.839   0.108  15.869  0.3374  1.0261  1.1959
16902TIP3   OH272196   2.243   4.222   1.442 -0.1643 -0.0038  0.5065
16902TIP3    H172197   2.192   4.222   1.361  0.9771  0.4712 -0.2354
16902TIP3    H272198   2.321   4.274   1.422 -0.0878  0.5469  2.0670
16903TIP3   OH272199   4.059   3.864   0.202 -0.0115  0.1820  0.2009
16903TIP3    H172200   4.066   3.942   0.256  0.8641 -0.9182  1.7742
16903TIP3    H272201   3.965   3.846   0.196 -0.1018 -0.1368  2.1207
16904TIP3   OH272202   4.081   0.801  12.026  0.5696 -0.1324 -0.3303
16904TIP3    H172203   4.172   0.828  12.038  1.1209 -1.9521 -0.2140
16904TIP3    H272204   4.052   0.773  12.113 -0.7444  2.1420  0.0497
16905TIP3   OH272205   6.220   4.216   5.658 -0.7293 -0.0727 -0.1534
16905TIP3    H172206   6.267   4.283   5.708 -1.2632  0.3329 -0.1886
16905TIP3    H272207   6.153   4.264   5.609 -1.1055 -0.6267 -0.1981
16906TIP3   OH272208   0.242   5.473   6.114  0.3698 -0.0807  0.4014
16906TIP3    H172209   0.216   5.450   6.203  0.2435 -1.8661 -0.0713
16906TIP3    H272210   0.207   5.561   6.101 -1.2821 -0.5388  1.4612
16907TIP3   OH272211   4.577   4.506  14.331 -0.3283  0.1713 -0.7120
16907TIP3    H172212   4.596   4.422  14.374 -0.6490  0.2791 -0.3523
16907TIP3    H272213   4.485   4.499  14.307 -0.3963  0.4829 -0.5383
16908TIP3   OH272214   0.008   3.397   3.953  0.1329 -0.7430 -0.4184
16908TIP3    H172215   0.032   3.489   3.962 -1.9481 -0.1751 -0.1833
16908TIP3    H272216   0.034   3.374   3.864  1.0141 -0.0683 -0.3534
16909TIP3   OH272217   2.351   3.996  12.198 -0.7171 -0.5426  0.1310
16909TIP3    H172218   2.424   3.977  12.258 -1.0545  0.3346  0.8524
16909TIP3    H272219   2.339   4.091  12.205 -0.8686 -0.4522 -1.2262
16910TIP3   OH272220   2.709   4.520  14.963  0.9342  0.1507  0.2032
16910TIP3    H172221   2.775   4.492  14.900  2.0294 -1.1047  1.8130
16910TIP3    H272222   2.637   4.458  14.950  0.3328  1.0472 -1.0237
16911TIP3   OH272223   3.407   1.957  10.914 -0.1693 -0.2555 -0.3408
16911TIP3    H172224   3.496   1.992  10.915 -0.2945  0.0570  0.0378
16911TIP3    H272225   3.419   1.862  10.905  0.1600 -0.0860 -1.9198
16912TIP3   OH272226   0.264   5.007  14.271  0.1195 -0.0573 -0.0743
16912TIP3    H172227   0.242   4.953  14.195 -0.2778 -0.6555  0.4571
16912TIP3    H272228   0.357   5.024  14.262 -0.2145  1.2585 -1.5645
16913TIP3   OH272229   0.153   5.172   2.394  0.0529  0.2165 -0.3073
16913TIP3    H172230   0.117   5.200   2.310 -1.3828 -0.4769  0.0500
16913TIP3    H272231   0.093   5.104   2.424  0.5324  0.4756  1.3055
16914TIP3   OH272232   6.270   4.167   6.991 -0.1729  0.0206 -0.0405
16914TIP3    H172233   6.213   4.146   6.917 -1.6024 -1.5049  1.4068
16914TIP3    H272234   6.346   4.110   6.980  0.0919  0.5162 -0.8367
16915TIP3   OH272235   5.716   3.542  15.039 -0.3110  0.3543  0.1764
16915TIP3    H172236   5.703   3.476  14.970  1.4516 -0.0348  0.1709
16915TIP3    H272237   5.786   3.506  15.093  0.4425  2.0723  0.3918
16916TIP3   OH272238   4.304   0.605  12.895  0.0839 -0.0221 -0.4297
16916TIP3    H172239   4.270   0.688  12.860  0.1671  0.2903  0.2065
16916TIP3    H272240   4.399   0.618  12.899  0.0959 -0.1426 -0.3160
16917TIP3   OH272241   4.216   3.879   5.734 -0.5922  0.0603 -0.6448
16917TIP3    H172242   4.159   3.881   5.657 -1.8484  1.0742  0.2769
16917TIP3    H272243   4.258   3.793   5.730 -0.2268  0.2900 -2.7294
16918TIP3   OH272244   1.835   3.987   6.227  0.1884  0.1263  0.0774
16918TIP3    H172245   1.751   3.955   6.196  1.1396 -0.3181 -2.3374
16918TIP3    H272246   1.837   3.967   6.320 -1.4734 -1.8558 -0.2540
16919TIP3   OH272247   6.446   4.928   2.057  0.1056 -0.3899 -0.3037
16919TIP3    H172248   6.394   4.851   2.082  2.5151 -1.8616  0.5677
16919TIP3    H272249   6.485   4.904   1.973  1.3754 -0.4410  0.2760
16920TIP3   OH272250   6.736   3.050  15.212 -0.1480 -0.3814  0.1151
16920TIP3    H172251   6.691   3.076  15.293 -1.4734  2.5446 -1.4084
16920TIP3    H272252   6.828   3.047  15.236 -0.3805  1.6385  1.5169
16921TIP3   OH272253   2.997   0.567   1.014 -0.3973  0.4890  0.0433
16921TIP3    H172254   3.008   0.657   0.981  2.2037  0.4114  0.5306
16921TIP3    H272255   3.084   0.528   1.008 -1.0751 -1.4267  1.6106
16922TIP3   OH272256   4.338   4.788   6.003 -0.1038 -0.6977 -0.0811
16922TIP3    H172257   4.421   4.740   6.005 -0.5127 -1.4310 -0.4125
16922TIP3    H272258   4.276   4.728   5.962 -1.1898 -0.7971  1.5944
16923TIP3   OH272259   6.311   4.968  15.966  0.2059 -0.6491 -0.2129
16923TIP3    H172260   6.254   4.996  16.037 -0.1820 -1.6530 -0.1153
16923TIP3    H272261   6.278   5.014  15.889 -1.8393 -2.4395 -0.5073
16924TIP3   OH272262   2.057   6.136   4.871  0.2574  0.0849 -0.2921
16924TIP3    H172263   2.091   6.176   4.951 -2.5222 -1.1716  1.6690
16924TIP3    H272264   1.970   6.175   4.860 -0.3609 -1.4868 -1.3327
16925TIP3   OH272265   6.684   6.079   4.730 -0.3216  0.0516  0.2309
16925TIP3    H172266   6.766   6.029   4.734  1.3275  2.4143 -1.3255
16925TIP3    H272267   6.712   6.170   4.723 -3.1556  1.0801  0.9819
16926TIP3   OH272268   0.632   2.134   3.151 -0.4252  0.4307  0.2508
16926TIP3    H172269   0.612   2.169   3.238  0.6084  0.7762  0.3613
16926TIP3    H272270   0.715   2.175   3.127 -2.2549  3.0012 -2.3434
16927TIP3   OH272271   3.341   2.394   2.471 -0.2247  0.5010 -0.1753
16927TIP3    H172272   3.433   2.416   2.483  0.2841 -0.4359 -2.0445
16927TIP3    H272273   3.299   2.478   2.450  0.5695  0.6458 -1.2159
16928TIP3   OH272274   1.376   0.496  14.804  0.1193 -0.0314  0.8356
16928TIP3    H172275   1.305   0.460  14.752 -0.7352 -0.0669  1.9888
16928TIP3    H272276   1.376   0.444  14.884  1.4800 -0.0534  0.8385
16929TIP3   OH272277   1.287   4.555   4.960 -0.7274 -0.0479 -0.5286
16929TIP3    H172278   1.346   4.573   5.033 -0.6277  2.4949 -1.1587
16929TIP3    H272279   1.310   4.466   4.933  1.3262  0.0616  0.6364
16930TIP3   OH272280   3.794   3.806   0.242 -0.0490 -0.3149 -0.4378
16930TIP3    H172281   3.777   3.898   0.263 -2.6520 -0.4870 -1.5181
16930TIP3    H272282   3.742   3.789   0.164  1.4613 -2.3741 -1.0723
16931TIP3   OH272283   0.855   5.669   3.563 -0.8276  0.7372 -0.0686
16931TIP3    H172284   0.781   5.643   3.508 -1.1476 -1.8544  1.4280
16931TIP3    H272285   0.932   5.634   3.518 -1.2539 -3.3752  1.9356
16932TIP3   OH272286   5.339   6.081  16.479 -0.8598 -0.1409  0.1384
16932TIP3    H172287   5.379   6.003  16.439  0.2923 -0.3692  1.6452
16932TIP3    H272288   5.326   6.141  16.406 -2.8609 -2.1127 -1.3070
16933TIP3   OH272289   0.414   1.865  16.563  0.1692  0.4851  0.1865
16933TIP3    H172290   0.396   1.940  16.506 -1.1182  1.6302  2.0001
16933TIP3    H272291   0.330   1.846  16.606  0.7644 -1.2145  0.7105
16934TIP3   OH272292   4.519   2.907  14.337 -0.5487 -0.0317 -0.6381
16934TIP3    H172293   4.482   2.925  14.250 -0.3785 -0.0298 -0.7103
16934TIP3    H272294   4.466   2.835  14.371  0.0004 -0.6956 -1.1484
16935TIP3   OH272295   0.742   2.777   0.048  0.1035 -0.0722 -0.1803
16935TIP3    H172296   0.668   2.720   0.070 -0.1048  0.0095 -0.6766
16935TIP3    H272297   0.819   2.730   0.081 -0.0280 -0.8209 -0.9203
16936TIP3   OH272298   3.060   0.467  12.055  0.1181  0.1284  0.0654
16936TIP3    H172299   3.047   0.407  11.981  2.2781  0.6415 -0.8140
16936TIP3    H272300   2.990   0.532  12.046 -0.4172 -0.5351 -0.7656
16937TIP3   OH272301   3.854   3.331  17.484  0.0897 -0.2128  0.3374
16937TIP3    H172302   3.875   3.408  17.537  2.7780 -0.4625 -0.2260
16937TIP3    H272303   3.900   3.259  17.527  0.8531 -0.7487 -1.3001
16938TIP3   OH272304   5.786   0.234   5.870 -0.1375  0.2110 -0.4800
16938TIP3    H172305   5.756   0.152   5.829 -2.1671  0.1707  0.9093
16938TIP3    H272306   5.713   0.260   5.926  0.7432  2.6292 -0.3434
16939TIP3   OH272307   6.081   3.995  15.550 -0.5668  0.2879  0.0375
16939TIP3    H172308   6.006   3.936  15.555  1.4782 -2.5074 -0.2341
16939TIP3    H272309   6.067   4.044  15.470 -1.3515 -1.3397 -0.8731
16940TIP3   OH272310   6.027   4.038  15.293  0.0985 -0.5095 -0.2033
16940TIP3    H172311   6.101   4.030  15.232  1.8395  0.2696  1.6848
16940TIP3    H272312   5.980   4.116  15.263 -1.3278 -2.1956 -2.7078
16941TIP3   OH272313   0.333   2.437  15.666 -0.0182  0.2588 -0.3779
16941TIP3    H172314   0.397   2.486  15.614  0.3896 -0.7120 -0.8090
16941TIP3    H272315   0.383   2.364  15.702 -1.0109 -0.8210 -1.1574
16942TIP3   OH272316   2.827   6.501  14.469 -0.2643 -0.1826 -0.1217
16942TIP3    H172317   2.890   6.455  14.413 -1.1102 -0.3479 -0.9682
16942TIP3    H272318   2.775   6.432  14.509 -0.0814 -0.0373  0.3724
16943TIP3   OH272319   1.956   6.425  10.673 -0.1918 -0.2205  0.0287
16943TIP3    H172320   1.868   6.459  10.658  0.6138  2.4943  0.9807
16943TIP3    H272321   1.953   6.386  10.760 -1.0810 -2.7020 -1.0155
16944TIP3   OH272322   3.248   6.070   6.238  0.1780 -0.3033 -0.0420
16944TIP3    H172323   3.221   6.117   6.317 -0.4427  1.0948 -1.0305
16944TIP3    H272324   3.252   5.978   6.264 -1.6933 -0.0942  1.1874
16945TIP3   OH272325   1.064   5.723   3.071 -0.8276  0.0830  0.5980
16945TIP3    H172326   1.018   5.784   3.013  2.2580 -0.7610 -3.2050
16945TIP3    H272327   1.130   5.776   3.114 -0.3736  0.0666 -0.0525
16946TIP3   OH272328   5.873   3.848  13.227  0.0433  0.0894  0.3123
16946TIP3    H172329   5.819   3.891  13.294 -0.6919 -0.0620 -0.1611
16946TIP3    H272330   5.810   3.823  13.159  0.0610 -3.6954  1.5077
16947TIP3   OH272331   4.364   3.732   0.610 -0.3186 -0.1989 -0.0272
16947TIP3    H172332   4.453   3.699   0.611  0.8632  2.6522 -1.0897
16947TIP3    H272333   4.351   3.769   0.698 -0.5428 -0.6971  0.1592
16948TIP3   OH272334   4.148   4.366  15.378 -0.3801  0.3428  0.1076
16948TIP3    H172335   4.052   4.364  15.378 -0.3742 -1.6677  0.6731
16948TIP3    H272336   4.174   4.279  15.350  1.2730  0.2504  1.7175
16949TIP3   OH272337   3.484   2.372  14.500 -0.1800 -0.1632 -0.0903
16949TIP3    H172338   3.451   2.377  14.589  0.0511 -0.3911  0.0102
16949TIP3    H272339   3.473   2.460  14.465 -1.3455 -0.3374 -0.2229
16950TIP3   OH272340   3.678   0.989   2.836  0.2869 -0.0043 -0.0439
16950TIP3    H172341   3.620   1.016   2.907  0.1803 -2.0998  0.7402
16950TIP3    H272342   3.619   0.970   2.763  0.0028 -1.4421  0.5271
16951TIP3   OH272343   1.482   4.178  13.024  0.1830  0.3197 -0.0314
16951TIP3    H172344   1.428   4.147  13.097  2.1557 -0.9381  0.9925
16951TIP3    H272345   1.450   4.266  13.007 -2.5427 -0.5485  0.1017
16952TIP3   OH272346   0.721   3.263  14.812 -0.5686  0.6200 -0.2954
16952TIP3    H172347   0.763   3.263  14.898  1.3190 -0.0822 -1.1555
16952TIP3    H272348   0.648   3.201  14.820  1.3122 -1.6876  0.0629
16953TIP3   OH272349   6.495   5.044  12.277 -0.1732  0.6670  0.0168
16953TIP3    H172350   6.560   4.976  12.293 -0.8250 -0.0153 -0.1910
16953TIP3    H272351   6.431   5.004  12.218  0.0481  1.8415 -1.0571
16954TIP3   OH272352   3.464   5.385   1.365 -0.2971 -0.1550 -0.6903
16954TIP3    H172353   3.447   5.399   1.459 -0.2468  0.0506 -0.7125
16954TIP3    H272354   3.464   5.289   1.356  1.3856 -0.2411 -0.1653
16955TIP3   OH272355   3.621   5.407   0.069 -0.0768  0.0467 -0.1490
16955TIP3    H172356   3.655   5.380  -0.016  1.6346 -1.2912  0.8929
16955TIP3    H272357   3.682   5.369   0.132 -2.0492 -0.1493  1.7471
16956TIP3   OH272358   6.399   1.492   2.402 -0.0094 -0.6502 -0.2859
16956TIP3    H172359   6.480   1.444   2.385  0.1578 -0.5473  0.1868
16956TIP3    H272360   6.423   1.584   2.395 -0.1689 -0.6259 -0.5076
16957TIP3   OH272361   3.360   2.480  16.780  0.3961  0.0859 -0.3095
16957TIP3    H172362   3.264   2.479  16.781  0.3944 -1.5383 -0.4494
16957TIP3    H272363   3.386   2.406  16.834  1.6186  1.1384  0.6207
16958TIP3   OH272364   5.365   5.796   2.659 -0.1990  0.2411 -0.4928
16958TIP3    H172365   5.436   5.764   2.604  0.0056  0.0467 -0.1185
16958TIP3    H272366   5.387   5.887   2.676 -0.5712  0.4742 -1.2222
16959TIP3   OH272367   6.211   4.324   4.245 -0.4041 -0.1307  0.1092
16959TIP3    H172368   6.164   4.401   4.213  0.3508 -0.4115 -1.8323
16959TIP3    H272369   6.219   4.268   4.167  1.6954 -0.8098  0.7709
16960TIP3   OH272370   1.525   1.669   1.585  0.6478  0.4170  0.0405
16960TIP3    H172371   1.611   1.628   1.593  0.7472  0.5809 -0.1843
16960TIP3    H272372   1.534   1.754   1.628  0.8123  0.7485 -0.6420
16961TIP3   OH272373   4.192   0.749  15.442  0.2208  0.0544 -0.1907
16961TIP3    H172374   4.264   0.694  15.474  0.9233 -0.5286 -2.5923
16961TIP3    H272375   4.190   0.823  15.503  2.1198 -0.4529  0.5794
16962TIP3   OH272376   0.195   1.283  11.787 -0.2605  0.2231  0.0021
16962TIP3    H172377   0.115   1.237  11.762 -1.6064  2.1804  0.4607
16962TIP3    H272378   0.180   1.310  11.878  0.1015  2.1659 -0.4570
16963TIP3   OH272379   4.312   3.272   4.333  0.2875 -0.6467  0.1117
16963TIP3    H172380   4.297   3.344   4.272  1.7002  0.1535  0.6582
16963TIP3    H272381   4.249   3.287   4.404  0.4874 -0.0004  0.1629
16964TIP3   OH272382   4.898   0.212  12.598  0.0474  0.1110  0.6640
16964TIP3    H172383   4.807   0.191  12.619  0.3250  0.1686  2.0583
16964TIP3    H272384   4.940   0.127  12.583 -0.3300  0.1128 -0.4402
16965TIP3   OH272385   3.528   3.903  14.581  0.2764 -0.3010 -0.4966
16965TIP3    H172386   3.462   3.911  14.650  1.6797 -0.6223  0.9313
16965TIP3    H272387   3.591   3.839  14.615  1.6226  0.4057 -1.5690
16966TIP3   OH272388   1.643   0.227   2.463  0.1693 -0.3140  0.1093
16966TIP3    H172389   1.589   0.161   2.507  0.0104 -0.8619 -0.8858
16966TIP3    H272390   1.689   0.271   2.534 -0.1475 -1.1199  0.8326
16967TIP3   OH272391   6.384   6.601  13.421 -0.0546 -0.0083  0.2969
16967TIP3    H172392   6.355   6.619  13.332  0.9400 -0.0972 -0.0676
16967TIP3    H272393   6.377   6.506  13.430  0.1286 -0.0305  0.2076
16968TIP3   OH272394   6.147   3.219  14.681 -0.4505 -0.4993  0.2691
16968TIP3    H172395   6.173   3.291  14.623  1.4807 -1.1810  0.2056
16968TIP3    H272396   6.144   3.142  14.624  1.3646 -1.1574  0.9954
16969TIP3   OH272397   3.041   5.926  16.276 -0.2887 -0.3225 -0.3513
16969TIP3    H172398   3.012   6.003  16.326  0.6322 -1.7916  2.6437
16969TIP3    H272399   3.072   5.962  16.193 -1.5045  2.3195  0.2217
16970TIP3   OH272400   2.577   6.468  15.476  0.2175  0.0343  0.3382
16970TIP3    H172401   2.567   6.405  15.548  0.4956 -1.7067 -1.0709
16970TIP3    H272402   2.655   6.518  15.499  0.4137 -0.6160  1.1697
16971TIP3   OH272403   5.635   0.221   5.086  0.5793  0.2505 -0.0548
16971TIP3    H172404   5.565   0.186   5.031 -0.4824 -0.3791  1.6232
16971TIP3    H272405   5.715   0.185   5.049 -0.1725 -0.7788 -0.7293
16972TIP3   OH272406   2.156   3.732  16.123 -0.0780  0.0667  0.5426
16972TIP3    H172407   2.082   3.745  16.181  0.5549 -0.1973  1.4240
16972TIP3    H272408   2.149   3.641  16.094 -0.8335  0.4253 -0.4293
16973TIP3   OH272409   2.513   5.374   1.259  0.1335  0.2881 -0.3537
16973TIP3    H172410   2.443   5.367   1.195 -1.3438  0.5668  1.1707
16973TIP3    H272411   2.506   5.463   1.293  0.5807 -0.0139  0.5522
16974TIP3   OH272412   6.400   0.945  11.083 -0.1779  0.1076 -0.5433
16974TIP3    H172413   6.458   1.015  11.115  0.0164  0.0109 -0.6838
16974TIP3    H272414   6.364   0.979  11.001 -0.2130  0.1109 -0.5271
16975TIP3   OH272415   2.678   1.567   1.666 -0.4743 -0.2862  0.3095
16975TIP3    H172416   2.690   1.472   1.673  1.1663 -0.2937 -1.5364
16975TIP3    H272417   2.658   1.596   1.755  1.2319 -2.0848  1.3583
16976TIP3   OH272418   2.254   4.824   1.050 -0.2102  0.0008  0.1077
16976TIP3    H172419   2.165   4.846   1.023 -0.8748 -0.6570  1.6616
16976TIP3    H272420   2.272   4.739   1.009 -0.6932 -0.3496  0.6146
16977TIP3   OH272421   1.539   6.018  16.490  0.1854 -0.1118  0.3784
16977TIP3    H172422   1.472   6.086  16.498 -0.5118 -0.9200  1.8750
16977TIP3    H272423   1.491   5.942  16.457  0.0000 -1.1129  2.7576
16978TIP3   OH272424   4.097   2.521   6.748  0.0311 -0.3358  0.0109
16978TIP3    H172425   4.059   2.608   6.760  0.0707 -0.4001  0.6309
16978TIP3    H272426   4.190   2.536   6.736 -0.0135 -0.2684 -0.2558
16979TIP3   OH272427   1.844   4.849   5.598 -0.5382 -0.2793  0.1511
16979TIP3    H172428   1.897   4.774   5.625 -1.6732 -1.1828 -0.0527
16979TIP3    H272429   1.779   4.859   5.668 -0.0518  0.8865  0.4592
16980TIP3   OH272430   3.591   5.167   3.174  0.3943 -0.5044 -0.2866
16980TIP3    H172431   3.596   5.109   3.251 -1.5844 -0.3748  0.0048
16980TIP3    H272432   3.635   5.247   3.202  0.9337 -0.9544  0.2030
16981TIP3   OH272433   1.181   0.278   2.146  0.3479 -0.1973  0.1138
16981TIP3    H172434   1.213   0.234   2.225 -0.1841 -1.9748 -0.5945
16981TIP3    H272435   1.098   0.235   2.127 -0.1877  1.1324 -0.6801
16982TIP3   OH272436   5.623   1.869  14.668 -0.2262  0.8901 -0.5311
16982TIP3    H172437   5.549   1.812  14.652 -0.8462  1.1646  1.1020
16982TIP3    H272438   5.584   1.955  14.685  0.7556  2.5111 -5.0785
16983TIP3   OH272439   5.419   5.746   5.926  0.2781  0.2398  0.5969
16983TIP3    H172440   5.481   5.753   5.853  1.9106  0.6193  1.9608
16983TIP3    H272441   5.405   5.837   5.954  0.6339  0.0241  1.5078
16984TIP3   OH272442   3.136   3.571   3.488 -0.8697 -0.2915 -0.1122
16984TIP3    H172443   3.077   3.646   3.484  0.6797  0.9107 -1.7868
16984TIP3    H272444   3.174   3.565   3.400 -0.8284 -2.9771  0.0006
16985TIP3   OH272445   2.898   2.846   4.699 -0.1186  0.2088  0.1842
16985TIP3    H172446   2.958   2.773   4.715 -0.3754  0.1110  0.7268
16985TIP3    H272447   2.854   2.823   4.618 -0.5439 -0.4824  0.5969
16986TIP3   OH272448   0.348   6.318  15.912 -0.6863  0.6390  0.3216
16986TIP3    H172449   0.349   6.366  15.994  1.0761 -0.4649  0.9975
16986TIP3    H272450   0.358   6.385  15.844 -0.7442  1.4269  1.0851
16987TIP3   OH272451   0.997   1.497   1.606 -0.3016 -0.0292  0.1644
16987TIP3    H172452   1.037   1.584   1.603 -1.5679  0.6135  1.0492
16987TIP3    H272453   1.071   1.437   1.600  0.7480  1.1084  1.1415
16988TIP3   OH272454   1.587   5.606  16.452  0.1345  0.1067  0.3852
16988TIP3    H172455   1.593   5.685  16.399  1.6817 -0.8308 -0.9152
16988TIP3    H272456   1.677   5.575  16.461 -0.3488 -1.0792  1.5477
16989TIP3   OH272457   0.150   3.033  13.451  0.0592 -0.0920 -0.0958
16989TIP3    H172458   0.124   3.033  13.359 -1.6199 -0.6480  0.3398
16989TIP3    H272459   0.180   3.122  13.468  0.5406 -0.0278 -1.2121
16990TIP3   OH272460   5.942   1.394   2.615  0.6210 -0.2644  0.2033
16990TIP3    H172461   5.976   1.306   2.633 -0.9505 -0.5127  2.4693
16990TIP3    H272462   6.019   1.450   2.617  1.3890 -1.2884  1.3174
16991TIP3   OH272463   1.538   3.836   0.363 -0.4658 -0.3653 -0.4215
16991TIP3    H172464   1.521   3.855   0.455  0.4272 -0.3301 -0.2608
16991TIP3    H272465   1.633   3.832   0.356 -0.5439 -0.9834 -1.2250
16992TIP3   OH272466   0.813   0.595   1.445 -0.1833 -0.6276  0.1090
16992TIP3    H172467   0.905   0.621   1.434 -0.4927  0.5964  0.2911
16992TIP3    H272468   0.814   0.500   1.433  0.9102 -0.4896 -1.1978
16993TIP3   OH272469   0.387   2.716   5.215 -0.6826 -0.4814 -0.6912
16993TIP3    H172470   0.353   2.700   5.303  1.4425  1.0046  0.4908
16993TIP3    H272471   0.355   2.804   5.193  0.6435  0.0848 -0.4185
16994TIP3   OH272472   3.386   2.820   4.109  0.8006 -0.3883  0.1148
16994TIP3    H172473   3.348   2.779   4.187 -0.0006 -0.2541 -0.1979
16994TIP3    H272474   3.464   2.865   4.142  0.0415  0.3380  0.9898
16995TIP3   OH272475   1.145   5.521   5.698 -0.6055  0.0927 -0.0997
16995TIP3    H172476   1.116   5.457   5.763  0.4525 -0.3325 -0.0307
16995TIP3    H272477   1.230   5.490   5.670 -1.6901 -0.6387 -2.9197
16996TIP3   OH272478   1.055   6.148   4.542 -0.4699 -0.0742 -0.1166
16996TIP3    H172479   0.998   6.120   4.614 -0.9359  1.8963  0.3337
16996TIP3    H272480   0.995   6.179   4.474  0.0203 -0.0860 -0.5657
16997TIP3   OH272481   2.833   6.329  16.370 -0.2593  0.6828 -0.1059
16997TIP3    H172482   2.763   6.362  16.314  1.1458  2.1579 -1.0734
16997TIP3    H272483   2.819   6.373  16.454  0.9513  3.0664 -1.0619
16998TIP3   OH272484   5.465   1.043   6.167 -0.3767 -0.1849  0.7583
16998TIP3    H172485   5.472   1.138   6.170 -2.3769  0.0194  0.1848
16998TIP3    H272486   5.460   1.016   6.259 -1.0105  0.3789  0.8911
16999TIP3   OH272487   1.542   5.671  12.421 -0.1085 -0.7524  0.2831
16999TIP3    H172488   1.606   5.726  12.467 -0.1690 -0.4017 -0.0460
16999TIP3    H272489   1.508   5.728  12.352 -0.0674 -1.2538 -0.1521
17000TIP3   OH272490   5.341   1.309  14.981 -0.3402 -0.6789  0.2192
17000TIP3    H172491   5.261   1.339  15.024 -0.9387 -1.1913 -0.5247
17000TIP3    H272492   5.409   1.319  15.048 -1.2712 -1.6064  1.3333
17001TIP3   OH272493   3.151   2.292   4.718 -0.1611  0.6120  0.4522
17001TIP3    H172494   3.182   2.373   4.757 -1.0653  1.1175  0.1387
17001TIP3    H272495   3.185   2.223   4.775  0.2017  1.2350  0.9939
17002TIP3   OH272496   5.446   0.740  16.264 -0.2033 -0.4635 -0.4656
17002TIP3    H172497   5.467   0.806  16.198 -0.4393 -0.6940 -0.7720
17002TIP3    H272498   5.416   0.664  16.214 -1.2073 -0.3414 -0.0615
17003TIP3   OH272499   2.789   6.727   1.301 -0.1389 -0.4694  0.1801
17003TIP3    H172500   2.859   6.735   1.237  0.8127 -0.2378  1.2317
17003TIP3    H272501   2.761   6.817   1.317 -0.3736 -0.5263  0.0957
17004TIP3   OH272502   1.411   5.811  13.317 -0.1066  0.0999 -0.0736
17004TIP3    H172503   1.491   5.760  13.333 -0.4509  0.2174  2.5257
17004TIP3    H272504   1.425   5.892  13.365 -1.3562  0.5968 -0.5192
17005TIP3   OH272505   6.224   0.997  15.224 -0.0763  0.2930  0.4724
17005TIP3    H172506   6.298   0.946  15.258 -0.2562 -1.0167 -0.9908
17005TIP3    H272507   6.158   0.990  15.293  0.6764  0.3865  1.2321
17006TIP3   OH272508   3.824   0.213   2.739  0.3657  0.0231  0.1991
17006TIP3    H172509   3.826   0.134   2.685  0.1791 -1.4187  2.1952
17006TIP3    H272510   3.912   0.251   2.731  0.2040  0.1004 -1.4254
17007TIP3   OH272511   5.708   2.431  13.872 -0.5958 -0.1755  0.1492
17007TIP3    H172512   5.698   2.421  13.778 -1.9594 -0.1143  0.2585
17007TIP3    H272513   5.780   2.493  13.883 -0.5083 -0.0939 -0.8564
17008TIP3   OH272514   0.908   6.406  15.895  0.0700 -0.6590 -0.0770
17008TIP3    H172515   0.856   6.450  15.962  0.3653  1.6499 -1.2416
17008TIP3    H272516   0.853   6.335  15.864 -1.4300  0.2769  0.3576
17009TIP3   OH272517   1.256   2.739  14.512  0.2316 -0.0291  0.1652
17009TIP3    H172518   1.331   2.707  14.562  1.3272 -0.1447 -1.4831
17009TIP3    H272519   1.211   2.660  14.482  0.9798 -0.0340 -1.0273
17010TIP3   OH272520   6.721   3.924  11.877 -0.0937 -0.0507  0.9128
17010TIP3    H172521   6.796   3.903  11.823 -0.2058  0.0881  0.7044
17010TIP3    H272522   6.758   3.966  11.955 -0.0010  0.5312  0.5554
17011TIP3   OH272523   1.794   0.106  12.811 -0.3078  0.4381  0.2467
17011TIP3    H172524   1.883   0.139  12.814 -0.8818  2.2223 -0.8357
17011TIP3    H272525   1.741   0.175  12.851 -1.3232 -0.0851 -0.1524
17012TIP3   OH272526   2.221   0.803  15.823 -0.2003 -0.1826 -0.3108
17012TIP3    H172527   2.285   0.735  15.802  0.0916  0.2797 -0.9461
17012TIP3    H272528   2.181   0.774  15.905  0.6063 -0.6371 -0.0696
17013TIP3   OH272529   0.868   4.301   1.583  0.4164 -0.2697  0.8450
17013TIP3    H172530   0.815   4.221   1.589 -0.5053  0.3576  1.3122
17013TIP3    H272531   0.861   4.340   1.670 -1.4597  1.7391 -0.1285
17014TIP3   OH272532   2.345   6.779   3.542  0.1935 -0.6072  0.0433
17014TIP3    H172533   2.329   6.873   3.533  1.3019 -0.2749  1.2087
17014TIP3    H272534   2.305   6.756   3.626  1.2348 -0.8450  0.4871
17015TIP3   OH272535   5.720   0.172  13.135 -0.0747 -0.4176 -0.0829
17015TIP3    H172536   5.812   0.186  13.157  0.0463  1.2818 -1.4375
17015TIP3    H272537   5.722   0.107  13.065  0.3234  0.9985 -1.4686
17016TIP3   OH272538   5.399   1.173   5.699 -0.1506 -0.4449 -0.3615
17016TIP3    H172539   5.370   1.120   5.773  0.7963 -1.8465 -0.9673
17016TIP3    H272540   5.483   1.210   5.727 -1.5421  2.2061  0.7132
17017TIP3   OH272541   4.823   5.236  14.112  0.1027  0.0687 -0.4907
17017TIP3    H172542   4.760   5.295  14.154 -0.3869 -0.6059 -0.2502
17017TIP3    H272543   4.768   5.173  14.064  0.5400 -1.1141  0.4959
17018TIP3   OH272544   4.489   2.041   2.590 -0.6111  0.3126 -0.1593
17018TIP3    H172545   4.459   2.083   2.670 -0.7392  1.2369 -0.6719
17018TIP3    H272546   4.584   2.034   2.601 -0.7516 -0.6235  0.5456
17019TIP3   OH272547   4.407   1.734  13.299 -0.0338 -0.2417 -0.4602
17019TIP3    H172548   4.442   1.711  13.213  0.0458 -0.3991 -0.3859
17019TIP3    H272549   4.312   1.740  13.285 -0.1083 -1.0905 -0.3813
17020TIP3   OH272550   0.746   1.126  15.022 -0.3831  0.3318 -0.3804
17020TIP3    H172551   0.680   1.057  15.027  0.1542 -0.1115  1.6026
17020TIP3    H272552   0.820   1.086  14.977 -0.5922  0.0611 -0.4847
17021TIP3   OH272553   1.850   0.039  14.451 -0.7259  0.5529  0.5410
17021TIP3    H172554   1.946   0.034  14.445 -0.7902 -1.7802  0.4284
17021TIP3    H272555   1.827  -0.028  14.515 -2.4311 -1.1017 -1.6391
17022TIP3   OH272556   0.376   5.792   2.002  0.0163  0.0558  0.1814
17022TIP3    H172557   0.411   5.778   2.090  0.1155  1.3953  0.3863
17022TIP3    H272558   0.308   5.858   2.014 -0.6659 -0.4922 -0.6113
17023TIP3   OH272559   5.847   0.809  17.176  0.3192 -0.7350 -1.0763
17023TIP3    H172560   5.770   0.856  17.145 -1.4542 -1.6058  1.6206
17023TIP3    H272561   5.905   0.877  17.210 -0.0601 -0.1781 -1.5299
17024TIP3   OH272562   5.414   1.659   1.599  0.1935 -0.0878  0.2763
17024TIP3    H172563   5.326   1.642   1.632  0.4691 -1.6318  0.2771
17024TIP3    H272564   5.401   1.682   1.507 -0.1571 -1.1966  0.0374
17025TIP3   OH272565   5.769   0.118   2.642  0.1860  0.5174 -0.2067
17025TIP3    H172566   5.759   0.168   2.723 -1.8800 -0.0323 -0.0481
17025TIP3    H272567   5.793   0.030   2.670  0.2926  0.5321 -0.2505
17026TIP3   OH272568   6.501   3.250  13.577 -0.5377  0.5254 -0.6406
17026TIP3    H172569   6.553   3.188  13.526 -2.5328 -0.3391 -1.7447
17026TIP3    H272570   6.460   3.308  13.512 -2.5221 -0.1123 -0.0531
17027TIP3   OH272571   5.940   3.486  15.945 -0.3561  0.6171  0.1325
17027TIP3    H172572   5.998   3.558  15.970  0.1870 -0.4925  2.3698
17027TIP3    H272573   5.864   3.529  15.905  1.4519  2.1740 -1.8138
17028TIP3   OH272574   0.552   6.242   4.200  0.2309  0.3626 -0.3157
17028TIP3    H172575   0.526   6.189   4.124  0.1625  0.0988 -0.1112
17028TIP3    H272576   0.574   6.328   4.164  2.1589 -0.3253 -0.9289
17029TIP3   OH272577   0.692   1.648  14.841 -0.1479 -0.2727  0.4270
17029TIP3    H172578   0.753   1.604  14.901 -1.4042  0.0247  1.9909
17029TIP3    H272579   0.669   1.581  14.777  1.0096 -0.6932  0.4378
17030TIP3   OH272580   3.638   0.514  17.437 -0.1264  0.0447 -0.1740
17030TIP3    H172581   3.609   0.596  17.476 -0.1000 -0.5739  1.2143
17030TIP3    H272582   3.729   0.530  17.411 -0.1913  0.5134 -0.1071
17031TIP3   OH272583   4.969   1.501  12.845  0.2551  0.3428 -0.4559
17031TIP3    H172584   4.874   1.516  12.838  0.1767  0.1589  0.1960
17031TIP3    H272585   5.006   1.554  12.775 -0.2034  1.7086  0.3097
17032TIP3   OH272586   5.914   1.454   3.770 -0.4348 -0.4111  0.2556
17032TIP3    H172587   5.958   1.399   3.706 -0.3981  1.0439 -1.0402
17032TIP3    H272588   5.903   1.538   3.725  0.3687  0.9597  2.4636
17033TIP3   OH272589   0.424   5.984  15.184  0.7972 -0.0235 -0.4294
17033TIP3    H172590   0.380   6.016  15.263  3.5096 -0.8657  1.5693
17033TIP3    H272591   0.512   6.021  15.190  0.4116  2.0564 -4.5187
17034TIP3   OH272592   5.787   1.056   0.535  0.4778 -0.3449 -0.0466
17034TIP3    H172593   5.878   1.034   0.557  0.9404  1.1788 -0.2712
17034TIP3    H272594   5.749   0.974   0.503  0.9282 -1.6966  2.5872
17035TIP3   OH272595   2.072   1.781   6.071 -0.4403 -0.0859  0.3423
17035TIP3    H172596   2.068   1.745   6.160  2.4740 -0.9850  0.2220
17035TIP3    H272597   2.148   1.840   6.072  0.5141 -1.1457 -1.8355
17036TIP3   OH272598   2.907   4.487   0.413 -0.0602  0.2125 -0.0691
17036TIP3    H172599   2.856   4.512   0.491 -0.6688 -2.4668  0.4833
17036TIP3    H272600   2.855   4.419   0.371  1.7544 -0.6380 -1.0590
17037TIP3   OH272601   3.256   3.998  17.488  0.3181  0.4413 -0.4935
17037TIP3    H172602   3.269   4.070  17.427  1.1327  0.6106 -0.1375
17037TIP3    H272603   3.182   4.025  17.543  0.5280  0.9500 -0.4534
17038TIP3   OH272604   3.074   5.473  15.034 -0.3356 -0.5693 -0.0738
17038TIP3    H172605   3.141   5.421  15.077  0.3091 -0.6068 -1.0811
17038TIP3    H272606   3.094   5.466  14.941 -1.8951 -0.7944 -0.4282
17039TIP3   OH272607   0.588   2.411   1.453 -0.5747  0.4428 -0.6589
17039TIP3    H172608   0.614   2.392   1.544  0.7299  0.3051 -1.0409
17039TIP3    H272609   0.505   2.365   1.442  0.3496 -1.4288 -0.1980
17040TIP3   OH272610   6.515   0.883  12.664  0.8311  0.1864  0.3582
17040TIP3    H172611   6.507   0.919  12.752  0.0637  0.3564  0.2197
17040TIP3    H272612   6.566   0.803  12.676  0.8690  0.2906  0.9308
17041TIP3   OH272613   4.908   2.414   4.559  0.2226 -0.3547  0.1364
17041TIP3    H172614   4.895   2.458   4.474  3.4420  0.5835 -0.0286
17041TIP3    H272615   4.879   2.478   4.624 -0.1553 -0.1620 -0.2209
17042TIP3   OH272616   1.233   5.022  12.875  0.1577  0.1143 -0.2069
17042TIP3    H172617   1.259   5.045  12.786  0.1580 -1.9785 -0.7990
17042TIP3    H272618   1.309   4.974  12.911 -0.5901 -0.8116  0.1833
17043TIP3   OH272619   4.926   3.601  15.900  0.1031 -0.6457  0.0771
17043TIP3    H172620   4.862   3.653  15.949  0.3416 -0.4195  0.1514
17043TIP3    H272621   4.931   3.518  15.948  0.0251 -0.5833  0.1941
17044TIP3   OH272622   2.108   0.990  16.535 -1.0588  0.1212  0.5751
17044TIP3    H172623   2.074   1.059  16.478 -1.0399  0.9318  1.5216
17044TIP3    H272624   2.041   0.978  16.601 -0.9596 -0.6223  0.5467
17045TIP3   OH272625   4.697   1.213  16.932  0.3095  0.0899 -0.1858
17045TIP3    H172626   4.729   1.283  16.875 -0.5935  1.2803  0.7078
17045TIP3    H272627   4.611   1.242  16.960  0.1476 -1.1230  0.6854
17046TIP3   OH272628   4.205   5.381  16.941  0.7238 -0.1231  0.2255
17046TIP3    H172629   4.122   5.371  16.987  0.4781  0.3100 -0.1191
17046TIP3    H272630   4.211   5.475  16.923  0.5998 -0.3403 -1.0284
17047TIP3   OH272631   5.263   1.105   3.194  0.6349  0.3014  0.0311
17047TIP3    H172632   5.186   1.051   3.176  0.9676  0.0711 -0.7494
17047TIP3    H272633   5.273   1.159   3.115 -0.1480  2.0811  1.0957
17048TIP3   OH272634   0.595   3.298   0.326 -0.5146  0.0063  0.1108
17048TIP3    H172635   0.552   3.357   0.264 -0.0431  0.8759  0.5912
17048TIP3    H272636   0.593   3.346   0.409  0.5257 -0.3408  0.3405
17049TIP3   OH272637   4.479   6.136  14.159  0.0440 -0.5108 -0.0338
17049TIP3    H172638   4.406   6.097  14.207 -0.5420 -0.5181 -0.9024
17049TIP3    H272639   4.448   6.141  14.068  0.3329  1.3674 -0.0781
17050TIP3   OH272640   1.728   3.007   1.191  0.0040  0.1525  0.1079
17050TIP3    H172641   1.673   3.081   1.215 -1.2284 -1.4314  2.6197
17050TIP3    H272642   1.671   2.950   1.139 -0.3541 -0.8180  1.5050
17051TIP3   OH272643   4.281   6.741   6.188 -0.1569  0.0514 -0.0405
17051TIP3    H172644   4.246   6.789   6.114 -0.1495  2.0163  1.1775
17051TIP3    H272645   4.287   6.805   6.259 -1.5004 -2.0557  2.1230
17052TIP3   OH272646   1.265   3.000   3.668 -0.2914 -0.0204  0.3466
17052TIP3    H172647   1.343   3.019   3.719  0.8157  0.2325 -1.3505
17052TIP3    H272648   1.259   3.071   3.605 -1.1496 -0.7138 -0.3940
17053TIP3   OH272649   5.256   2.026  16.264  0.2045 -0.1395 -0.3496
17053TIP3    H172650   5.197   1.995  16.195  1.6593  0.3256 -1.8686
17053TIP3    H272651   5.343   2.024  16.224  0.7609  2.8942  0.4689
17054TIP3   OH272652   3.329   4.309  17.203  0.3299 -0.4053 -0.1982
17054TIP3    H172653   3.357   4.369  17.134 -0.9074  0.3974 -0.0314
17054TIP3    H272654   3.345   4.222  17.167  5.2513 -0.1558  0.7704
17055TIP3   OH272655   5.648   2.119  17.381 -0.3485  0.0903  0.1435
17055TIP3    H172656   5.582   2.050  17.371 -1.4855  1.3297 -1.2989
17055TIP3    H272657   5.630   2.157  17.467 -1.0737 -0.0399  0.0572
17056TIP3   OH272658   2.432   5.006  16.073 -0.0107  0.3706  0.3685
17056TIP3    H172659   2.337   4.999  16.066 -0.0250  0.2147  0.7047
17056TIP3    H272660   2.464   4.917  16.058  0.1798  0.6840 -1.2053
17057TIP3   OH272661   1.999   2.085  11.484  0.1608  0.4519  0.2981
17057TIP3    H172662   2.094   2.089  11.489  0.4487  1.3594 -3.1716
17057TIP3    H272663   1.970   2.074  11.574  3.5917 -2.1781  1.2683
17058TIP3   OH272664   4.237   1.652   1.376  0.3112  0.2563 -0.3413
17058TIP3    H172665   4.148   1.652   1.410  0.2324 -1.0399 -0.4824
17058TIP3    H272666   4.247   1.736   1.332 -0.5100  0.8103  0.5082
17059TIP3   OH272667   0.939   5.063   5.444 -0.0009  0.0890 -0.0213
17059TIP3    H172668   0.979   5.001   5.505 -0.2366 -0.0368  0.0054
17059TIP3    H272669   0.849   5.033   5.435 -0.1244  0.4450  0.0140
17060TIP3   OH272670   2.108   1.913  14.059 -0.2748 -0.5127 -0.1842
17060TIP3    H172671   2.091   2.000  14.095  0.6800 -1.1092  1.8256
17060TIP3    H272672   2.189   1.923  14.008 -0.2127 -0.2053 -0.0235
17061TIP3   OH272673   2.187   4.946   4.926 -0.0215  0.1071 -0.0003
17061TIP3    H172674   2.137   5.027   4.916 -0.2590  0.0690  0.8017
17061TIP3    H272675   2.278   4.973   4.920 -0.1230  0.2282 -1.1305
17062TIP3   OH272676   5.675   4.627   4.537 -0.3873  0.0478  0.4042
17062TIP3    H172677   5.688   4.569   4.612  0.4649  2.0768  1.9353
17062TIP3    H272678   5.585   4.658   4.547 -1.2138 -1.7236 -1.0190
17063TIP3   OH272679   3.957   0.369  17.490 -0.0239  0.0747  0.0716
17063TIP3    H172680   3.911   0.350  17.572  1.1850 -0.1375  0.7231
17063TIP3    H272681   4.046   0.392  17.517  0.3582  0.1449 -1.1771
17064TIP3   OH272682   6.244   3.084  16.273  0.2247 -0.1133 -0.3318
17064TIP3    H172683   6.158   3.114  16.302 -0.0927  0.7445 -2.0193
17064TIP3    H272684   6.241   2.989  16.282 -0.7167 -0.0533  0.1077
17065TIP3   OH272685   1.618   2.156  15.500 -0.4958  0.0753 -0.5387
17065TIP3    H172686   1.600   2.074  15.455  2.4572 -0.9619 -0.0912
17065TIP3    H272687   1.643   2.130  15.589  1.0766  1.3652 -0.5461
17066TIP3   OH272688   2.903   1.924   5.128  0.8733 -0.2336  0.4219
17066TIP3    H172689   2.962   1.941   5.202  1.1654  0.1729  0.1018
17066TIP3    H272690   2.825   1.887   5.168  0.7132  0.7150  1.0218
17067TIP3   OH272691   1.037   6.242   5.371  0.0864  0.0606  0.3388
17067TIP3    H172692   0.959   6.296   5.382 -0.0668 -0.1498  0.2751
17067TIP3    H272693   1.081   6.245   5.456  0.0693  0.2697  0.3415
17068TIP3   OH272694   0.972   4.672  13.929 -0.3943 -1.0073  0.1184
17068TIP3    H172695   1.019   4.589  13.936  0.7169 -0.3649  0.5574
17068TIP3    H272696   0.949   4.695  14.019  1.3481  0.2699  0.2905
17069TIP3   OH272697   0.121   3.128   0.731  0.3946  0.3292  0.1792
17069TIP3    H172698   0.030   3.109   0.756  0.4191 -0.1372 -0.0717
17069TIP3    H272699   0.113   3.199   0.667  0.3446  1.6731  1.6082
17070TIP3   OH272700   1.717   3.057   6.692  0.1219  0.2407  0.0509
17070TIP3    H172701   1.678   2.992   6.633  0.5253  1.2153 -1.3378
17070TIP3    H272702   1.752   3.005   6.764  0.0886 -1.0531 -0.8258
17071TIP3   OH272703   6.398   5.348   6.694 -0.5081  0.1178  0.3216
17071TIP3    H172704   6.320   5.368   6.642 -0.9876 -1.4838  0.3617
17071TIP3    H272705   6.449   5.288   6.640 -0.2723 -0.3897  1.0814
17072TIP3   OH272706   5.105   2.703  14.773  0.2179  0.4517  0.5433
17072TIP3    H172707   5.138   2.615  14.789  2.3685  0.6400 -2.0995
17072TIP3    H272708   5.010   2.694  14.776  0.3870 -1.6808  1.4773
17073TIP3   OH272709   0.230   2.372   1.477 -0.0489  0.3222  0.3583
17073TIP3    H172710   0.283   2.327   1.543  1.2039  0.6345 -0.4154
17073TIP3    H272711   0.160   2.310   1.457 -1.0513  0.5834  2.6525
17074TIP3   OH272712   6.068   3.321  12.782  0.1924  0.0160 -0.0258
17074TIP3    H172713   6.105   3.408  12.797  1.4717 -0.7794  1.7636
17074TIP3    H272714   6.141   3.268  12.751  0.2262 -1.1645  1.9048
17075TIP3   OH272715   2.381   2.412  17.377  0.3094 -0.1674 -0.3327
17075TIP3    H172716   2.449   2.389  17.441  0.4975  0.0838 -0.4415
17075TIP3    H272717   2.305   2.361  17.404 -0.4056  1.7781  1.6198
17076TIP3   OH272718   5.558   5.614  14.779 -0.3393  0.3651  0.4278
17076TIP3    H172719   5.529   5.529  14.745 -0.7055  0.0187  1.5832
17076TIP3    H272720   5.637   5.634  14.728  0.6753 -1.4181  1.2013
17077TIP3   OH272721   5.762   2.576  11.532 -0.0884  0.2940 -0.0328
17077TIP3    H172722   5.770   2.540  11.620  1.7348 -0.3336 -0.3991
17077TIP3    H272723   5.794   2.506  11.474  2.8058  2.0677 -0.8375
17078TIP3   OH272724   3.572   1.962  15.546  0.0509 -0.1316 -0.0577
17078TIP3    H172725   3.594   1.870  15.557  1.5182  0.1178 -0.5938
17078TIP3    H272726   3.585   1.979  15.453 -0.0966  0.6333  0.0503
17079TIP3   OH272727   6.309   0.526  13.523 -0.4550  0.0701  0.0216
17079TIP3    H172728   6.363   0.449  13.508 -1.2893 -0.4224 -0.5051
17079TIP3    H272729   6.233   0.514  13.466 -0.7685  1.1079  0.1988
17080TIP3   OH272730   1.304   4.989  15.444  0.2811  0.2282 -0.0896
17080TIP3    H172731   1.394   4.961  15.461  0.4103 -0.4384 -1.6829
17080TIP3    H272732   1.267   5.007  15.530  0.8445 -2.9275  0.9462
17081TIP3   OH272733   3.519   6.524   3.089  0.4194 -0.1279 -0.1643
17081TIP3    H172734   3.497   6.453   3.149  0.9522 -0.2894 -0.1504
17081TIP3    H272735   3.615   6.531   3.095  0.2914  1.5031  0.9043
17082TIP3   OH272736   3.811   5.809   4.464  0.3214  0.0017  0.1206
17082TIP3    H172737   3.905   5.831   4.462  0.0956  1.2119  1.1233
17082TIP3    H272738   3.783   5.813   4.373  1.4523 -1.4025 -0.3193
17083TIP3   OH272739   0.680   0.067  10.791 -0.1280  0.1940 -0.8937
17083TIP3    H172740   0.655   0.156  10.813 -0.2327  0.0746 -0.5142
17083TIP3    H272741   0.669   0.018  10.873  0.0974 -0.1290 -1.0517
17084TIP3   OH272742   4.257   0.489  12.035 -0.1433  0.5120  0.2666
17084TIP3    H172743   4.198   0.533  11.973 -1.5320 -0.9521  0.4742
17084TIP3    H272744   4.214   0.501  12.120  0.4421  0.3658  0.5843
17085TIP3   OH272745   0.606   3.433  10.693 -0.2349 -0.0273  0.3698
17085TIP3    H172746   0.517   3.414  10.721  0.1911 -1.7412  0.6971
17085TIP3    H272747   0.660   3.413  10.770  0.6161 -1.1840 -0.4798
17086TIP3   OH272748   4.985   3.590  15.123 -0.2088  0.3455  0.0471
17086TIP3    H172749   5.037   3.670  15.126 -1.1993  0.9935  0.3282
17086TIP3    H272750   4.968   3.568  15.214 -1.2641  0.7117 -0.0451
17087TIP3   OH272751   4.831   2.863   3.974 -0.6222 -0.2547  0.0377
17087TIP3    H172752   4.906   2.890   3.921  0.4199 -2.1017  0.5081
17087TIP3    H272753   4.755   2.877   3.917 -0.0314  2.0549 -0.2984
17088TIP3   OH272754   0.259   1.862  17.246  0.1132  0.2572 -0.3786
17088TIP3    H172755   0.172   1.821  17.245  0.2326 -0.0992  1.2550
17088TIP3    H272756   0.265   1.907  17.162 -0.7958 -1.4685 -1.4223
17089TIP3   OH272757   0.093   2.876  15.425 -0.2030 -0.1851 -0.2150
17089TIP3    H172758   0.056   2.788  15.420 -0.8149  0.0863 -0.5539
17089TIP3    H272759   0.134   2.890  15.339 -0.7513  0.1386 -0.4271
17090TIP3   OH272760   3.852   5.395   2.020 -0.1921  0.2792 -0.7012
17090TIP3    H172761   3.800   5.347   1.956  0.1541 -1.8204  0.5065
17090TIP3    H272762   3.941   5.389   1.987  0.0824 -1.3715  0.2314
17091TIP3   OH272763   5.243   2.456  16.559 -0.4666  0.2031  0.2698
17091TIP3    H172764   5.289   2.540  16.564 -0.2234  0.2248 -1.4828
17091TIP3    H272765   5.157   2.474  16.597 -0.7207  1.4982 -0.8276
17092TIP3   OH272766   2.435   1.120   2.458  0.3271  0.3594 -0.2496
17092TIP3    H172767   2.453   1.208   2.492  0.8987  1.1090 -2.2997
17092TIP3    H272768   2.341   1.119   2.443  0.0569 -0.0109  1.3332
17093TIP3   OH272769   2.419   4.434  14.275 -0.2396  0.3542  0.7101
17093TIP3    H172770   2.400   4.382  14.353 -0.8708 -0.0114  0.3186
17093TIP3    H272771   2.341   4.424  14.220  0.5153 -0.0133 -0.3054
17094TIP3   OH272772   1.069   5.302   6.455 -0.2638  0.3767  0.2045
17094TIP3    H172773   1.152   5.280   6.497  0.0465  0.5382 -0.3205
17094TIP3    H272774   1.004   5.246   6.498 -0.2441  1.7039  2.0536
17095TIP3   OH272775   1.764   3.705   5.924 -0.2856  0.2358 -0.3126
17095TIP3    H172776   1.773   3.613   5.949 -0.9414  0.0459 -0.7579
17095TIP3    H272777   1.839   3.722   5.868 -0.4047 -0.1529 -0.5913
17096TIP3   OH272778   1.557   2.026  11.672 -0.4408  0.4456  0.2853
17096TIP3    H172779   1.530   1.974  11.597 -2.5352  0.5766  0.8710
17096TIP3    H272780   1.602   1.964  11.729 -0.4362 -0.0762 -0.2718
17097TIP3   OH272781   6.067   5.999  12.672  0.4732  0.1347 -1.0389
17097TIP3    H172782   6.083   5.921  12.726  1.3934  2.0187  1.6284
17097TIP3    H272783   6.041   5.964  12.586 -1.0892 -3.0593  0.5623
17098TIP3   OH272784   3.801   1.958   6.566 -0.2130  0.5513 -0.2485
17098TIP3    H172785   3.748   1.912   6.631 -1.6146  1.7328 -0.5166
17098TIP3    H272786   3.892   1.942   6.594 -0.7596  0.5958  1.7001
17099TIP3   OH272787   3.029   3.932   5.407 -0.2500 -1.2418  0.3004
17099TIP3    H172788   3.072   3.934   5.493  0.6358  1.1666 -0.0922
17099TIP3    H272789   2.942   3.896   5.423 -0.9997  1.3228  2.7224
17100TIP3   OH272790   6.294   4.868   6.124 -0.0265 -0.0253  0.7080
17100TIP3    H172791   6.375   4.817   6.119  0.4780  0.8715 -2.6871
17100TIP3    H272792   6.294   4.906   6.212  3.7691  0.7152  0.5298
17101TIP3   OH272793   3.598   2.142   0.640  0.4163  0.8949 -0.4269
17101TIP3    H172794   3.671   2.110   0.587 -1.6735 -2.9596 -1.4113
17101TIP3    H272795   3.614   2.106   0.728  0.1648  0.7532 -0.4354
17102TIP3   OH272796   3.353   1.551   4.208  0.3844 -0.4073  0.0986
17102TIP3    H172797   3.320   1.640   4.202  0.0011 -0.4641  1.2203
17102TIP3    H272798   3.431   1.551   4.152  0.7820  0.8108  0.6259
17103TIP3   OH272799   6.684   3.487   4.211  0.7605  0.1241 -0.1461
17103TIP3    H172800   6.723   3.572   4.230 -0.0286  0.5516 -0.3884
17103TIP3    H272801   6.675   3.485   4.116 -1.8579  1.0124  0.0027
17104TIP3   OH272802   1.764   6.451  11.768 -0.4405  0.1983  0.8937
17104TIP3    H172803   1.852   6.417  11.756 -0.4012  0.6904 -0.2788
17104TIP3    H272804   1.775   6.546  11.773 -0.8789  0.2490  1.0259
17105TIP3   OH272805   6.019   6.396  12.312 -0.2574 -0.5272  0.7654
17105TIP3    H172806   6.011   6.490  12.299 -1.1007 -0.4114  2.0289
17105TIP3    H272807   6.109   6.383  12.344  0.4767 -0.3876 -1.0844
17106TIP3   OH272808   3.505   6.294   4.203 -0.3401 -0.2224  0.1271
17106TIP3    H172809   3.430   6.312   4.146  0.2690 -0.3164 -0.7246
17106TIP3    H272810   3.575   6.350   4.169  0.1560 -0.5960  0.5254
17107TIP3   OH272811   6.398   2.079   5.090 -0.2889 -0.1673 -0.5426
17107TIP3    H172812   6.478   2.122   5.061  0.2968 -0.5969  0.3865
17107TIP3    H272813   6.425   1.990   5.113 -0.9510 -0.2120  0.1205
17108TIP3   OH272814   1.926   6.333  14.204  0.6308 -0.1401 -0.0038
17108TIP3    H172815   1.893   6.355  14.116  0.7000 -1.1328 -0.2889
17108TIP3    H272816   2.008   6.381  14.211 -0.2731  1.4660  0.2719
17109TIP3   OH272817   0.425   4.892  16.297 -0.1527  0.5384 -0.0319
17109TIP3    H172818   0.485   4.837  16.248  0.4232  0.6759  0.5090
17109TIP3    H272819   0.455   4.886  16.388  0.0448  1.8714  0.0200
17110TIP3   OH272820   4.029   2.771  13.212 -0.4044 -0.2807 -0.2948
17110TIP3    H172821   3.975   2.814  13.277 -1.9989 -1.9846 -0.4232
17110TIP3    H272822   4.080   2.842  13.173 -2.7399  1.4800 -0.3607
17111TIP3   OH272823   4.767   5.356   0.975 -0.5830 -0.3721  0.2888
17111TIP3    H172824   4.750   5.374   0.883  2.1260 -0.1248 -0.2323
17111TIP3    H272825   4.684   5.376   1.019 -1.7587  0.0638 -1.9904
17112TIP3   OH272826   3.775   0.986  15.652  0.6331 -0.0384  0.1985
17112TIP3    H172827   3.788   0.892  15.665  1.4997  0.1903  1.1367
17112TIP3    H272828   3.711   1.010  15.718 -1.0982 -0.2967 -1.3210
17113TIP3   OH272829   1.779   0.537   0.289  0.4003  0.0123  0.2169
17113TIP3    H172830   1.859   0.514   0.242  1.9832  0.7080  2.4149
17113TIP3    H272831   1.745   0.454   0.321  0.3569 -0.2683 -0.5466
17114TIP3   OH272832   3.168   3.929  15.986 -0.3330 -0.4049 -0.2351
17114TIP3    H172833   3.141   3.989  15.917  1.2696 -1.0143 -1.4617
17114TIP3    H272834   3.216   3.984  16.049 -0.9914 -0.0037 -0.0784
17115TIP3   OH272835   6.259   3.608  14.091 -0.1476  0.2669  0.5717
17115TIP3    H172836   6.239   3.553  14.016 -0.0395 -1.0878  1.5071
17115TIP3    H272837   6.339   3.654  14.066  0.6557 -1.1839  0.3639
17116TIP3   OH272838   3.218   6.032   5.797 -0.2097  0.4636  0.2248
17116TIP3    H172839   3.208   5.984   5.880 -0.4320 -0.4004 -0.2849
17116TIP3    H272840   3.210   5.964   5.730  0.2272  1.1199 -0.4990
17117TIP3   OH272841   2.127   3.570  12.776  0.4733 -0.1894 -0.3300
17117TIP3    H172842   2.058   3.603  12.717  2.3142  1.9033 -1.4822
17117TIP3    H272843   2.161   3.493  12.732  0.1330 -0.1318 -0.7068
17118TIP3   OH272844   6.556   2.015   4.471 -0.0336  0.2448  0.4648
17118TIP3    H172845   6.579   1.923   4.464  1.9176  0.6405  0.8693
17118TIP3    H272846   6.598   2.056   4.395  1.8172  1.1944  1.9085
17119TIP3   OH272847   6.145   6.161  10.946  0.2337 -0.0088  0.5707
17119TIP3    H172848   6.210   6.219  10.905  0.0551  0.4040  0.8648
17119TIP3    H272849   6.189   6.076  10.953  0.2299 -0.1235 -0.5864
17120TIP3   OH272850   6.434   6.597  11.243  0.6263  0.1465  0.1213
17120TIP3    H172851   6.484   6.635  11.171 -1.1737 -1.1715 -1.9492
17120TIP3    H272852   6.450   6.503  11.237 -1.0852 -0.1793  0.1550
17121TIP3   OH272853   6.067   1.867   5.538 -0.3070 -0.3026 -0.2235
17121TIP3    H172854   5.983   1.858   5.493 -0.6520 -2.2147  0.6922
17121TIP3    H272855   6.043   1.894   5.627  0.0350 -0.8957  0.0513
17122TIP3   OH272856   2.432   4.507   1.894  0.2090 -0.2413 -0.2763
17122TIP3    H172857   2.443   4.469   1.807  2.6665  0.3684 -0.2965
17122TIP3    H272858   2.400   4.596   1.878  0.5471 -0.1689 -0.5554
17123TIP3   OH272859   6.746   5.759   2.667  0.4846  0.5581 -0.8558
17123TIP3    H172860   6.798   5.791   2.594  1.1391 -1.3764 -1.3090
17123TIP3    H272861   6.677   5.706   2.627 -0.0906  0.7510 -0.1426
17124TIP3   OH272862   2.852   5.971   0.281 -0.3952  0.5417 -0.9492
17124TIP3    H172863   2.874   6.064   0.291  1.3346  0.2910 -2.0369
17124TIP3    H272864   2.932   5.931   0.247 -1.2096 -1.3072 -0.7999
17125TIP3   OH272865   0.089   6.471  13.658 -0.1131  0.7860  0.0863
17125TIP3    H172866   0.108   6.490  13.750  3.5269  1.2781 -0.6043
17125TIP3    H272867   0.079   6.557  13.617 -2.5747  0.5539  0.0945
17126TIP3   OH272868   4.453   0.922  11.321  0.0244 -0.2187  0.2777
17126TIP3    H172869   4.510   0.847  11.302 -0.4144 -0.2198 -1.2182
17126TIP3    H272870   4.493   0.964  11.397  1.3928 -0.8661 -0.0454
17127TIP3   OH272871   4.180   4.166  15.668  0.0048 -1.0336  0.0253
17127TIP3    H172872   4.247   4.149  15.602 -1.1334 -2.1568 -0.8866
17127TIP3    H272873   4.193   4.258  15.692 -0.9052  0.1474 -3.4047
17128TIP3   OH272874   2.734   4.832   5.006  0.0085 -0.5381  0.3677
17128TIP3    H172875   2.768   4.758   5.056 -0.3215  0.2819  1.8785
17128TIP3    H272876   2.811   4.876   4.972  0.2388 -1.1305  0.1095
17129TIP3   OH272877   3.798   4.146  16.727  0.1197  0.2543  0.6250
17129TIP3    H172878   3.856   4.126  16.801  1.1297 -1.0193 -0.4535
17129TIP3    H272879   3.806   4.070  16.669  1.0509  2.1018 -1.8514
17130TIP3   OH272880   2.081   0.534  15.195  0.2148 -0.2047  0.5241
17130TIP3    H172881   2.013   0.599  15.214 -1.1552 -1.3851 -0.1303
17130TIP3    H272882   2.163   0.579  15.213 -0.5500  2.3932 -1.7776
17131TIP3   OH272883   3.558   5.509  11.331  0.3029  0.3648  0.0416
17131TIP3    H172884   3.587   5.525  11.241 -0.0582 -0.6259 -0.2631
17131TIP3    H272885   3.464   5.495  11.324  0.1209  1.2055  0.7081
17132TIP3   OH272886   4.912   1.745  17.191  0.7259 -0.2835  0.2483
17132TIP3    H172887   4.903   1.771  17.100 -1.5134  0.0249  0.5176
17132TIP3    H272888   4.852   1.671  17.202  0.8832 -0.2571  1.5130
17133TIP3   OH272889   4.541   1.755  11.975 -0.0286  0.8942 -0.5075
17133TIP3    H172890   4.497   1.680  11.935  0.2369  0.6386 -0.3244
17133TIP3    H272891   4.598   1.717  12.041 -0.1285  1.2822 -0.1919
17134TIP3   OH272892   6.392   2.133  12.427 -0.4511  0.1650  1.0860
17134TIP3    H172893   6.479   2.133  12.465 -0.7587  0.2437  1.8030
17134TIP3    H272894   6.363   2.224  12.432  0.5947  0.7642 -1.9289
17135TIP3   OH272895   4.405   0.554   2.570  0.0415  0.0571 -0.3740
17135TIP3    H172896   4.427   0.495   2.498 -0.1053 -2.1286  1.2755
17135TIP3    H272897   4.489   0.577   2.609  0.1015  1.0509 -1.0264
17136TIP3   OH272898   4.868   3.323   2.288 -0.0346  0.0837 -0.1235
17136TIP3    H172899   4.808   3.313   2.214 -0.4599  2.7472 -0.2461
17136TIP3    H272900   4.811   3.332   2.364  0.3060 -0.0437  0.1497
17137TIP3   OH272901   3.653   1.141  16.793  0.1392  0.6389  0.1929
17137TIP3    H172902   3.603   1.130  16.874 -1.2733  0.0296 -0.7189
17137TIP3    H272903   3.598   1.101  16.726  1.3945  0.9089 -1.0336
17138TIP3   OH272904   1.773   3.053  11.216 -0.0483  0.0012 -0.0535
17138TIP3    H172905   1.692   3.030  11.170 -0.0500 -0.7746  0.3222
17138TIP3    H272906   1.809   3.127  11.166  0.9619 -2.0207 -2.5371
17139TIP3   OH272907   6.438   2.326  15.137 -0.2037  0.1402 -0.3215
17139TIP3    H172908   6.418   2.408  15.183  0.0232 -0.0005  0.0392
17139TIP3    H272909   6.387   2.259  15.185  1.0452 -0.2118  0.5682
17140TIP3   OH272910   6.729   0.844  14.523 -0.1664  0.0797  0.4862
17140TIP3    H172911   6.729   0.763  14.575  0.2432  0.3213  0.8699
17140TIP3    H272912   6.783   0.825  14.447 -0.3177 -0.1017  0.4241
17141TIP3   OH272913   3.749   2.416   0.624  0.0718 -0.0414 -0.1407
17141TIP3    H172914   3.711   2.487   0.675 -2.1850 -0.6709 -0.8121
17141TIP3    H272915   3.699   2.339   0.649  2.2158 -1.3879  0.2926
17142TIP3   OH272916   3.012   2.476  16.065 -0.4254  0.3014  0.4261
17142TIP3    H172917   2.930   2.426  16.072  0.4544 -1.0600  1.7099
17142TIP3    H272918   3.048   2.474  16.154  0.4241  1.9233  0.1454
17143TIP3   OH272919   2.487   1.770  16.399  0.6780  0.3350  0.4605
17143TIP3    H172920   2.410   1.797  16.448  1.2708  2.1346  0.4456
17143TIP3    H272921   2.550   1.744  16.466  0.2296 -0.7876  0.4829
17144TIP3   OH272922   5.255   1.016   2.434 -0.5535  0.3001 -0.4055
17144TIP3    H172923   5.247   0.930   2.393  1.1497 -1.0279  1.8045
17144TIP3    H272924   5.349   1.035   2.431 -0.4332  0.4830  2.0010
17145TIP3   OH272925   1.421   3.931   1.318 -0.6103  0.4076  0.5238
17145TIP3    H172926   1.497   3.900   1.269  0.1769 -0.6019  2.2798
17145TIP3    H272927   1.345   3.896   1.271  0.1443 -1.3075  0.5255
17146TIP3   OH272928   6.381   2.862   3.239  0.3233 -0.2434  0.0624
17146TIP3    H172929   6.449   2.800   3.266  1.3839  0.4707 -0.9100
17146TIP3    H272930   6.336   2.819   3.167 -0.0397 -0.5600  0.4679
17147TIP3   OH272931   5.435   5.705  15.020 -0.0958  0.3953  0.3511
17147TIP3    H172932   5.392   5.678  14.938 -1.8949 -0.4952  1.5106
17147TIP3    H272933   5.511   5.648  15.027 -1.6835 -1.7800  0.8161
17148TIP3   OH272934   3.210   0.045  11.941 -0.0273  0.1126  0.7251
17148TIP3    H172935   3.195   0.119  11.882  0.7623 -1.3593 -1.4877
17148TIP3    H272936   3.302   0.051  11.965  0.4477 -0.8865 -0.6788
17149TIP3   OH272937   1.552   2.709   5.934 -0.3264  0.1780 -0.3133
17149TIP3    H172938   1.601   2.717   5.852  0.1793 -3.6925 -0.5500
17149TIP3    H272939   1.466   2.678   5.907 -0.9212  1.0712  0.5119
17150TIP3   OH272940   6.660   1.150   5.438  0.3265  0.0918  0.2208
17150TIP3    H172941   6.696   1.062   5.428  1.0015  0.2720  0.9620
17150TIP3    H272942   6.736   1.208   5.432 -0.2207  0.7170 -1.2131
17151TIP3   OH272943   1.203   5.648   2.490  0.4550  0.5186 -0.7099
17151TIP3    H172944   1.277   5.691   2.446 -0.9507  2.0473 -1.7079
17151TIP3    H272945   1.175   5.580   2.429  2.1559 -1.3849  0.5059
17152TIP3   OH272946   2.665   0.709   3.783 -0.6320  0.3506  0.1106
17152TIP3    H172947   2.666   0.739   3.692  0.3397 -0.9307 -0.3286
17152TIP3    H272948   2.577   0.731   3.814 -1.0834  0.5432 -1.2281
17153TIP3   OH272949   1.404   2.034  15.960  0.0044 -0.3411 -0.2117
17153TIP3    H172950   1.453   1.971  15.907 -0.2606 -0.4146 -0.3761
17153TIP3    H272951   1.346   2.078  15.897 -0.7973 -0.9058  0.1200
17154TIP3   OH272952   1.162   1.579  13.601 -0.5353 -0.6211  0.0830
17154TIP3    H172953   1.248   1.566  13.562 -0.4923  2.2576 -1.0172
17154TIP3    H272954   1.180   1.620  13.686 -0.6876  2.5590 -1.2503
17155TIP3   OH272955   3.636   1.324   2.176 -0.0825 -0.3993  0.2104
17155TIP3    H172956   3.542   1.308   2.165 -0.2447  0.0501  0.9044
17155TIP3    H272957   3.676   1.239   2.157 -0.7145 -0.8759  0.9356
17156TIP3   OH272958   5.198   3.595  13.609 -0.3607 -0.9405  0.1747
17156TIP3    H172959   5.285   3.632  13.624  0.5922 -2.9281 -0.0840
17156TIP3    H272960   5.138   3.658  13.648  1.1335  0.8676 -0.3295
17157TIP3   OH272961   5.138   2.227   5.570 -0.0643 -0.4406 -0.4194
17157TIP3    H172962   5.113   2.317   5.552  0.4273 -0.2161  0.0044
17157TIP3    H272963   5.122   2.215   5.663  0.1176 -0.7068 -0.4191
17158TIP3   OH272964   0.751   5.005  14.089 -0.6155  0.4688  0.4395
17158TIP3    H172965   0.750   5.091  14.047 -1.8416  0.3522  0.1894
17158TIP3    H272966   0.839   4.972  14.075 -1.0651  0.2414 -2.4593
17159TIP3   OH272967   0.015   4.785  15.870  0.1532  0.4239 -0.3689
17159TIP3    H172968  -0.011   4.875  15.890 -0.7380  0.5509 -1.9737
17159TIP3    H272969   0.109   4.791  15.853  0.4301  0.7370  1.1114
17160TIP3   OH272970   6.035   6.344  12.036  0.3769  0.2700  0.5722
17160TIP3    H172971   6.117   6.365  11.992 -0.3303  1.4704 -0.2532
17160TIP3    H272972   6.049   6.366  12.127  0.2117  2.9084  0.0184
17161TIP3   OH272973   6.236   1.371  15.557  0.4076  0.0778 -0.4201
17161TIP3    H172974   6.287   1.368  15.476 -2.6530 -3.7875 -2.5344
17161TIP3    H272975   6.270   1.299  15.610  0.3038  0.5739  0.3378
17162TIP3   OH272976   2.145   5.038   6.007 -0.3304 -0.3123  0.4498
17162TIP3    H172977   2.118   4.982   6.080 -1.9804 -0.9182 -0.5728
17162TIP3    H272978   2.196   5.107   6.048  1.0358 -2.0507  1.8705
17163TIP3   OH272979   6.487   6.100  11.464  0.4145 -0.3416 -0.3432
17163TIP3    H172980   6.487   6.196  11.464 -2.0765 -0.2906  0.5535
17163TIP3    H272981   6.484   6.076  11.372 -0.4432  0.4859 -0.5438
17164TIP3   OH272982   2.787   2.771  11.250 -0.0569 -0.4817 -0.1444
17164TIP3    H172983   2.790   2.855  11.295 -1.7750 -1.1767  1.3784
17164TIP3    H272984   2.743   2.790  11.167 -1.0486  0.0297  0.4788
17165TIP3   OH272985   3.576   4.168   0.064  0.2438 -0.6525 -0.0637
17165TIP3    H172986   3.502   4.191   0.120  0.2553 -1.9680  0.5100
17165TIP3    H272987   3.630   4.110   0.117  0.8253 -1.0479 -1.0640
17166TIP3   OH272988   4.104   0.776   0.492 -0.6037 -0.2540 -0.5553
17166TIP3    H172989   4.015   0.750   0.514 -0.4512 -0.1045  0.2780
17166TIP3    H272990   4.151   0.694   0.481 -0.8091 -0.3320 -0.8668
17167TIP3   OH272991   0.448   0.299   0.211  0.4682  0.1274  0.6035
17167TIP3    H172992   0.381   0.363   0.188  0.9259  0.1665 -0.6459
17167TIP3    H272993   0.401   0.215   0.211  0.2887  0.2277  0.3405
17168TIP3   OH272994   6.761   0.747   6.113  0.2359 -0.5257  0.4153
17168TIP3    H172995   6.806   0.831   6.123 -2.8217  1.3514 -0.4102
17168TIP3    H272996   6.730   0.726   6.201 -3.0314  1.8009  0.0001
17169TIP3   OH272997   6.768   0.088   5.336 -0.3915 -0.1014  0.1416
17169TIP3    H172998   6.847   0.086   5.282 -1.0638 -0.3701 -0.8661
17169TIP3    H272999   6.742  -0.004   5.344 -0.4255 -0.0468  0.7616
17170TIP3   OH273000   3.166   6.759  15.705 -0.3386 -0.0118  0.4299
17170TIP3    H173001   3.180   6.768  15.610 -0.3491 -0.2732  0.4046
17170TIP3    H273002   3.162   6.849  15.737 -0.2114  0.0774  0.1986
17171TIP3   OH273003   2.218   1.264   2.517 -0.1656 -0.3454 -0.2871
17171TIP3    H173004   2.194   1.283   2.608 -2.8820 -1.3547 -0.7089
17171TIP3    H273005   2.159   1.319   2.465  1.2425  0.0959 -1.4907
17172TIP3   OH273006   1.312   1.352  13.502 -0.0015 -0.9298 -0.5153
17172TIP3    H173007   1.368   1.317  13.571  0.0663 -0.7942 -0.5017
17172TIP3    H273008   1.370   1.359  13.426 -0.1023 -1.1827 -0.6183
17173TIP3   OH273009   0.656   4.206  15.828 -0.0075 -0.2065  0.8068
17173TIP3    H173010   0.622   4.295  15.836  1.4693  0.4392  0.1452
17173TIP3    H273011   0.582   4.155  15.792  0.0941  1.4627 -2.0694
17174TIP3   OH273012   3.593   6.000   1.945  0.8175  0.4114  0.4228
17174TIP3    H173013   3.527   6.069   1.956  1.2569  0.8382  0.4668
17174TIP3    H273014   3.561   5.927   1.997  0.8913  0.9964  1.3251
17175TIP3   OH273015   1.845   4.476   2.640 -1.0207  0.2694  0.0662
17175TIP3    H173016   1.903   4.474   2.564 -0.2362 -1.2071  0.6506
17175TIP3    H273017   1.764   4.436   2.609 -0.9782  0.3859 -0.1982
17176TIP3   OH273018   2.204   3.059   6.350 -0.3352  0.2558 -0.2402
17176TIP3    H173019   2.112   3.067   6.375 -0.0672  3.1434  0.1634
17176TIP3    H273020   2.247   3.024   6.428 -0.9295  0.0588  0.0009
17177TIP3   OH273021   1.991   0.236   1.133  0.5519 -0.3304 -0.3480
17177TIP3    H173022   2.021   0.145   1.138  2.2050  0.1125 -1.3537
17177TIP3    H273023   1.985   0.264   1.224  0.9670 -1.1595 -0.0514
17178TIP3   OH273024   6.236   2.556   1.310  0.3866  0.1310 -0.1024
17178TIP3    H173025   6.317   2.604   1.326  0.6711 -0.5854  0.6587
17178TIP3    H273026   6.265   2.475   1.267  0.1590 -0.4491  0.8085
17179TIP3   OH273027   3.367   6.481   1.014 -0.2642  0.2073 -0.0588
17179TIP3    H173028   3.391   6.421   0.944  3.1631  2.0209 -0.6598
17179TIP3    H273029   3.311   6.547   0.972 -0.1351  0.0272 -0.5122
17180TIP3   OH273030   1.247   1.538  15.987 -0.4952 -0.3753 -0.0264
17180TIP3    H173031   1.179   1.603  15.967  0.8859  1.2113  0.2139
17180TIP3    H273032   1.297   1.530  15.906  0.8220  0.7458  0.6348
17181TIP3   OH273033   1.680   5.722  11.518 -0.4537 -0.0450 -0.3894
17181TIP3    H173034   1.731   5.646  11.488  0.1533 -0.4618  1.5874
17181TIP3    H273035   1.740   5.771  11.573 -1.4898  0.7430  0.0695
17182TIP3   OH273036   5.237   2.706  14.091  0.1264  0.9596 -0.4360
17182TIP3    H173037   5.216   2.759  14.014 -0.9203  1.2409  0.0372
17182TIP3    H273038   5.155   2.697  14.138  0.5149 -0.1896  0.0625
17183TIP3   OH273039   6.568   0.793  11.537  0.1289  0.2935 -0.2363
17183TIP3    H173040   6.591   0.861  11.601 -0.3691  0.6294 -0.4088
17183TIP3    H273041   6.474   0.779  11.550  0.1631 -0.1227 -0.4304
17184TIP3   OH273042   3.096   1.843  17.386  0.0903  0.0402 -0.5649
17184TIP3    H173043   3.026   1.798  17.434 -0.4369 -1.5997 -2.6994
17184TIP3    H273044   3.050   1.893  17.319  0.8720 -1.4713 -2.3349
17185TIP3   OH273045   2.970   3.566   0.186  0.7164 -0.4641 -0.0252
17185TIP3    H173046   2.943   3.555   0.094  1.1276  0.0252 -0.2082
17185TIP3    H273047   2.914   3.506   0.234  1.6659 -2.0069 -0.7731
17186TIP3   OH273048   2.604   3.967  13.643 -0.1340  0.6317 -0.4227
17186TIP3    H173049   2.563   4.047  13.609 -1.0674 -0.7235 -2.7755
17186TIP3    H273050   2.553   3.945  13.721 -3.0235 -0.1139 -2.3589
17187TIP3   OH273051   3.674   6.376   6.400 -0.1896 -0.1577 -0.2165
17187TIP3    H173052   3.616   6.305   6.428  1.3387 -1.1266  0.6133
17187TIP3    H273053   3.614   6.445   6.372 -1.8285 -0.2619  2.6510
17188TIP3   OH273054   0.159   6.248  14.486 -0.9247  0.0991  0.3705
17188TIP3    H173055   0.160   6.184  14.416 -1.8870  0.3075  0.1476
17188TIP3    H273056   0.076   6.294  14.475 -0.3563  1.2316  0.6550
17189TIP3   OH273057   4.577   2.349  11.805 -0.0494  0.4303 -0.3691
17189TIP3    H173058   4.502   2.331  11.862  0.1428 -1.2030 -0.5734
17189TIP3    H273059   4.538   2.387  11.726 -0.4699  1.2531  0.2181
17190TIP3   OH273060   5.611   0.070   3.819 -0.2041  0.0002  0.3758
17190TIP3    H173061   5.595   0.001   3.884  0.6442 -0.3596  0.2246
17190TIP3    H273062   5.565   0.146   3.853 -1.6804 -0.8044  0.2284
17191TIP3   OH273063   3.433   5.151   4.099  0.4252 -0.3850 -0.5674
17191TIP3    H173064   3.490   5.085   4.139 -0.3140 -0.6021  0.1555
17191TIP3    H273065   3.344   5.121   4.119  0.0691  0.7376 -0.3855
17192TIP3   OH273066   0.813   6.413  14.018 -0.1921  0.1180  0.1428
17192TIP3    H173067   0.774   6.329  13.994 -0.1123 -0.3947  1.6571
17192TIP3    H273068   0.808   6.466  13.939 -1.2772 -0.9323 -0.5200
17193TIP3   OH273069   4.054   0.797  17.155 -0.0353  0.1662  0.1192
17193TIP3    H173070   4.088   0.818  17.068  0.7665 -0.7752  0.1906
17193TIP3    H273071   3.960   0.809  17.147 -0.0492 -0.5844 -1.0794
17194TIP3   OH273072   6.656   2.167  11.352 -0.1119  0.6422 -0.0823
17194TIP3    H173073   6.666   2.144  11.259  1.4228 -0.0427  0.2142
17194TIP3    H273074   6.741   2.145  11.391 -0.9961  0.1197  1.6501
17195TIP3   OH273075   6.003   5.847  17.175 -0.2028 -0.0623  0.1723
17195TIP3    H173076   5.969   5.853  17.264  1.2988  1.2915  0.7212
17195TIP3    H273077   6.066   5.919  17.169 -0.8937  0.4431 -2.2840
17196TIP3   OH273078   1.797   6.496  14.993  0.5121  0.0255  0.4896
17196TIP3    H173079   1.882   6.519  14.955  1.2457  0.5607  2.3642
17196TIP3    H273080   1.818   6.456  15.077 -0.9176 -3.7730 -0.7436
17197TIP3   OH273081   0.290   5.868   4.199  0.4885  0.0853  0.1739
17197TIP3    H173082   0.370   5.872   4.251  1.2802 -0.9235 -0.9036
17197TIP3    H273083   0.219   5.879   4.263  1.4659  0.6488  1.1953
17198TIP3   OH273084   2.009   1.880  15.880 -0.1726 -0.6340 -0.0662
17198TIP3    H173085   2.075   1.949  15.870 -0.4816 -0.3755 -0.3643
17198TIP3    H273086   1.932   1.925  15.916  0.2249 -1.1736  1.5083
17199TIP3   OH273087   4.300   6.102  14.759  0.3970 -0.7802  0.3417
17199TIP3    H173088   4.315   6.173  14.696  1.4052 -0.2412  1.1492
17199TIP3    H273089   4.247   6.142  14.827 -0.6353 -1.3450 -0.1160
17200TIP3   OH273090   0.517   0.931  17.036 -0.3319 -0.2393  0.1913
17200TIP3    H173091   0.584   0.863  17.026 -1.1276 -0.8580 -1.1432
17200TIP3    H273092   0.490   0.952  16.947  0.5383  2.5429  0.4643
17201TIP3   OH273093   4.356   5.039  16.996  0.1522 -0.0198 -0.3879
17201TIP3    H173094   4.439   5.008  17.033  0.2091 -1.6966 -1.7626
17201TIP3    H273095   4.366   5.134  16.992  2.2785 -0.2041 -1.0478
17202TIP3   OH273096   6.741   5.293  14.045  0.2331  0.1086  0.0773
17202TIP3    H173097   6.785   5.338  13.973 -3.4469  4.0132 -0.1359
17202TIP3    H273098   6.782   5.328  14.124 -1.0338  2.2248 -0.1374
17203TIP3   OH273099   5.191   5.826  16.750 -0.2737  0.1063 -0.1628
17203TIP3    H173100   5.170   5.735  16.731  1.1305 -0.0951 -0.9033
17203TIP3    H273101   5.209   5.865  16.665 -0.3233  0.9329  0.1951
17204TIP3   OH273102   6.732   4.192   1.908  0.0768 -0.0914  0.7275
17204TIP3    H173103   6.788   4.257   1.867  1.2285 -1.8939 -0.7227
17204TIP3    H273104   6.649   4.198   1.860  0.1343  0.3768  0.6856
17205TIP3   OH273105   0.797   3.944   0.698 -0.1676 -0.0643  0.0375
17205TIP3    H173106   0.821   4.007   0.629 -0.4575  0.3845  0.3406
17205TIP3    H273107   0.724   3.895   0.660  0.0090 -0.1658 -0.1721
17206TIP3   OH273108   5.275   1.479  16.450 -0.4431  0.5071  0.2455
17206TIP3    H173109   5.322   1.503  16.371 -0.2244  0.9849  0.5187
17206TIP3    H273110   5.184   1.468  16.422  0.0545 -2.1860 -0.6677
17207TIP3   OH273111   6.032   6.423  10.480 -0.2872  0.4648 -0.1580
17207TIP3    H173112   6.068   6.345  10.522 -0.2709  0.6843  0.2358
17207TIP3    H273113   6.108   6.475  10.456 -0.3198  0.6254  0.0898
17208TIP3   OH273114   6.004   4.536  16.572  0.4427  0.4898  0.0015
17208TIP3    H173115   5.965   4.583  16.498 -3.2801  0.4461  1.6977
17208TIP3    H273116   6.084   4.585  16.592 -0.9365  3.4373 -1.0709
17209TIP3   OH273117   5.066   0.776   2.973 -0.5743  0.2409 -0.5049
17209TIP3    H173118   5.128   0.703   2.977 -0.3726  0.4494  1.9180
17209TIP3    H273119   4.985   0.737   2.939 -0.0887 -0.8136 -0.5036
17210TIP3   OH273120   5.384   2.021   2.480 -0.5670  0.0819  0.3712
17210TIP3    H173121   5.433   2.077   2.540  1.3787  0.5624 -1.5395
17210TIP3    H273122   5.396   1.933   2.515  1.0796  0.2821  0.4090
17211TIP3   OH273123   2.666   0.752   0.400 -0.2339 -0.5559 -0.8209
17211TIP3    H173124   2.730   0.705   0.454  0.3131  0.6099 -0.4130
17211TIP3    H273125   2.582   0.713   0.422  0.0411 -0.4534  0.5224
17212TIP3   OH273126   3.173   3.670   4.226  0.4711  0.8444 -0.5425
17212TIP3    H173127   3.103   3.613   4.193  1.5706 -2.1323  1.8270
17212TIP3    H273128   3.131   3.723   4.293 -0.1981  1.6069 -1.5395
17213TIP3   OH273129   0.233   0.153  16.493 -0.3790  0.2802  0.2918
17213TIP3    H173130   0.171   0.166  16.421 -0.1648 -0.6375 -0.0753
17213TIP3    H273131   0.184   0.105  16.559  0.1030 -1.0543 -0.2814
17214TIP3   OH273132   2.650   2.496   5.419 -0.1008 -0.0987 -0.0554
17214TIP3    H173133   2.665   2.421   5.477  2.8200  0.3145 -0.0964
17214TIP3    H273134   2.737   2.533   5.406 -1.1882  2.1069 -1.6846
17215TIP3   OH273135   2.547   0.015  17.443  0.0206 -0.1789  0.5391
17215TIP3    H173136   2.605   0.050  17.512  0.1040  0.0476  0.3553
17215TIP3    H273137   2.580  -0.074  17.427  0.2385 -0.0969  0.5246
17216TIP3   OH273138   3.888   6.601   5.943 -0.5371  0.3975 -0.0477
17216TIP3    H173139   3.796   6.599   5.969 -0.6802  0.6164 -0.5290
17216TIP3    H273140   3.891   6.658   5.866  0.1966  1.4499  0.7254
17217TIP3   OH273141   0.136   3.938   2.640  0.4018  0.1120  0.1315
17217TIP3    H173142   0.058   3.979   2.602 -2.1138  0.8707  5.1376
17217TIP3    H273143   0.112   3.846   2.651  1.1365 -0.1309 -0.2193
17218TIP3   OH273144   3.880   4.837  15.825 -0.2003  0.4354 -0.2931
17218TIP3    H173145   3.951   4.841  15.760  0.9528  0.4803  0.9334
17218TIP3    H273146   3.904   4.902  15.891 -0.7032 -0.4853  0.8240
17219TIP3   OH273147   0.421   0.171  15.353 -0.1410  0.0314  0.2585
17219TIP3    H173148   0.426   0.189  15.259 -0.6319 -2.9632 -0.4257
17219TIP3    H273149   0.512   0.165  15.381  0.0214 -0.7228 -0.3999
17220TIP3   OH273150   5.550   0.158   3.372 -0.0681  0.3495 -0.0559
17220TIP3    H173151   5.591   0.149   3.458 -0.5336 -0.9931  0.0444
17220TIP3    H273152   5.596   0.232   3.331 -0.1768  1.3306  1.5212
17221TIP3   OH273153   3.913   6.059   5.260 -0.0520 -0.9755 -0.0322
17221TIP3    H173154   3.944   6.139   5.304 -2.4282 -0.2588  0.5005
17221TIP3    H273155   3.818   6.070   5.256 -0.2344 -2.7530 -2.0535
17222TIP3   OH273156   3.931   1.274   1.572  0.2545 -0.1159  0.0440
17222TIP3    H173157   3.855   1.308   1.525 -0.6288  0.2706  1.6844
17222TIP3    H273158   4.002   1.278   1.508 -0.2534  2.9174 -0.5007
17223TIP3   OH273159   3.454   4.876  13.068  0.1107 -0.2165 -0.0374
17223TIP3    H173160   3.534   4.926  13.051  0.9319 -1.2509  0.6570
17223TIP3    H273161   3.426   4.904  13.155  0.3642 -0.6931  0.1979
17224TIP3   OH273162   4.076   6.368   2.096  0.1299  0.1619 -0.0014
17224TIP3    H173163   4.167   6.395   2.104  0.3311 -0.7284  1.0409
17224TIP3    H273164   4.049   6.350   2.186 -1.1448  0.6111 -0.2765
17225TIP3   OH273165   4.955   1.424   3.629 -0.0289  0.5707 -0.1058
17225TIP3    H173166   4.898   1.353   3.599  0.7275  0.0818 -0.4189
17225TIP3    H273167   4.902   1.470   3.694 -0.9473  0.4088 -0.7032
17226TIP3   OH273168   1.831   4.302   1.796 -0.1452  0.1236 -0.0463
17226TIP3    H173169   1.803   4.217   1.760  0.2326  0.0002 -0.0473
17226TIP3    H273170   1.914   4.320   1.752 -1.3292  1.6135 -1.8085
17227TIP3   OH273171   3.378   2.229   6.197 -0.4172 -0.2090 -0.1675
17227TIP3    H173172   3.388   2.324   6.197  0.1214 -0.2282 -1.8851
17227TIP3    H273173   3.380   2.205   6.289 -1.0721  1.4867  0.3260
17228TIP3   OH273174   3.004   6.318   1.129 -0.2485 -0.0811  0.6610
17228TIP3    H173175   2.931   6.260   1.149  0.1213 -0.1137  2.0609
17228TIP3    H273176   2.976   6.367   1.052 -2.0414  0.4059  1.5559
17229TIP3   OH273177   2.670   2.745  12.906  0.1152  0.5719  0.0248
17229TIP3    H173178   2.727   2.777  12.976 -0.0378  1.2533 -0.1544
17229TIP3    H273179   2.584   2.781  12.926  0.0141  0.5592 -0.3673
17230TIP3   OH273180   1.500   5.071  15.966  0.1665  0.2515 -0.0351
17230TIP3    H173181   1.456   5.083  16.051  0.5216  0.6027  0.1036
17230TIP3    H273182   1.437   5.021  15.913 -0.3629  0.6665  0.1907
17231TIP3   OH273183   2.859   5.253  12.346  0.2795 -0.7181 -0.0418
17231TIP3    H173184   2.891   5.272  12.258 -0.5897  1.1922  0.0045
17231TIP3    H273185   2.809   5.172  12.336  0.3501 -0.6304 -1.2672
17232TIP3   OH273186   4.767   5.419  11.565  0.4403  0.3335 -0.0899
17232TIP3    H173187   4.816   5.337  11.565  1.4858  0.7648  4.2032
17232TIP3    H273188   4.676   5.392  11.577  0.5363 -0.2282 -0.5676
17233TIP3   OH273189   0.131   2.058  11.434 -0.1065  0.0511 -0.0217
17233TIP3    H173190   0.176   1.980  11.466 -0.2047 -0.9935 -2.2385
17233TIP3    H273191   0.190   2.130  11.457  0.9181 -0.8933  0.4081
17234TIP3   OH273192   0.434   3.316  11.845 -0.3574 -0.1508  0.4730
17234TIP3    H173193   0.362   3.362  11.801 -0.8236 -0.1238  1.2598
17234TIP3    H273194   0.417   3.223  11.828  0.7708 -0.0795 -1.4117
17235TIP3   OH273195   3.728   3.649   0.791  0.0703  0.1673 -0.1883
17235TIP3    H173196   3.730   3.738   0.827 -0.3550 -0.3790  1.2163
17235TIP3    H273197   3.636   3.636   0.766  0.1996  0.2395 -0.7058
17236TIP3   OH273198   6.025   5.019  12.450 -0.5275  0.7584  0.4485
17236TIP3    H173199   6.001   4.927  12.436  1.3673  0.0596  1.3338
17236TIP3    H273200   6.088   5.016  12.523  0.5605  2.6203 -0.3448
17237TIP3   OH273201   1.512   4.699   6.089 -0.1135  0.1243  0.0762
17237TIP3    H173202   1.592   4.750   6.106  1.3664 -1.6625 -1.1408
17237TIP3    H273203   1.514   4.629   6.155 -0.6773  0.0679  0.0397
17238TIP3   OH273204   1.865   0.212  16.176 -0.0239  0.5542 -0.9033
17238TIP3    H173205   1.876   0.271  16.250  0.3978  0.1468 -0.6333
17238TIP3    H273206   1.779   0.234  16.140 -1.7161 -1.4013  1.6284
17239TIP3   OH273207   1.201   3.324   4.474  0.0874  0.1450 -0.3867
17239TIP3    H173208   1.155   3.241   4.468  1.0285 -0.4402  0.3563
17239TIP3    H273209   1.138   3.389   4.441 -0.6026 -0.8614 -1.0852
17240TIP3   OH273210   4.092   5.932  12.955 -0.2688  0.3221 -0.1826
17240TIP3    H173211   4.031   5.969  13.019 -0.4395  1.0455 -0.7450
17240TIP3    H273212   4.123   5.851  12.995 -0.4808  0.6890  0.7504
17241TIP3   OH273213   4.325   6.439   0.163  0.5237 -0.0462  0.4247
17241TIP3    H173214   4.388   6.509   0.148  0.1751 -0.1879 -2.1643
17241TIP3    H273215   4.378   6.360   0.172  0.8159 -0.1906 -1.8829
17242TIP3   OH273216   0.326   0.905  12.325  0.0353  0.2853 -0.1812
17242TIP3    H173217   0.276   0.858  12.392  0.7160 -0.1433  0.0349
17242TIP3    H273218   0.397   0.948  12.373 -0.8686  2.0118 -0.2904
17243TIP3   OH273219   5.502   2.122   3.213 -0.1225 -0.2712 -0.0520
17243TIP3    H173220   5.529   2.156   3.298 -0.2973 -1.6075  0.5665
17243TIP3    H273221   5.526   2.191   3.151 -0.0998  0.7767  1.0793
17244TIP3   OH273222   2.115   5.901   2.836 -0.0367 -0.4379  0.4156
17244TIP3    H173223   2.036   5.858   2.869  0.6957 -1.9451  0.3214
17244TIP3    H273224   2.184   5.835   2.846  1.3259  1.0083  0.9701
17245TIP3   OH273225   2.078   3.154   4.321 -0.0704 -0.1561  0.1607
17245TIP3    H173226   2.088   3.248   4.335  0.2901  0.0978 -1.5415
17245TIP3    H273227   2.095   3.114   4.406 -1.8641  1.4083  1.3237
17246TIP3   OH273228   4.650   4.695   2.862 -0.0673  0.5729  0.2662
17246TIP3    H173229   4.644   4.599   2.864 -1.9023  0.6456  1.0062
17246TIP3    H273230   4.575   4.724   2.915  1.5584  2.3964  1.7038
17247TIP3   OH273231   6.553   4.951   2.560 -1.0407 -0.1807 -0.4817
17247TIP3    H173232   6.634   4.999   2.548  0.6513 -2.5163  0.8035
17247TIP3    H273233   6.538   4.906   2.477  0.7701 -2.1763  0.1904
17248TIP3   OH273234   0.071   3.887  11.511  0.2276  0.3209  0.3944
17248TIP3    H173235   0.150   3.915  11.464  0.2995 -0.4790  0.0298
17248TIP3    H273236   0.104   3.846  11.591  0.0908  2.1191  1.4237
17249TIP3   OH273237   4.929   5.445  12.091 -0.0487  0.3100  0.4074
17249TIP3    H173238   4.875   5.423  12.015  0.3725 -3.1791  0.9609
17249TIP3    H273239   4.990   5.510  12.058 -0.6043 -0.2575 -1.9525
17250TIP3   OH273240   2.111   0.711  12.631  0.1627 -0.5299  0.1332
17250TIP3    H173241   2.184   0.651  12.649  0.7270  0.5125  1.4305
17250TIP3    H273242   2.038   0.653  12.610  0.7816 -1.6779  1.0020
17251TIP3   OH273243   0.385   5.555  14.541 -0.0196 -0.7862 -0.2898
17251TIP3    H173244   0.417   5.549  14.631 -0.5268 -0.5506 -0.0911
17251TIP3    H273245   0.291   5.538  14.547 -0.3900  0.9843 -0.5205
17252TIP3   OH273246   0.044   4.176  14.237 -0.4487  0.3111  0.5194
17252TIP3    H173247   0.107   4.246  14.223 -0.4741  0.1863 -0.2747
17252TIP3    H273248  -0.006   4.203  14.314 -0.0250  0.8480  0.6087
17253TIP3   OH273249   1.583   3.311  17.424  0.0846  0.2033  0.2081
17253TIP3    H173250   1.576   3.406  17.435 -0.0123  0.3136 -0.7033
17253TIP3    H273251   1.509   3.288  17.367  0.7748 -0.2469 -0.5311
17254TIP3   OH273252   5.623   5.317  17.088  0.7954 -0.1857 -0.0185
17254TIP3    H173253   5.549   5.366  17.124  0.6224 -0.6885  0.3079
17254TIP3    H273254   5.662   5.378  17.025  0.0884  0.0669 -0.2258
17255TIP3   OH273255   6.379   5.893   5.111 -1.2087  0.2185 -0.3330
17255TIP3    H173256   6.445   5.947   5.155  0.0204  0.4797 -2.4031
17255TIP3    H273257   6.370   5.932   5.024 -2.3204 -1.2832 -0.9267
17256TIP3   OH273258   4.678   1.934   5.761  0.0010  0.2929 -0.5504
17256TIP3    H173259   4.745   1.989   5.719  0.4799  2.0271  2.2324
17256TIP3    H273260   4.612   1.996   5.790 -1.0536 -1.0124 -0.0987
17257TIP3   OH273261   0.235   0.434   2.717 -0.0578  0.2313  0.0557
17257TIP3    H173262   0.230   0.348   2.760 -0.6544 -0.7821 -1.8905
17257TIP3    H273263   0.305   0.480   2.763 -0.7521 -0.6772  2.1583
17258TIP3   OH273264   2.316   3.465  17.333  0.1211 -0.3131 -0.0686
17258TIP3    H173265   2.276   3.378  17.340 -0.4072 -0.2837 -2.0672
17258TIP3    H273266   2.274   3.504  17.257  1.6747  0.9832 -0.3090
17259TIP3   OH273267   6.776   4.761  17.211 -0.3210 -0.0063 -0.0742
17259TIP3    H173268   6.766   4.765  17.116  0.4896  0.5762 -0.1489
17259TIP3    H273269   6.689   4.737  17.243 -0.0429 -2.6138 -1.0852
17260TIP3   OH273270   2.501   4.690  12.835  0.1868  0.0783 -0.1790
17260TIP3    H173271   2.433   4.648  12.782 -1.6971  0.0781  2.0793
17260TIP3    H273272   2.555   4.617  12.866 -2.1694 -0.7156  2.4899
17261TIP3   OH273273   4.254   3.889  15.975 -0.5283 -0.3569 -0.2093
17261TIP3    H173274   4.258   3.925  15.886 -0.5401  0.8767  0.2796
17261TIP3    H273275   4.169   3.845  15.979 -0.9400  0.3946 -0.5095
17262TIP3   OH273276   3.593   0.625  14.112  0.2634 -0.5528  0.0300
17262TIP3    H173277   3.560   0.603  14.200  2.5200  2.3871  1.7869
17262TIP3    H273278   3.544   0.703  14.087 -0.4645 -1.4546 -1.4712
17263TIP3   OH273279   2.240   5.317  16.646  0.5111  0.2155  0.3773
17263TIP3    H173280   2.301   5.368  16.698  0.3468  0.5482  0.2433
17263TIP3    H273281   2.269   5.226  16.657 -0.0444  0.1783  1.7750
17264TIP3   OH273282   1.220   6.770  15.501  0.1787  0.1881  0.2599
17264TIP3    H173283   1.294   6.740  15.448  0.5440 -0.3600  1.0578
17264TIP3    H273284   1.152   6.705  15.485 -0.9623  1.8324 -2.1729
17265TIP3   OH273285   6.112   5.898   0.310 -0.3085  0.2519  0.2284
17265TIP3    H173286   6.105   5.953   0.232  0.4661  0.9903  0.6552
17265TIP3    H273287   6.123   5.810   0.277 -1.6164  0.3256 -0.4768
17266TIP3   OH273288   0.028   6.106   2.255  0.8260 -0.4838 -0.5132
17266TIP3    H173289  -0.054   6.151   2.233  0.4348 -1.3748 -0.9154
17266TIP3    H273290   0.062   6.154   2.330 -0.0365 -0.0641 -0.3786
17267TIP3   OH273291   2.066   1.687   3.668 -0.4297  0.4592 -0.1283
17267TIP3    H173292   2.098   1.763   3.619 -1.3921 -0.2791 -1.9995
17267TIP3    H273293   2.030   1.723   3.748  0.4249  1.8174 -0.3302
17268TIP3   OH273294   2.698   4.392   0.771 -0.2946 -0.5592  0.2079
17268TIP3    H173295   2.661   4.398   0.859 -1.0428  1.2365 -0.1778
17268TIP3    H273296   2.678   4.477   0.731 -0.2541 -1.4452 -1.8071
17269TIP3   OH273297   2.583   0.843   2.067  0.5721 -0.3128 -0.0391
17269TIP3    H173298   2.490   0.838   2.046 -0.7660  1.9640  4.1218
17269TIP3    H273299   2.606   0.755   2.095 -0.9822 -0.4467  0.9222
17270TIP3   OH273300   2.300   6.219  14.775 -0.4580 -0.2243  0.3903
17270TIP3    H173301   2.280   6.270  14.853  0.2273 -1.1003  1.1508
17270TIP3    H273302   2.216   6.214  14.728 -0.9336  0.0950  1.1831
17271TIP3   OH273303   6.529   6.074  15.594 -0.3298  0.6556 -0.1163
17271TIP3    H173304   6.599   6.108  15.538  0.4074 -0.6454 -0.0251
17271TIP3    H273305   6.460   6.048  15.533  0.8289 -1.6011 -0.5757
17272TIP3   OH273306   5.758   3.785   1.336 -0.6310  0.8974 -0.0086
17272TIP3    H173307   5.842   3.774   1.292 -0.1733  1.9045  0.5601
17272TIP3    H273308   5.765   3.732   1.416 -1.8529 -1.7806 -1.5532
17273TIP3   OH273309   5.326   3.930  17.187 -0.9881  0.1034  0.1208
17273TIP3    H173310   5.320   3.957  17.278 -0.6935  0.5281  0.0221
17273TIP3    H273311   5.239   3.945  17.151 -0.7613  1.2016  0.0001
17274TIP3   OH273312   3.969   5.387  17.120 -0.1598 -0.1600  0.0330
17274TIP3    H173313   3.907   5.398  17.193 -1.5348 -1.2328 -0.8998
17274TIP3    H273314   3.922   5.330  17.059  1.2540  0.1196 -1.3522
17275TIP3   OH273315   1.770   4.280  16.480 -0.3961  0.0964  0.5164
17275TIP3    H173316   1.855   4.314  16.453 -0.2300  1.5476  2.6701
17275TIP3    H273317   1.715   4.287  16.401  0.7767  1.5220 -0.2255
17276TIP3   OH273318   3.451   6.616  10.441 -0.3724  0.4327  0.7396
17276TIP3    H173319   3.370   6.657  10.410 -0.6924 -0.7386 -0.0653
17276TIP3    H273320   3.518   6.683  10.430 -1.3088  1.6172  1.9467
17277TIP3   OH273321   0.737   3.733  10.327 -0.2944  0.3713  0.0923
17277TIP3    H173322   0.824   3.744  10.366 -0.4437  0.1966  0.4715
17277TIP3    H273323   0.683   3.698  10.398 -0.4154 -0.5383 -0.4286
17278TIP3   OH273324   0.669   4.899   2.881 -0.4786  0.1797 -0.1160
17278TIP3    H173325   0.609   4.855   2.941 -1.3314  3.1946  1.4562
17278TIP3    H273326   0.672   4.990   2.912  0.4673  1.5201 -3.5855
17279TIP3   OH273327   4.565   3.484  15.494 -0.1308  0.3811  0.2710
17279TIP3    H173328   4.486   3.468  15.443 -0.5274  2.0871  0.2996
17279TIP3    H273329   4.631   3.508  15.429 -0.7960  3.1633  0.5044
17280TIP3   OH273330   0.998   5.846   4.001  0.0401 -0.0352 -0.9353
17280TIP3    H173331   1.050   5.839   3.921  1.1291  3.2394 -0.6559
17280TIP3    H273332   0.907   5.844   3.971  0.3769 -0.9543 -1.9669
17281TIP3   OH273333   6.605   5.041   2.252 -0.3091  0.1569 -0.2683
17281TIP3    H173334   6.554   4.986   2.192  0.6412 -0.5971 -0.4098
17281TIP3    H273335   6.632   4.982   2.322  1.4411  0.2146 -0.8561
17282TIP3   OH273336   6.565   1.392  17.399 -0.9564  0.3901 -0.1241
17282TIP3    H173337   6.505   1.436  17.459 -1.6290  0.5868 -0.9230
17282TIP3    H273338   6.558   1.299  17.422  0.2103  0.6230  1.3379
17283TIP3   OH273339   1.210   2.191   4.712  0.6183 -0.1953  0.2865
17283TIP3    H173340   1.243   2.102   4.730  1.2818 -0.0348 -0.0932
17283TIP3    H273341   1.158   2.181   4.632  4.0949  0.4128 -2.3096
17284TIP3   OH273342   6.704   1.018   1.744  0.2165 -0.5090  0.2878
17284TIP3    H173343   6.616   0.982   1.732  0.4250 -1.3387  1.1379
17284TIP3    H273344   6.756   0.979   1.674 -0.2192  0.4747 -0.6060
17285TIP3   OH273345   5.499   5.638  17.404  0.0178  0.0365 -0.6178
17285TIP3    H173346   5.500   5.641  17.309 -1.6247 -2.3423 -0.7933
17285TIP3    H273347   5.557   5.565  17.426  1.1622  1.1707  0.3158
17286TIP3   OH273348   4.244   5.900  17.397  0.1639  0.2925 -0.5779
17286TIP3    H173349   4.290   5.826  17.436  0.1825 -0.1527 -1.4022
17286TIP3    H273350   4.161   5.863  17.366 -0.0303  0.7222 -0.5791
17287TIP3   OH273351   6.752   2.717  14.784 -0.1361  0.1681  0.1729
17287TIP3    H173352   6.724   2.628  14.761  1.9778 -0.2222 -1.1800
17287TIP3    H273353   6.671   2.766  14.794 -1.3456 -1.0541 -2.7046
17288TIP3   OH273354   0.620   3.980  13.063 -0.2594  0.1620 -0.3911
17288TIP3    H173355   0.553   3.912  13.068  0.8441 -0.8879  0.6213
17288TIP3    H273356   0.702   3.936  13.086  0.6080  1.6672 -0.4347
17289TIP3   OH273357   3.789   1.019  12.337 -0.2054 -0.1413 -0.0677
17289TIP3    H173358   3.726   0.981  12.399 -0.2935  1.7124  1.0586
17289TIP3    H273359   3.824   0.944  12.290 -3.5509 -1.2476 -1.0759
17290TIP3   OH273360   5.114   1.548   0.066  0.6506  0.6950 -0.2960
17290TIP3    H173361   5.141   1.602  -0.008  1.0012  2.0479  0.7863
17290TIP3    H273362   5.085   1.466   0.026 -2.7717  2.6365 -2.3222
17291TIP3   OH273363   1.645   2.713  13.953 -0.0328 -0.0449 -0.0020
17291TIP3    H173364   1.640   2.797  13.998 -0.5940 -0.3587  0.5275
17291TIP3    H273365   1.711   2.663  14.002  0.4755  0.1623 -0.4591
17292TIP3   OH273366   5.346   4.843  16.172  0.3572 -0.5464 -0.8100
17292TIP3    H173367   5.304   4.798  16.099 -1.0026 -0.8542  0.1336
17292TIP3    H273368   5.416   4.784  16.200 -0.3017 -1.2842 -0.6946
17293TIP3   OH273369   5.124   0.134   1.359 -0.0999  0.3723 -0.2119
17293TIP3    H173370   5.096   0.181   1.280  1.8792 -0.4914 -1.5143
17293TIP3    H273371   5.217   0.115   1.344 -0.1581 -1.5745  1.4501
17294TIP3   OH273372   6.058   2.830   1.011 -0.5323  0.1186  0.1913
17294TIP3    H173373   6.108   2.894   0.962  0.3117 -2.0287 -1.9445
17294TIP3    H273374   6.114   2.807   1.085  1.6978 -2.0145 -1.9791
17295TIP3   OH273375   3.118   2.982  13.966  0.1857  0.5727  0.8986
17295TIP3    H173376   3.150   3.072  13.965  0.9742  0.3471  2.5711
17295TIP3    H273377   3.130   2.953  14.057 -1.1945 -0.8131  0.6862
17296TIP3   OH273378   3.242   1.096   1.327  0.7495 -0.6208 -0.2991
17296TIP3    H173379   3.147   1.082   1.336  1.0548 -2.8789  0.1588
17296TIP3    H273380   3.270   1.029   1.264  2.3649 -1.7059  1.4612
17297TIP3   OH273381   4.250   2.224   2.497  0.7198 -0.4157 -0.5176
17297TIP3    H173382   4.241   2.288   2.427 -0.9927 -0.1636 -0.1216
17297TIP3    H273383   4.308   2.267   2.561  0.5539  0.2531 -0.8035
17298TIP3   OH273384   4.848   5.702  15.510 -0.4990  0.2027 -0.4331
17298TIP3    H173385   4.756   5.677  15.508 -0.1651 -1.0678 -1.0086
17298TIP3    H273386   4.868   5.724  15.419  0.5019 -2.5200 -0.9615
17299TIP3   OH273387   1.460   4.527   1.172 -0.4191 -0.0200 -0.2867
17299TIP3    H173388   1.403   4.453   1.149  0.5574 -0.5875 -0.9654
17299TIP3    H273389   1.400   4.602   1.178 -1.3100 -0.6979 -0.4366
17300TIP3   OH273390   4.095   5.329   1.923  0.1354 -0.0863 -0.0642
17300TIP3    H173391   4.120   5.412   1.963  1.7272 -0.2295 -0.6975
17300TIP3    H273392   4.141   5.263   1.975 -0.2640 -0.5064 -0.2317
17301TIP3   OH273393   0.887   1.881  15.386  0.1229  0.0093 -0.0990
17301TIP3    H173394   0.803   1.926  15.386 -0.7971 -1.6271  0.0384
17301TIP3    H273395   0.952   1.951  15.399 -1.1574  1.3642 -0.6834
17302TIP3   OH273396   0.951   5.015   2.054 -0.6187 -0.1166  0.0391
17302TIP3    H173397   0.868   5.019   2.007 -0.4668  1.5310 -0.1507
17302TIP3    H273398   0.930   5.047   2.142  0.1625  2.3585 -0.6059
17303TIP3   OH273399   6.780   4.332   2.183  0.2442 -0.0423 -0.0594
17303TIP3    H173400   6.753   4.263   2.122  1.9425 -2.1281  1.3952
17303TIP3    H273401   6.836   4.389   2.131 -0.3037 -0.3573 -1.0297
17304TIP3   OH273402   1.110   2.083  15.400 -0.0102 -0.1421 -1.1546
17304TIP3    H173403   1.172   2.129  15.456  0.6786 -2.0900 -0.2383
17304TIP3    H273404   1.162   2.017  15.355 -0.9258  0.0931 -2.6195
17305TIP3   OH273405   3.096   1.075  15.080  0.1257  0.2846  0.2185
17305TIP3    H173406   3.186   1.043  15.073  0.1584  0.5009 -0.5378
17305TIP3    H273407   3.071   1.057  15.170  0.3938 -1.1759  0.0298
17306TIP3   OH273408   6.436   0.303   5.397  0.0726 -0.1292 -0.0660
17306TIP3    H173409   6.381   0.256   5.460  0.6863 -1.7960 -0.7111
17306TIP3    H273410   6.380   0.313   5.319 -0.3398  1.0139  0.3524
17307TIP3   OH273411   1.761   5.241  12.933 -0.8630 -0.4067 -0.3000
17307TIP3    H173412   1.854   5.244  12.954 -1.6397 -0.1049  3.9150
17307TIP3    H273413   1.755   5.181  12.858  2.6662 -0.4391 -0.6879
17308TIP3   OH273414   3.882   0.192   5.322  0.4078  0.1895 -0.4503
17308TIP3    H173415   3.883   0.278   5.363 -0.1069 -0.6701  1.4691
17308TIP3    H273416   3.963   0.189   5.270  0.3795  1.8427 -0.6413
17309TIP3   OH273417   0.629   5.066   0.060  0.2325  0.0423  0.4838
17309TIP3    H173418   0.684   5.094   0.134  1.4262  0.4493 -0.5206
17309TIP3    H273419   0.671   4.987   0.028 -0.9771 -0.8193  0.9596
17310TIP3   OH273420   2.843   3.397   6.758  0.0660 -0.0983  0.7049
17310TIP3    H173421   2.846   3.484   6.796 -0.5031  0.2401 -0.0005
17310TIP3    H273422   2.805   3.341   6.826 -3.2328  0.9393 -0.0902
17311TIP3   OH273423   0.980   3.606   3.266 -0.0182  0.0491 -0.0671
17311TIP3    H173424   0.962   3.697   3.243 -2.0647 -0.5400 -0.9864
17311TIP3    H273425   1.045   3.578   3.201  0.3974  0.7472  0.0331
17312TIP3   OH273426   5.587   5.970   3.588  0.1090 -0.1695 -0.1323
17312TIP3    H173427   5.558   5.885   3.555 -0.4477 -0.4320  0.9789
17312TIP3    H273428   5.513   6.029   3.573  0.1513 -0.0961 -0.0591
17313TIP3   OH273429   6.262   1.382  17.327 -0.2446  0.3238  0.9283
17313TIP3    H173430   6.238   1.425  17.244  1.8690  0.2123  0.1886
17313TIP3    H273431   6.339   1.431  17.357 -1.1313  0.5431  3.0270
17314TIP3   OH273432   5.752   6.642   1.274  0.0792  0.0377 -0.2272
17314TIP3    H173433   5.677   6.683   1.231  0.7116 -0.6046 -2.0371
17314TIP3    H273434   5.726   6.551   1.286  0.9526 -0.5170 -2.0368
17315TIP3   OH273435   5.018   3.898   1.039 -0.3781 -0.6233  0.2596
17315TIP3    H173436   4.964   3.933   0.968  0.5034 -1.4446 -0.8594
17315TIP3    H273437   5.107   3.926   1.018  0.0947 -2.0350  0.2699
17316TIP3   OH273438   6.456   2.730   4.873 -0.0623  0.1044  0.6210
17316TIP3    H173439   6.538   2.694   4.908 -0.1997  0.6773  1.5417
17316TIP3    H273440   6.483   2.808   4.825  0.3313 -1.4809 -1.9942
17317TIP3   OH273441   5.167   5.245  13.640 -0.4131  0.0777 -0.5977
17317TIP3    H173442   5.242   5.286  13.597 -1.2780 -0.3246 -2.5771
17317TIP3    H273443   5.203   5.211  13.722  1.5944 -0.1450 -1.5009
17318TIP3   OH273444   5.003   2.577   6.184  0.0048  0.1035  0.6500
17318TIP3    H173445   5.055   2.590   6.105  0.2471  0.6564  0.8911
17318TIP3    H273446   5.065   2.590   6.256 -0.9194  3.3142  1.0276
17319TIP3   OH273447   1.963   0.073   5.236  0.4132  0.2996 -0.4128
17319TIP3    H173448   1.944   0.161   5.267 -1.2275 -0.4395  0.8320
17319TIP3    H273449   2.003   0.085   5.150  0.2476  2.2394 -0.2442
17320TIP3   OH273450   3.367   4.749   1.026 -0.0537  0.0280  0.0102
17320TIP3    H173451   3.272   4.740   1.034 -0.1094  1.3695  1.2894
17320TIP3    H273452   3.402   4.666   1.057 -0.7854 -0.0763  0.5721
17321TIP3   OH273453   6.746   0.992  14.841  0.7393 -0.4100 -0.0053
17321TIP3    H173454   6.731   1.027  14.929 -0.6527 -1.2540  0.1193
17321TIP3    H273455   6.736   1.068  14.783 -2.4405 -0.5074  0.2449
17322TIP3   OH273456   4.428   5.809  13.180 -0.2956  0.1552  0.0022
17322TIP3    H173457   4.420   5.792  13.086  0.3277  0.9505 -0.2050
17322TIP3    H273458   4.338   5.807  13.212 -0.6361  1.0895 -0.8345
17323TIP3   OH273459   6.438   3.985  16.641 -0.4839 -0.0852 -0.0884
17323TIP3    H173460   6.444   4.057  16.578  0.7602 -0.9308 -0.9714
17323TIP3    H273461   6.414   4.028  16.723 -1.6020  1.1019 -0.9991
17324TIP3   OH273462   0.863   2.694  14.403 -0.6289 -0.1342 -0.0461
17324TIP3    H173463   0.943   2.652  14.433  0.3059  1.7725  0.3082
17324TIP3    H273464   0.891   2.752  14.333 -1.9649 -0.5689 -0.9825
17325TIP3   OH273465   2.957   1.297  15.332 -0.1365  0.0870  0.4185
17325TIP3    H173466   2.907   1.260  15.405  0.2225 -0.3744  0.4358
17325TIP3    H273467   2.904   1.279  15.255  0.2043 -0.7940  0.3824
17326TIP3   OH273468   6.146   6.631  16.818  0.1155 -0.3594 -0.3441
17326TIP3    H173469   6.123   6.587  16.736 -1.2392 -0.1036 -0.1097
17326TIP3    H273470   6.068   6.679  16.843  0.8184  0.3170  0.6306
17327TIP3   OH273471   2.145   4.594   0.422 -0.0149  0.0281  0.0152
17327TIP3    H173472   2.175   4.508   0.451  0.1661  0.7108  2.0194
17327TIP3    H273473   2.050   4.586   0.417 -0.1377  0.1142  1.7521
17328TIP3   OH273474   5.099   3.654  16.710 -0.1189 -0.3277 -0.1258
17328TIP3    H173475   5.173   3.605  16.746 -0.4432  0.0233  1.0637
17328TIP3    H273476   5.129   3.745  16.708  0.5846 -0.5422 -2.5919
17329TIP3   OH273477   1.758   6.258   1.902 -0.0300  0.3564 -1.2182
17329TIP3    H173478   1.717   6.295   1.980  0.0647 -1.7593 -0.0949
17329TIP3    H273479   1.685   6.239   1.843 -0.3680 -0.5046 -0.5270
17330TIP3   OH273480   6.292   5.071  14.157  0.3752  0.2373 -1.0349
17330TIP3    H173481   6.368   5.125  14.181  0.0394  0.5047 -0.5420
17330TIP3    H273482   6.303   5.054  14.064  0.9493  0.4235 -1.0050
17331TIP3   OH273483   2.618   0.392  14.333  0.3974  0.8737  0.3028
17331TIP3    H173484   2.613   0.296  14.325  0.0468  0.8328  0.9837
17331TIP3    H273485   2.545   0.415  14.390  1.1409  1.4470  1.0372
17332TIP3   OH273486   2.782   0.595  12.065 -0.4746 -0.3710 -0.0877
17332TIP3    H173487   2.810   0.539  11.992  0.3209 -1.3231  0.9089
17332TIP3    H273488   2.689   0.610  12.050 -0.1040  0.4283 -1.9171
17333TIP3   OH273489   4.054   3.517   2.132  0.2906 -0.0694  0.3084
17333TIP3    H173490   4.097   3.573   2.196 -0.6068 -0.2025  1.0541
17333TIP3    H273491   3.985   3.472   2.182 -0.2276 -0.4036 -0.6788
17334TIP3   OH273492   6.386   3.023  11.812  0.2452 -0.1835  0.6596
17334TIP3    H173493   6.388   2.928  11.801 -0.9907 -0.1179 -0.3137
17334TIP3    H273494   6.386   3.036  11.907 -0.0615 -1.1725  0.8031
17335TIP3   OH273495   6.105   2.734  10.578 -1.2440  0.2236  0.1935
17335TIP3    H173496   6.148   2.750  10.661 -0.2564  1.1953 -0.4710
17335TIP3    H273497   6.095   2.639  10.573  0.0582  0.0464  0.7561
17336TIP3   OH273498   4.414   6.046   6.388 -0.6473  0.2148  0.0432
17336TIP3    H173499   4.477   6.095   6.440  0.3182 -0.4748 -0.4372
17336TIP3    H273500   4.400   6.100   6.310 -1.4197  0.8321  0.5976
17337TIP3   OH273501   5.170   0.539  17.028  0.2974  0.5702 -0.1766
17337TIP3    H173502   5.186   0.632  17.010  1.7800  0.4579  0.4244
17337TIP3    H273503   5.165   0.533  17.123  0.4846 -0.0056 -0.1987
17338TIP3   OH273504   6.470   0.227  13.794  0.0333 -0.0273 -0.2238
17338TIP3    H173505   6.516   0.170  13.856 -0.7728  1.1556  1.5264
17338TIP3    H273506   6.378   0.219  13.816 -0.1472  1.5585 -0.2497
17339TIP3   OH273507   3.598   5.571   6.703  0.2094  0.2383  0.3137
17339TIP3    H173508   3.626   5.627   6.631 -1.3884  0.1344 -0.4286
17339TIP3    H273509   3.662   5.499   6.702 -0.4287 -0.3910 -1.8061
17340TIP3   OH273510   5.220   6.249  11.487  0.6376 -0.0416  0.0232
17340TIP3    H173511   5.207   6.262  11.393 -1.6974 -0.6528  0.1856
17340TIP3    H273512   5.266   6.165  11.494  0.7848 -0.0131 -0.5769
17341TIP3   OH273513   4.533   0.528   4.258 -0.3523 -0.0688  0.4484
17341TIP3    H173514   4.553   0.434   4.253 -1.4963 -0.2450 -2.1371
17341TIP3    H273515   4.513   0.543   4.350  0.0761 -2.2994  0.9695
17342TIP3   OH273516   4.733   1.916  13.582 -0.2910 -0.7039 -0.5800
17342TIP3    H173517   4.752   1.825  13.604  1.1075 -0.9000 -2.3420
17342TIP3    H273518   4.669   1.910  13.510  1.4625 -0.4360 -2.2353
17343TIP3   OH273519   6.514   3.982   4.484 -0.1683 -0.1708  0.3586
17343TIP3    H173520   6.553   4.017   4.564  0.9584  0.6687 -0.5156
17343TIP3    H273521   6.496   4.059   4.430 -0.1782 -0.7596 -0.5145
17344TIP3   OH273522   3.408   5.599   1.200  0.1838 -0.0475  0.5987
17344TIP3    H173523   3.417   5.509   1.230 -0.1750 -0.9298 -1.7686
17344TIP3    H273524   3.313   5.612   1.193  0.2474  0.3639  0.4713
17345TIP3   OH273525   0.837   1.448  15.203  0.6595  0.1393 -0.2867
17345TIP3    H173526   0.757   1.410  15.167  0.6039  0.0716 -0.0906
17345TIP3    H273527   0.853   1.400  15.284  2.0522 -1.2806 -1.3286
17346TIP3   OH273528   6.761   4.179  17.121 -0.4308 -0.0432 -0.1468
17346TIP3    H173529   6.823   4.213  17.056  0.2669  1.3237  1.1902
17346TIP3    H273530   6.804   4.102  17.157  0.4201  0.7637  0.6060
17347TIP3   OH273531   4.988   0.792   2.148  0.8026 -0.1002  0.1480
17347TIP3    H173532   4.968   0.808   2.056 -0.4125 -0.0012  0.4181
17347TIP3    H273533   4.986   0.697   2.157 -0.3746 -0.0694  0.3363
17348TIP3   OH273534   3.241   5.727   2.252  0.5077 -0.1078  0.4191
17348TIP3    H173535   3.218   5.725   2.344 -0.7651  0.7377  0.1439
17348TIP3    H273536   3.181   5.665   2.210 -0.0192  0.6934 -0.0441
17349TIP3   OH273537   5.281   6.222   5.066  0.1071  0.5218  0.2052
17349TIP3    H173538   5.370   6.254   5.082  0.0010  0.8505  0.1369
17349TIP3    H273539   5.233   6.242   5.146 -0.0922  1.0071 -0.0312
17350TIP3   OH273540   1.621   5.851  14.151 -0.2428 -0.0367 -0.2397
17350TIP3    H173541   1.690   5.788  14.172  0.3011  0.8830  0.8248
17350TIP3    H273542   1.540   5.803  14.168  0.1468 -0.6594 -0.0773
17351TIP3   OH273543   3.242   0.173   5.917  0.5240  0.5319  0.4362
17351TIP3    H173544   3.212   0.216   5.837 -0.5329  0.4059  0.7507
17351TIP3    H273545   3.313   0.229   5.950 -0.4612  1.7495  0.5452
17352TIP3   OH273546   1.064   6.193   1.925 -0.2334  0.2955 -0.4416
17352TIP3    H173547   1.065   6.153   1.837  0.5047  0.7735 -0.6635
17352TIP3    H273548   1.015   6.274   1.914 -1.5320 -0.3992 -0.0405
17353TIP3   OH273549   0.406   0.859   1.246  0.0634 -0.3778  0.3823
17353TIP3    H173550   0.472   0.789   1.243  0.4446 -0.0038 -0.0701
17353TIP3    H273551   0.345   0.831   1.315  1.4455 -0.0568  1.7877
17354TIP3   OH273552   3.454   6.361   5.361 -0.6733  0.3774  0.2242
17354TIP3    H173553   3.542   6.399   5.356 -0.6338  0.1676 -0.9800
17354TIP3    H273554   3.462   6.290   5.424  0.4707 -0.7374 -1.1015
17355TIP3   OH273555   0.096   4.531   6.569  0.0475 -0.0160 -1.0984
17355TIP3    H173556   0.158   4.467   6.603 -0.9356 -0.2417  0.3565
17355TIP3    H273557   0.052   4.567   6.646 -0.0370  1.8082 -1.9436
17356TIP3   OH273558   1.116   3.728  13.058 -0.1999 -0.0168  0.1200
17356TIP3    H173559   1.051   3.680  13.109  0.0888  0.1159  0.6304
17356TIP3    H273560   1.065   3.795  13.012 -0.6510 -1.0326 -0.8946
17357TIP3   OH273561   1.630   3.483   0.667 -0.9446 -0.4805  0.2296
17357TIP3    H173562   1.593   3.514   0.750 -2.2238 -0.4673 -0.3321
17357TIP3    H273563   1.559   3.491   0.604  0.0568 -0.3536 -0.9148
17358TIP3   OH273564   1.290   0.271  12.606  0.4396 -0.0797 -0.3048
17358TIP3    H173565   1.263   0.259  12.697  1.4541 -0.2544 -0.0091
17358TIP3    H273566   1.340   0.192  12.585 -0.1756 -0.2471 -1.1680
17359TIP3   OH273567   5.759   1.446   4.875  0.6027  0.4882  0.1869
17359TIP3    H173568   5.729   1.414   4.790 -0.5212  2.4771 -0.2300
17359TIP3    H273569   5.681   1.486   4.914  1.1438 -0.1785  2.0869
17360TIP3   OH273570   3.469   6.658   0.122 -0.3562 -0.0285 -0.2948
17360TIP3    H173571   3.420   6.682   0.201 -0.3825  1.8550 -0.8344
17360TIP3    H273572   3.561   6.671   0.146 -0.4050  1.4473 -0.8145
17361TIP3   OH273573   5.276   5.073  14.291  0.5350 -0.2150  0.0422
17361TIP3    H173574   5.304   5.069  14.199  1.0731  0.0703  0.1911
17361TIP3    H273575   5.191   5.117  14.288 -0.2527 -1.6938 -0.4847
17362TIP3   OH273576   5.535   5.100   0.171 -0.6141 -0.3584 -0.3757
17362TIP3    H173577   5.628   5.100   0.145 -0.5074 -0.3410  0.0113
17362TIP3    H273578   5.507   5.009   0.159 -1.0580 -0.0266 -2.3015
17363TIP3   OH273579   4.818   2.838   3.078 -0.0962 -0.7582 -0.6786
17363TIP3    H173580   4.875   2.848   3.002  1.0651  2.1006  0.4130
17363TIP3    H273581   4.866   2.780   3.137  0.6883 -0.1273 -0.6798
17364TIP3   OH273582   2.174   2.162   5.053  0.0654 -0.0649 -0.4122
17364TIP3    H173583   2.243   2.127   5.110 -0.7109 -1.0552 -0.0620
17364TIP3    H273584   2.157   2.250   5.088  0.7867 -0.0080 -0.1857
17365TIP3   OH273585   5.613   3.428  13.796  0.2966 -0.1810  0.1308
17365TIP3    H173586   5.674   3.450  13.866  0.0410  1.3730 -0.0947
17365TIP3    H273587   5.527   3.455  13.828  0.3083  1.5738 -1.1239
17366TIP3   OH273588   2.629   6.526   5.804  0.0648 -0.1195  0.2925
17366TIP3    H173589   2.640   6.480   5.888  1.1981 -0.8122 -0.2011
17366TIP3    H273590   2.718   6.536   5.771 -0.4473 -1.4774 -1.6684
17367TIP3   OH273591   1.464   6.165  12.957  0.1730 -0.0475  0.2932
17367TIP3    H173592   1.387   6.128  12.999  1.0029 -0.2783  1.6900
17367TIP3    H273593   1.472   6.119  12.874 -1.5238  0.4183 -0.1569
17368TIP3   OH273594   2.158   3.732   2.170 -0.2141  0.1642  0.0101
17368TIP3    H173595   2.224   3.668   2.146  0.8391  1.4533 -0.6882
17368TIP3    H273596   2.075   3.688   2.154  0.4670 -1.0656 -0.2809
17369TIP3   OH273597   2.457   4.919   4.300  0.3888 -0.4864  0.2158
17369TIP3    H173598   2.544   4.956   4.308  0.5351 -0.7659 -0.0708
17369TIP3    H273599   2.437   4.925   4.207 -0.0196 -0.1502  0.3217
17370TIP3   OH273600   0.721   3.134  13.047 -0.2389 -0.0997  0.3967
17370TIP3    H173601   0.691   3.047  13.020  1.1611 -0.5010  0.0650
17370TIP3    H273602   0.701   3.191  12.973  2.7463 -1.0146 -1.2833
17371TIP3   OH273603   5.540   4.657   2.488  0.0825 -0.4130  0.0075
17371TIP3    H173604   5.534   4.721   2.416  0.8646 -1.0495 -0.6426
17371TIP3    H273605   5.450   4.648   2.519 -0.2770 -0.1483 -0.9135
17372TIP3   OH273606   4.749   3.866   6.055 -0.2251 -0.0872  0.2845
17372TIP3    H173607   4.826   3.809   6.058 -0.6713 -0.7859 -0.8990
17372TIP3    H273608   4.784   3.954   6.069  0.8113 -0.3728 -0.4176
17373TIP3   OH273609   3.100   1.907  13.994 -0.0341 -0.5591 -0.2514
17373TIP3    H173610   3.097   1.985  13.938  0.6306  0.6685  1.3555
17373TIP3    H273611   3.193   1.895  14.012 -0.3011 -0.2008  1.5227
17374TIP3   OH273612   5.612   6.046  12.770  0.3116 -0.2116  0.0240
17374TIP3    H173613   5.696   6.018  12.806 -0.1783  0.1547  1.5188
17374TIP3    H273614   5.566   5.964  12.751  0.8054 -0.4110 -0.3618
17375TIP3   OH273615   3.161   4.904   4.426 -0.4390  0.0225  0.1892
17375TIP3    H173616   3.117   4.846   4.489 -1.3963 -0.1866 -0.6472
17375TIP3    H273617   3.218   4.846   4.376 -0.3391  0.0386  0.2850
17376TIP3   OH273618   3.061   1.358   5.204 -0.0410  0.0340  0.0220
17376TIP3    H173619   3.070   1.332   5.296  0.9410  0.0507 -0.0614
17376TIP3    H273620   3.141   1.407   5.185 -0.0648 -0.2917 -0.9527
17377TIP3   OH273621   0.022   3.871  12.157 -0.2321  0.2966  0.2008
17377TIP3    H173622   0.105   3.899  12.195  0.4745 -1.8989  0.3557
17377TIP3    H273623  -0.038   3.943  12.177  1.1603  1.1095  1.6936
17378TIP3   OH273624   5.550   1.127  16.306 -0.4362 -0.2045  0.2229
17378TIP3    H173625   5.516   1.209  16.271 -0.1189 -0.3295 -0.4040
17378TIP3    H273626   5.645   1.135  16.297 -0.4378 -0.9981 -0.6869
17379TIP3   OH273627   5.057   1.244   4.727  0.3610 -0.3313  0.5039
17379TIP3    H173628   5.135   1.276   4.773 -0.4380  1.7325  0.5129
17379TIP3    H273629   5.044   1.306   4.655 -0.3648 -1.5799 -0.4945
17380TIP3   OH273630   4.081   2.206  11.762  0.2567  0.5340  0.1019
17380TIP3    H173631   4.113   2.215  11.673  3.0317  0.0229  0.9537
17380TIP3    H273632   4.067   2.296  11.792  1.5883  0.8324 -0.1212
17381TIP3   OH273633   5.308   1.190  16.987  0.1204 -1.0507 -0.4264
17381TIP3    H173634   5.363   1.143  16.924 -1.5243 -1.7069 -1.4349
17381TIP3    H273635   5.271   1.121  17.043 -1.2283 -0.8592 -1.0399
17382TIP3   OH273636   6.080   3.016  15.401 -0.0329 -0.0001  0.1275
17382TIP3    H173637   6.053   3.001  15.492 -0.7440 -1.4581 -0.2899
17382TIP3    H273638   6.157   2.960  15.390 -0.0265  0.0742 -0.2002
17383TIP3   OH273639   2.763   6.238   2.322 -0.0798 -0.2049  0.2753
17383TIP3    H173640   2.793   6.159   2.367  0.2248 -0.7212 -0.7945
17383TIP3    H273641   2.842   6.292   2.315  0.3726 -1.0375 -1.4654
17384TIP3   OH273642   2.089   2.765  17.402  0.1509  0.5559 -0.1857
17384TIP3    H173643   2.069   2.699  17.468 -0.5991 -0.1959 -1.1397
17384TIP3    H273644   2.011   2.821  17.400  0.3191  0.7944 -0.1909
17385TIP3   OH273645   1.576   5.193   3.093  0.1488  0.0881  0.5549
17385TIP3    H173646   1.599   5.144   3.172  3.4758  0.8257  0.1845
17385TIP3    H273647   1.584   5.128   3.023 -1.3341 -0.2021  0.6259
17386TIP3   OH273648   4.260   4.328  12.147  0.0367  0.4094  0.4221
17386TIP3    H173649   4.236   4.349  12.238 -3.0649  0.9971 -0.3848
17386TIP3    H273650   4.330   4.264  12.154 -0.6908 -0.2047  3.2628
17387TIP3   OH273651   4.209   4.129   1.262 -0.2032 -0.0962 -0.3611
17387TIP3    H173652   4.123   4.143   1.303 -0.6830 -4.2645  0.4887
17387TIP3    H273653   4.193   4.060   1.197  2.4733 -0.7634 -0.4057
17388TIP3   OH273654   4.909   2.778  15.940 -0.1137 -0.3080  0.1976
17388TIP3    H173655   4.920   2.728  15.859 -0.2293 -0.4656  0.2779
17388TIP3    H273656   4.849   2.849  15.916 -2.2994 -1.8425  0.7476
17389TIP3   OH273657   0.507   1.574   5.087  0.1904 -0.2880 -0.2293
17389TIP3    H173658   0.494   1.499   5.030 -0.9950 -0.2912  0.0134
17389TIP3    H273659   0.601   1.594   5.081  0.1272 -0.3851 -2.0435
17390TIP3   OH273660   6.247   4.518  14.744 -0.0328 -0.0924 -0.4113
17390TIP3    H173661   6.256   4.601  14.790  0.2893  0.2370 -1.0578
17390TIP3    H273662   6.226   4.542  14.654 -0.8357 -0.7334 -0.4043
17391TIP3   OH273663   0.783   3.338  17.378  0.0446 -0.0889 -0.0397
17391TIP3    H173664   0.712   3.324  17.442 -1.4436 -0.6205 -1.7244
17391TIP3    H273665   0.855   3.284  17.410 -0.5490 -0.1213  1.3287
17392TIP3   OH273666   0.179   4.725   0.270 -0.1105  0.4417 -0.3733
17392TIP3    H173667   0.260   4.776   0.262 -0.0440  0.4046  0.0460
17392TIP3    H273668   0.145   4.720   0.180 -0.6580  2.1104 -0.2934
17393TIP3   OH273669   0.096   5.545   5.581  0.1123  0.1909  0.9674
17393TIP3    H173670   0.074   5.591   5.500  0.5106  1.4103  1.5444
17393TIP3    H273671   0.014   5.539   5.629  0.3649  1.8680  1.6641
17394TIP3   OH273672   3.761   4.261   1.531 -0.0549 -0.2660  0.0376
17394TIP3    H173673   3.738   4.305   1.448  1.8294  1.1249  0.1743
17394TIP3    H273674   3.760   4.332   1.596  1.4206 -0.7448  0.6053
17395TIP3   OH273675   6.732   1.552  14.320 -0.4829  0.2417  0.1599
17395TIP3    H173676   6.726   1.648  14.313  0.3937  0.2669 -0.3920
17395TIP3    H273677   6.707   1.521  14.233 -2.8462 -0.1636  0.9097
17396TIP3   OH273678   2.592   2.787  15.110  0.1556 -0.5039  0.4610
17396TIP3    H173679   2.521   2.827  15.160  0.1962  0.8100 -0.4843
17396TIP3    H273680   2.567   2.695  15.102 -1.6396 -0.0020 -0.1469
17397TIP3   OH273681   0.354   1.458  12.488 -0.1812 -0.0999 -0.0343
17397TIP3    H173682   0.442   1.424  12.500 -0.4888 -0.5030  1.3013
17397TIP3    H273683   0.307   1.430  12.567 -1.0566  1.4853  0.0535
17398TIP3   OH273684   5.148   0.347   4.373  0.6163  0.4603  0.1138
17398TIP3    H173685   5.075   0.377   4.318 -0.3000 -1.1314  0.3883
17398TIP3    H273686   5.226   0.380   4.329 -0.2090  1.2015 -0.8544
17399TIP3   OH273687   3.668   6.268  14.100 -0.1220 -0.6100 -0.9190
17399TIP3    H173688   3.697   6.359  14.102  1.1324 -0.9839 -1.2267
17399TIP3    H273689   3.573   6.273  14.108 -0.1506  0.7759 -1.7563
17400TIP3   OH273690   3.208   3.440  11.106 -0.1394  0.7625  0.2565
17400TIP3    H173691   3.266   3.516  11.099 -0.7138  1.4860  2.4683
17400TIP3    H273692   3.179   3.424  11.017 -0.2839  3.4106 -0.2504
17401TIP3   OH273693   0.100   1.259  12.054 -0.0143  0.4400  0.2471
17401TIP3    H173694   0.017   1.236  12.011 -0.0073  1.1484 -0.1567
17401TIP3    H273695   0.074   1.297  12.137 -0.1003  0.6868  0.1091
17402TIP3   OH273696   0.996   4.779  11.343 -0.6057  0.4278  0.1373
17402TIP3    H173697   1.053   4.856  11.337 -1.6588  1.2609  0.4476
17402TIP3    H273698   1.010   4.732  11.261 -0.5344  1.3858 -0.4183
17403TIP3   OH273699   5.573   2.983  11.936  0.0434 -0.2052 -0.3519
17403TIP3    H173700   5.588   2.972  12.030 -0.8694 -1.1552 -0.2937
17403TIP3    H273701   5.549   3.075  11.926 -1.0821 -0.3829  0.5441
17404TIP3   OH273702   5.737   5.240   3.843  0.0892 -0.2107  0.2923
17404TIP3    H173703   5.725   5.334   3.828 -1.6828 -0.2249  1.2719
17404TIP3    H273704   5.691   5.199   3.770  0.5676 -0.3157  0.0504
17405TIP3   OH273705   5.465   1.695   5.677 -0.0110  0.1387  0.2220
17405TIP3    H173706   5.484   1.605   5.650  0.0610  0.0171  0.6758
17405TIP3    H273707   5.370   1.703   5.672 -0.0384 -0.0485  0.4591
17406TIP3   OH273708   4.683   4.929  16.433  0.1783  0.2927 -0.1755
17406TIP3    H173709   4.670   4.885  16.518 -0.4513  0.9367  0.0685
17406TIP3    H273710   4.645   4.868  16.369 -2.5259  1.2832  0.3391
17407TIP3   OH273711   5.706   6.253  17.017 -0.2644 -0.5946  0.5752
17407TIP3    H173712   5.652   6.333  17.017  2.3715  1.3220  1.2155
17407TIP3    H273713   5.679   6.206  16.938  0.7929  2.9701 -2.2033
17408TIP3   OH273714   5.019   6.778   5.804  0.1933 -0.3395 -0.2447
17408TIP3    H173715   5.090   6.836   5.775  1.9347 -0.9934  2.3471
17408TIP3    H273716   4.976   6.827   5.874  1.1576 -1.7462  1.4116
17409TIP3   OH273717   6.537   4.111  16.987 -0.1051 -0.2583  0.0134
17409TIP3    H173718   6.618   4.108  17.037 -0.8841 -1.2113  1.2837
17409TIP3    H273719   6.503   4.200  17.000 -0.3551 -0.5328  1.3055
17410TIP3   OH273720   0.020   3.373  13.405 -0.0521 -0.0314  0.4899
17410TIP3    H173721   0.005   3.332  13.491  0.0850 -0.4540  0.3134
17410TIP3    H273722   0.115   3.385  13.401  0.0769 -1.1905 -0.1364
17411TIP3   OH273723   2.170   4.031  15.595 -0.5428 -0.1992  0.2042
17411TIP3    H173724   2.122   3.973  15.654 -1.6534 -1.0839 -1.4959
17411TIP3    H273725   2.249   3.982  15.572  0.7180  0.8135  2.1561
17412TIP3   OH273726   5.849   0.176   2.146  0.4609  0.1618 -0.0544
17412TIP3    H173727   5.940   0.147   2.147 -0.6687 -4.4080 -1.8617
17412TIP3    H273728   5.805   0.119   2.211 -1.3053  1.3655 -0.1176
17413TIP3   OH273729   4.397   3.143  13.137  0.4198  0.3903 -0.0143
17413TIP3    H173730   4.435   3.135  13.225  2.9390 -0.1882 -1.0676
17413TIP3    H273731   4.401   3.237  13.118  1.5498  0.3259 -0.1610
17414TIP3   OH273732   6.229   3.055  16.642  0.1232 -0.0719 -0.5423
17414TIP3    H173733   6.263   3.038  16.730  2.9573  1.6768 -1.1610
17414TIP3    H273734   6.153   2.998  16.634  0.9695 -1.7923  2.2802
17415TIP3   OH273735   3.680   4.458   3.506 -0.0308 -0.1318  0.3419
17415TIP3    H173736   3.593   4.462   3.547 -0.3409 -0.6945 -0.2335
17415TIP3    H273737   3.713   4.547   3.510 -0.8488  0.1909  0.1274
17416TIP3   OH273738   3.274   4.743  13.470 -0.0302 -0.3510 -0.0188
17416TIP3    H173739   3.309   4.811  13.527 -1.3573  0.4862 -0.1805
17416TIP3    H273740   3.180   4.759  13.467 -0.0054 -0.2343 -2.5791
17417TIP3   OH273741   6.298   1.775  17.078 -0.9473 -0.4267  0.0491
17417TIP3    H173742   6.295   1.829  17.000 -1.6202 -1.0880 -0.3981
17417TIP3    H273743   6.256   1.829  17.146  2.7754  1.6659  1.0074
17418TIP3   OH273744   4.140   3.626  13.545 -0.1859 -0.5909 -0.5959
17418TIP3    H173745   4.195   3.554  13.577 -0.3905 -0.5284 -0.0841
17418TIP3    H273746   4.056   3.585  13.525 -0.1890 -0.5567 -0.6527
17419TIP3   OH273747   6.476   2.520   2.591 -0.5567  0.0185  0.2784
17419TIP3    H173748   6.497   2.461   2.519  1.9206  0.7862  0.2476
17419TIP3    H273749   6.397   2.485   2.630 -0.0013 -2.4391 -0.6573
17420TIP3   OH273750   4.508   3.137  15.965  1.1031  0.6076  0.8634
17420TIP3    H173751   4.500   3.195  16.041 -1.3753  0.9123  0.4491
17420TIP3    H273752   4.452   3.178  15.899 -0.5076 -2.0650  0.4419
17421TIP3   OH273753   4.891   0.327  12.334 -0.4070  0.1326 -0.4336
17421TIP3    H173754   4.900   0.299  12.426 -0.6757  0.0803 -0.4241
17421TIP3    H273755   4.801   0.307  12.311 -0.6881  1.2080 -0.3535
17422TIP3   OH273756   5.875   5.965  12.903 -0.4384 -0.2109  0.0679
17422TIP3    H173757   5.928   6.022  12.847 -0.4174 -1.7509 -1.5642
17422TIP3    H273758   5.896   5.876  12.874 -2.8938 -0.9418  0.2824
17423TIP3   OH273759   3.150   6.098  13.260 -0.1848 -0.2262 -1.1228
17423TIP3    H173760   3.074   6.040  13.268 -2.3817  2.5399 -0.4538
17423TIP3    H273761   3.127   6.157  13.188 -0.0695  2.4995  0.9204
17424TIP3   OH273762   0.608   6.587   5.740  0.5355 -0.3401 -0.3864
17424TIP3    H173763   0.603   6.509   5.795 -0.7054  0.5357  0.8250
17424TIP3    H273764   0.532   6.582   5.683 -0.0259  0.3850  0.2820
17425TIP3   OH273765   2.362   4.477  17.194 -0.0777  0.1564 -0.0419
17425TIP3    H173766   2.375   4.565  17.157  2.7004  0.1989  0.8338
17425TIP3    H273767   2.347   4.493  17.287 -0.7802 -0.2622 -0.0782
17426TIP3   OH273768   2.400   4.461   3.161  0.6682  0.0438 -0.0403
17426TIP3    H173769   2.466   4.393   3.149  0.0808 -1.0561  2.3078
17426TIP3    H273770   2.451   4.540   3.182  1.2873 -0.2865 -0.2678
17427TIP3   OH273771   2.362   1.047   1.030  0.5515 -0.4466 -0.0777
17427TIP3    H173772   2.363   1.017   1.121 -2.4606  0.8113  0.4975
17427TIP3    H273773   2.291   0.997   0.989 -0.9211  1.8450 -0.5258
17428TIP3   OH273774   6.262   5.526   3.327 -0.5078  0.0042  0.5648
17428TIP3    H173775   6.208   5.508   3.250  0.3446  2.5163 -0.7192
17428TIP3    H273776   6.199   5.535   3.398 -1.3397 -2.1002  0.1562
17429TIP3   OH273777   5.061   6.249   2.849  0.2598  0.4233 -0.1374
17429TIP3    H173778   5.094   6.336   2.824 -1.5413  1.1367 -0.2019
17429TIP3    H273779   5.060   6.251   2.944  0.2994  0.4355 -0.1368
17430TIP3   OH273780   2.493   4.289   1.288  0.1891 -0.3964  0.7685
17430TIP3    H173781   2.572   4.326   1.328 -0.4304  1.0570  0.6923
17430TIP3    H273782   2.525   4.216   1.235  1.5996  0.6832  0.0701
17431TIP3   OH273783   6.058   2.887  12.503 -0.0409  0.0814  0.4224
17431TIP3    H173784   6.015   2.803  12.487  2.1287 -1.2671  1.1788
17431TIP3    H273785   6.105   2.874  12.585  0.3639  2.0558  0.5389
17432TIP3   OH273786   5.019   2.317   0.258  0.1514  0.3531 -0.0822
17432TIP3    H173787   4.963   2.266   0.200  1.0894 -0.1964 -0.5187
17432TIP3    H273788   4.971   2.399   0.271 -0.5893  0.0340 -0.7109
17433TIP3   OH273789   3.486   6.755   4.712  0.7096 -0.0843 -0.3736
17433TIP3    H173790   3.471   6.804   4.631 -1.1852 -1.4092 -0.8895
17433TIP3    H273791   3.539   6.680   4.684 -0.1130 -0.6489 -0.4642
17434TIP3   OH273792   5.808   2.489  12.970 -0.1443  0.0866  0.1642
17434TIP3    H173793   5.898   2.463  12.951 -0.6821 -0.8991 -1.2357
17434TIP3    H273794   5.809   2.511  13.063  1.9777  2.1196 -0.2512
17435TIP3   OH273795   6.508   6.538  13.815 -0.3273 -0.2823  1.2025
17435TIP3    H173796   6.535   6.477  13.747  1.7644  2.8204 -1.0356
17435TIP3    H273797   6.449   6.599  13.771  0.4123  1.3313  2.3250
17436TIP3   OH273798   0.997   4.472   5.903 -0.0599 -0.3344 -0.4803
17436TIP3    H173799   1.075   4.425   5.930 -0.2735 -0.1433  0.5149
17436TIP3    H273800   1.006   4.558   5.944 -2.2369 -1.2832  2.3392
17437TIP3   OH273801   2.949   3.308   2.911 -0.0872  0.2865 -0.7336
17437TIP3    H173802   2.966   3.214   2.902 -0.5037  0.3135 -1.9982
17437TIP3    H273803   3.007   3.349   2.847  1.1800  1.0384  0.8206
17438TIP3   OH273804   2.685   0.867   4.047  0.2624 -0.3215 -0.0652
17438TIP3    H173805   2.696   0.942   3.989  0.9017 -0.2195  0.1799
17438TIP3    H273806   2.738   0.798   4.007 -1.6940 -1.2167 -1.2508
17439TIP3   OH273807   4.916   2.957  11.850  0.6034 -0.7053 -0.2096
17439TIP3    H173808   4.838   2.914  11.884 -1.5759  1.6123 -1.8289
17439TIP3    H273809   4.979   2.886  11.834 -2.1355 -3.0795 -1.2850
17440TIP3   OH273810   4.202   0.212  11.834 -0.2039 -0.4280 -0.7799
17440TIP3    H173811   4.246   0.139  11.878 -0.2753  0.0112  0.0421
17440TIP3    H273812   4.266   0.283  11.837  0.7550 -1.0698 -3.5711
17441TIP3   OH273813   4.151   1.042  16.370  0.5870 -0.1554 -0.2765
17441TIP3    H173814   4.134   1.074  16.281  0.6555 -0.5596 -0.4410
17441TIP3    H273815   4.243   1.014  16.368  0.4186 -0.7166 -0.2518
17442TIP3   OH273816   2.918   2.718  13.969  0.7648  0.7515 -0.1325
17442TIP3    H173817   2.964   2.798  13.943 -0.2989  1.5731  0.4508
17442TIP3    H273818   2.841   2.715  13.912  1.2508 -0.3459 -0.7596
17443TIP3   OH273819   6.656   4.227  12.916  0.0410  0.1008 -0.5119
17443TIP3    H173820   6.659   4.189  13.004 -2.1380  0.2081 -0.3395
17443TIP3    H273821   6.676   4.319  12.928  1.7856 -0.2560 -0.4426
17444TIP3   OH273822   5.355   4.376  11.455  0.1717 -0.1359  0.0044
17444TIP3    H173823   5.446   4.360  11.430 -0.5959 -0.2566 -3.1130
17444TIP3    H273824   5.332   4.458  11.411 -0.8989  0.6458  1.8761
17445TIP3   OH273825   6.705   2.311   6.505 -0.1093  0.3719 -0.0097
17445TIP3    H173826   6.776   2.340   6.447  0.6825 -1.3719  0.0437
17445TIP3    H273827   6.626   2.342   6.462  0.5710  0.6654 -1.1019
17446TIP3   OH273828   1.918   0.752   4.074  0.8616 -0.1639 -0.1478
17446TIP3    H173829   1.928   0.684   4.007 -0.3237  1.0012 -1.5795
17446TIP3    H273830   1.997   0.745   4.128  0.8847 -2.4798 -0.3963
17447TIP3   OH273831   3.230   0.419   3.922  0.4387  1.1484  0.2731
17447TIP3    H173832   3.251   0.410   3.830 -0.9255 -0.1097  0.0515
17447TIP3    H273833   3.154   0.478   3.924  0.3600  1.0413  0.5646
17448TIP3   OH273834   1.998   5.033   2.862  0.0793  0.0135  0.0606
17448TIP3    H173835   1.984   5.114   2.813  1.0722  0.0114 -0.2560
17448TIP3    H273836   1.944   4.968   2.817 -1.3371  0.6506  0.7851
17449TIP3   OH273837   2.028   3.415  13.078 -0.2296 -0.0706 -0.3183
17449TIP3    H173838   2.037   3.479  13.148  0.2614  1.6227 -1.8530
17449TIP3    H273839   1.956   3.358  13.105 -0.2131  0.6956  1.4099
17450TIP3   OH273840   4.403   2.915  12.458  0.2577  0.0962 -0.1396
17450TIP3    H173841   4.456   2.838  12.477 -0.1818  0.2364  1.9140
17450TIP3    H273842   4.435   2.946  12.373  3.7449  0.3759  1.0836
17451TIP3   OH273843   6.621   6.749  15.160 -0.3480 -0.0263  0.6234
17451TIP3    H173844   6.577   6.818  15.210 -2.5256 -0.1131 -1.0166
17451TIP3    H273845   6.553   6.716  15.101  1.4772 -1.5037 -0.7528
17452TIP3   OH273846   1.200   6.397  17.334 -0.3599  0.1179  0.0401
17452TIP3    H173847   1.251   6.476  17.347  0.1016  0.1609 -1.7758
17452TIP3    H273848   1.134   6.399  17.403  0.9241  1.0025  1.2821
17453TIP3   OH273849   1.448   0.172  14.292 -0.3207  0.4175 -0.1014
17453TIP3    H173850   1.522   0.229  14.314 -0.8471  1.6623 -1.3975
17453TIP3    H273851   1.425   0.129  14.375  0.4816  1.6391  0.7869
17454TIP3   OH273852   5.952   2.605  13.824  0.2105 -0.0437  0.2038
17454TIP3    H173853   5.882   2.670  13.819  0.6450  0.6373  2.0073
17454TIP3    H273854   5.963   2.574  13.734 -0.1814  2.1926 -0.6817
17455TIP3   OH273855   3.551   5.823  12.759 -0.7117 -0.3484 -0.2683
17455TIP3    H173856   3.623   5.781  12.806 -0.9935 -0.7444 -0.1889
17455TIP3    H273857   3.594   5.870  12.688 -0.3684 -0.5413 -0.1912
17456TIP3   OH273858   0.984   4.602   4.952  0.5007 -0.2429 -0.4147
17456TIP3    H173859   1.007   4.626   5.041  0.5602 -3.8803  0.6796
17456TIP3    H273860   1.064   4.563   4.916  0.4205  0.9904 -2.0412
17457TIP3   OH273861   6.212   0.093  12.678 -0.2635 -0.2930  0.3832
17457TIP3    H173862   6.132   0.081  12.627 -0.6146  1.0846  0.5754
17457TIP3    H273863   6.250   0.005  12.684 -0.6178 -0.6371 -1.5629
17458TIP3   OH273864   3.221   2.338   3.214  0.1013  0.2603 -0.9008
17458TIP3    H173865   3.278   2.272   3.176 -1.0240 -1.1908 -0.1906
17458TIP3    H273866   3.233   2.328   3.309 -0.7967  0.3932 -0.7623
17459TIP3   OH273867   5.764   6.749   4.453  1.0308  0.4879 -0.3438
17459TIP3    H173868   5.778   6.716   4.364  1.7712 -0.0521 -0.0386
17459TIP3    H273869   5.671   6.767   4.457  1.2423  2.1791 -1.7853
17460TIP3   OH273870   5.146   5.304   6.377  0.4542  0.1256  0.3097
17460TIP3    H173871   5.220   5.256   6.338 -0.4302  0.7201 -2.2682
17460TIP3    H273872   5.122   5.369   6.312 -1.6755  0.6802  1.5449
17461TIP3   OH273873   5.574   5.832  15.785 -0.4049  0.4574  0.4654
17461TIP3    H173874   5.588   5.808  15.877  1.4153 -2.5678 -0.4369
17461TIP3    H273875   5.658   5.868  15.758  0.3352 -1.9446 -0.7735
17462TIP3   OH273876   6.227   2.887  17.444 -0.0773 -0.3284 -0.3119
17462TIP3    H173877   6.242   2.981  17.436  0.2240 -0.4585 -1.7283
17462TIP3    H273878   6.133   2.876  17.432  0.0560 -0.2950 -1.5223
17463TIP3   OH273879   2.056   4.328   4.396 -0.2999  0.2180  0.5726
17463TIP3    H173880   1.994   4.274   4.348 -0.3646 -2.6211  3.5336
17463TIP3    H273881   2.006   4.404   4.424 -0.9145  0.6459 -1.5031
17464TIP3   OH273882   4.469   6.120   2.640 -0.4078 -0.5333 -0.4253
17464TIP3    H173883   4.401   6.089   2.580 -0.8723 -0.1358 -0.1100
17464TIP3    H273884   4.545   6.065   2.620 -0.8318 -1.0131 -0.7558
17465TIP3   OH273885   6.441   5.364   1.976  0.2085 -0.3093 -0.1131
17465TIP3    H173886   6.405   5.420   1.906  0.1617  0.3300  0.4160
17465TIP3    H273887   6.510   5.314   1.933  0.3857  0.3006 -0.5595
17466TIP3   OH273888   2.108   3.030   2.587 -0.7088  0.5043 -0.1481
17466TIP3    H173889   2.185   2.977   2.608 -0.1798  1.6094  0.7703
17466TIP3    H273890   2.104   3.029   2.491  1.8678  2.3313 -0.3781
17467TIP3   OH273891   6.190   3.307   3.515  0.3511 -0.6374 -0.0659
17467TIP3    H173892   6.169   3.263   3.597  0.5725  0.2041  0.4622
17467TIP3    H273893   6.192   3.400   3.539  0.3321 -0.3809 -1.0479
17468TIP3   OH273894   5.606   3.455  12.146  0.2127 -0.2922 -0.1723
17468TIP3    H173895   5.587   3.362  12.142 -0.1632 -0.1926 -0.8911
17468TIP3    H273896   5.523   3.498  12.126  0.8187  0.1650 -1.9779
17469TIP3   OH273897   0.188   3.430  17.006 -0.5815  0.2072 -0.3659
17469TIP3    H173898   0.226   3.436  16.918 -0.5523 -2.2466 -0.5730
17469TIP3    H273899   0.105   3.385  16.993 -2.5245  3.2836  0.4192
17470TIP3   OH273900   1.177   0.546   2.096 -0.1771 -0.9180  0.1039
17470TIP3    H173901   1.162   0.453   2.112 -1.0429 -0.4677  2.2491
17470TIP3    H273902   1.193   0.583   2.183  0.3723  0.9079 -0.7305
17471TIP3   OH273903   1.998   4.876  11.761 -0.0491 -0.5180  0.2520
17471TIP3    H173904   1.987   4.963  11.721 -0.6621  1.0611  3.5550
17471TIP3    H273905   2.080   4.844  11.724  0.9288  2.0686 -0.0881
17472TIP3   OH273906   0.791   3.486   5.926 -0.3096  0.2858 -0.4791
17472TIP3    H173907   0.726   3.422   5.955  0.2687  0.4989  1.4305
17472TIP3    H273908   0.741   3.555   5.883 -1.0722 -0.7179 -1.2592
17473TIP3   OH273909   4.131   1.737  16.638  0.5093 -0.3069 -0.3113
17473TIP3    H173910   4.106   1.771  16.724 -0.3472 -0.7448 -0.3767
17473TIP3    H273911   4.085   1.794  16.575  0.7934 -0.2530 -0.4742
17474TIP3   OH273912   1.732   5.239  16.478  0.1132 -0.5578  0.2056
17474TIP3    H173913   1.777   5.205  16.400 -1.9186  1.3052 -1.9482
17474TIP3    H273914   1.648   5.193  16.479  0.0489 -0.4398  1.2039
17475TIP3   OH273915   1.908   6.421   2.469  0.5570  0.1285  0.2198
17475TIP3    H173916   1.926   6.502   2.421  1.8662 -1.6634 -2.6168
17475TIP3    H273917   1.848   6.372   2.412  0.7130 -1.3686  1.2822
17476TIP3   OH273918   1.110   3.835  15.538 -0.1489 -0.1736  0.1326
17476TIP3    H173919   1.171   3.816  15.467 -0.8705  0.6263 -0.7345
17476TIP3    H273920   1.164   3.870  15.608  0.4411  0.0992 -0.4522
17477TIP3   OH273921   5.189   0.231   0.340  0.4452  0.4430 -0.3518
17477TIP3    H173922   5.277   0.217   0.376 -0.5762  1.1928  2.8145
17477TIP3    H273923   5.142   0.151   0.362 -0.2530  0.9614  0.0663
17478TIP3   OH273924   2.581   0.110  15.442 -0.5884  0.3623 -0.5668
17478TIP3    H173925   2.646   0.141  15.380  0.0650  0.3890  0.1171
17478TIP3    H273926   2.497   0.134  15.403 -0.1555  3.2432  0.0183
17479TIP3   OH273927   5.299   2.473  14.994 -0.3364 -0.4526  0.2987
17479TIP3    H173928   5.369   2.502  14.935 -0.7096  0.5724  0.3310
17479TIP3    H273929   5.233   2.436  14.937 -0.3565 -0.1740  0.1409
17480TIP3   OH273930   5.580   6.192   1.432 -0.3235 -0.0467 -0.3898
17480TIP3    H173931   5.559   6.140   1.355  0.1622  0.8118 -1.1256
17480TIP3    H273932   5.498   6.237   1.454 -1.0519 -1.8924  0.9122
17481TIP3   OH273933   1.092   2.913   4.216  0.4949 -0.6933 -0.1246
17481TIP3    H173934   1.013   2.859   4.213  1.5936 -2.4401 -3.3015
17481TIP3    H273935   1.097   2.944   4.306 -1.9743 -3.3114  1.0807
17482TIP3   OH273936   6.044   1.374  12.253  0.3051 -0.6717 -0.1663
17482TIP3    H173937   6.054   1.468  12.268  0.2859 -0.6326 -0.4026
17482TIP3    H273938   5.959   1.365  12.211 -0.6416 -0.9838  1.6753
17483TIP3   OH273939   6.258   0.969  16.857 -0.1836 -0.6389 -0.2502
17483TIP3    H173940   6.196   0.896  16.865  0.4033 -1.3075 -1.5014
17483TIP3    H273941   6.291   0.963  16.768  0.6873  0.5257 -0.0380
17484TIP3   OH273942   2.016   6.001  12.597  0.3537 -0.1366  0.2723
17484TIP3    H173943   2.110   6.016  12.589  0.0974  1.6630  0.2177
17484TIP3    H273944   1.987   6.062  12.665 -1.2401  1.5978 -1.8409
17485TIP3   OH273945   0.865   4.393   0.799  0.1114 -0.0804  0.1191
17485TIP3    H173946   0.778   4.411   0.833  0.6053  1.6852  0.5519
17485TIP3    H273947   0.887   4.306   0.834 -2.7016 -2.1193 -2.6624
17486TIP3   OH273948   0.446   1.784  15.542 -0.2753  0.1077 -0.4484
17486TIP3    H173949   0.380   1.829  15.596 -0.4496  1.9366 -2.0531
17486TIP3    H273950   0.394   1.736  15.478 -0.0462 -0.7136 -0.0313
17487TIP3   OH273951   2.330   2.409   2.844  0.7579  0.1615 -0.5186
17487TIP3    H173952   2.383   2.420   2.923 -1.1914  0.5196  0.8176
17487TIP3    H273953   2.311   2.315   2.841  0.8870  0.1373 -0.6240
17488TIP3   OH273954   5.163   2.318   4.527 -0.2828 -0.7406 -0.0662
17488TIP3    H173955   5.073   2.334   4.558  0.3346  0.0095  1.4322
17488TIP3    H273956   5.153   2.300   4.434 -1.9399 -0.0279 -0.0620
17489TIP3   OH273957   3.561   4.532  15.906  0.2884  0.0692 -0.5121
17489TIP3    H173958   3.609   4.559  15.984  1.0453  0.2808 -1.0405
17489TIP3    H273959   3.593   4.589  15.837 -1.8755  1.2882 -0.5868
17490TIP3   OH273960   3.426   4.503   3.548  0.0280 -0.2879  0.2073
17490TIP3    H173961   3.346   4.463   3.580 -0.2330 -0.3319 -0.4885
17490TIP3    H273962   3.399   4.588   3.514 -0.1872 -1.2578 -2.2881
17491TIP3   OH273963   0.617   1.368   4.299 -0.2157 -0.6967 -0.0955
17491TIP3    H173964   0.645   1.414   4.379  1.1430 -1.7560  0.0623
17491TIP3    H273965   0.692   1.374   4.241 -1.3615  0.4940 -1.5428
17492TIP3   OH273966   4.231   4.560   5.913 -0.4886 -0.5822 -0.1192
17492TIP3    H173967   4.220   4.466   5.929  1.4051 -0.9767 -0.9148
17492TIP3    H273968   4.180   4.576   5.833 -0.4934 -1.0188 -0.2082
17493TIP3   OH273969   0.963   2.702   3.905  0.1288  0.1374  0.5843
17493TIP3    H173970   1.031   2.756   3.947 -0.2699  0.4041  0.8992
17493TIP3    H273971   1.007   2.661   3.831  0.4550  0.8766  0.3580
17494TIP3   OH273972   2.526   0.324  11.243 -0.7540  0.1595 -0.0942
17494TIP3    H173973   2.523   0.299  11.151 -1.6592  1.0451 -0.3322
17494TIP3    H273974   2.616   0.352  11.258  0.0007 -2.0695 -0.0972
17495TIP3   OH273975   4.087   2.163  15.852  0.0747 -0.4152  0.7931
17495TIP3    H173976   4.082   2.070  15.874  2.5960 -0.8780 -0.2758
17495TIP3    H273977   4.091   2.208  15.937  1.8083 -1.5450  1.3524
17496TIP3   OH273978   6.001   6.094   3.022 -0.1326 -0.1933  0.1192
17496TIP3    H173979   6.027   6.043   3.099  1.6460  0.1469 -0.2056
17496TIP3    H273980   6.013   6.185   3.048  2.9657 -0.0730 -1.2340
17497TIP3   OH273981   0.892   0.513   4.187  0.5777  0.1899 -0.6228
17497TIP3    H173982   0.948   0.579   4.228 -1.6325  0.3811  2.4396
17497TIP3    H273983   0.804   0.536   4.216 -0.7853 -1.7104 -2.9364
17498TIP3   OH273984   5.647   0.741   6.216 -0.3033  0.1159 -0.5083
17498TIP3    H173985   5.684   0.828   6.223 -0.7370  0.3853 -1.4068
17498TIP3    H273986   5.712   0.683   6.257 -0.2337  0.8973  0.5218
17499TIP3   OH273987   5.300   0.087  13.684  0.0187 -0.8516  0.0567
17499TIP3    H173988   5.382   0.081  13.732 -0.2435 -0.4784  0.5658
17499TIP3    H273989   5.242   0.024  13.726  0.3534 -1.8944 -0.9774
17500TIP3   OH273990   5.763   0.098  14.698  0.1186  0.0870  0.3898
17500TIP3    H173991   5.761   0.071  14.790 -0.9242  0.8679  0.6195
17500TIP3    H273992   5.673   0.126  14.679  0.7614  1.8703 -0.2706
17501TIP3   OH273993   5.553   0.419  17.145 -0.6177 -0.2166 -0.2467
17501TIP3    H173994   5.512   0.481  17.084 -2.1021 -0.2040  0.7156
17501TIP3    H273995   5.637   0.460  17.166 -0.5033  0.2523 -1.5219
17502TIP3   OH273996   6.501   3.073  16.122 -0.4450 -0.3052  0.1946
17502TIP3    H173997   6.413   3.095  16.152 -1.2445  0.8723 -2.5927
17502TIP3    H273998   6.497   2.980  16.099 -1.1201 -0.1709 -0.2586
17503TIP3   OH273999   0.809   1.853  16.871  0.5549 -0.0696 -0.1782
17503TIP3    H174000   0.829   1.839  16.963 -0.9821 -1.1732  0.0177
17503TIP3    H274001   0.714   1.856  16.867  0.5032 -1.9629 -1.9622
17504TIP3   OH274002   3.799   5.442  13.981  0.3133  0.6179 -0.1104
17504TIP3    H174003   3.894   5.450  13.977  0.9913 -0.7363  5.1903
17504TIP3    H274004   3.780   5.356  13.945  1.0485  0.9075 -1.2304
17505TIP3   OH274005   4.365   0.714  15.237  0.2062  0.4699 -0.3754
17505TIP3    H174006   4.290   0.734  15.294 -0.5794 -0.6729 -0.9523
17505TIP3    H274007   4.431   0.678  15.297 -0.1726  0.3644 -0.0109
17506TIP3   OH274008   0.601   2.564  15.718 -0.3852 -0.1251 -0.4016
17506TIP3    H174009   0.671   2.508  15.684  0.4495  0.7634 -0.1924
17506TIP3    H274010   0.646   2.642  15.749 -1.2907 -0.2127  1.2618
17507TIP3   OH274011   2.925   6.603   0.972 -0.5611  0.1951 -0.3061
17507TIP3    H174012   2.950   6.567   0.887  0.4444  0.9808 -0.3604
17507TIP3    H274013   2.831   6.583   0.979 -0.6914  0.2048 -1.6397
17508TIP3   OH274014   5.871   4.160   0.389  0.2657  0.2136 -0.0165
17508TIP3    H174015   5.865   4.182   0.296  1.9278  0.1462 -0.1745
17508TIP3    H274016   5.927   4.082   0.392 -0.4872 -0.3127  0.9901
17509TIP3   OH274017   5.922   5.512  11.942  0.3958  0.1522  0.0775
17509TIP3    H174018   5.871   5.586  11.909 -0.2433 -0.3916 -0.1931
17509TIP3    H274019   5.870   5.478  12.015  0.3600 -0.4137 -0.2035
17510TIP3   OH274020   3.362   2.978   4.708  0.8894  0.0947 -0.1064
17510TIP3    H174021   3.423   2.984   4.781  1.7891 -0.8962 -0.7537
17510TIP3    H274022   3.413   3.004   4.631  0.2075  0.2570 -0.5180
17511TIP3   OH274023   6.064   2.891   2.425 -0.2916  0.0053  0.0442
17511TIP3    H174024   6.020   2.974   2.406  0.9073  0.6476 -0.0044
17511TIP3    H274025   6.003   2.824   2.394 -2.4879  0.7299  2.4415
17512TIP3   OH274026   0.073   2.463   3.675 -0.6057 -0.3060 -0.4202
17512TIP3    H174027   0.001   2.500   3.623  0.1363  1.0599 -0.5182
17512TIP3    H274028   0.095   2.381   3.630 -0.7451  0.2805 -1.6189
17513TIP3   OH274029   4.650   0.284   0.191 -0.2049 -0.2280 -0.4850
17513TIP3    H174030   4.576   0.294   0.132 -0.0730  0.4703 -0.5375
17513TIP3    H274031   4.722   0.330   0.148 -0.3874  1.2271  0.7013
17514TIP3   OH274032   4.838   4.524  16.417 -0.1416  0.3759 -0.0121
17514TIP3    H174033   4.908   4.476  16.373  0.8733  0.5163  1.3886
17514TIP3    H274034   4.884   4.591  16.468 -1.2656  0.2047  1.2718
17515TIP3   OH274035   5.330   4.091   2.612  0.2158 -0.0970  0.2909
17515TIP3    H174036   5.243   4.124   2.637  1.6215  2.9313  1.6472
17515TIP3    H274037   5.341   4.119   2.521 -0.0350 -0.0621  0.2705
17516TIP3   OH274038   2.417   3.393   2.638 -0.5794 -0.2980 -0.3812
17516TIP3    H174039   2.371   3.322   2.683 -3.0361  2.2588  1.4771
17516TIP3    H274040   2.350   3.459   2.622  1.6925  1.9297 -1.3824
17517TIP3   OH274041   6.376   6.636   0.137  0.2180 -0.2871 -0.0313
17517TIP3    H174042   6.295   6.633   0.086 -1.3185  0.5700  2.2108
17517TIP3    H274043   6.422   6.713   0.104 -2.1955  2.1165  1.7335
17518TIP3   OH274044   0.594   1.243  11.678  0.1208  0.1112  0.6177
17518TIP3    H174045   0.507   1.210  11.658  0.3128 -0.1341  0.1817
17518TIP3    H274046   0.613   1.210  11.766 -1.4252  2.6016  1.9926
17519TIP3   OH274047   3.156   3.281   4.959 -0.2789 -0.1837 -0.1247
17519TIP3    H174048   3.109   3.363   4.946 -1.5663 -0.4915  2.1526
17519TIP3    H274049   3.169   3.247   4.870 -1.1172  1.6940 -1.0218
17520TIP3   OH274050   2.370   4.086  11.323 -0.8919  0.3525 -0.2528
17520TIP3    H174051   2.386   3.992  11.313 -0.1395  0.5053 -0.5902
17520TIP3    H274052   2.290   4.102  11.273 -0.6229  0.0044 -0.8105
17521TIP3   OH274053   5.074   0.109   0.562  0.2769  0.1176  0.0285
17521TIP3    H174054   5.034   0.196   0.557  1.2575  0.6296  0.8486
17521TIP3    H274055   4.999   0.049   0.562 -0.4521  1.0027  0.4591
17522TIP3   OH274056   4.673   3.713   4.718  0.2301  0.1094 -0.1576
17522TIP3    H174057   4.616   3.637   4.726  0.2710  0.0352 -0.5219
17522TIP3    H274058   4.735   3.704   4.790 -0.4301  0.3790  0.4566
17523TIP3   OH274059   3.235   2.389  15.401 -0.1432 -0.9772 -0.3765
17523TIP3    H174060   3.218   2.468  15.349  0.3818  0.7594  1.9441
17523TIP3    H274061   3.296   2.418  15.469 -0.8531 -3.1197  1.2676
17524TIP3   OH274062   2.484   5.898  13.138  0.7267 -0.1508 -0.2901
17524TIP3    H174063   2.536   5.966  13.181 -0.3191  0.8225 -0.4912
17524TIP3    H274064   2.467   5.834  13.207 -0.4880  1.1353  0.6823
17525TIP3   OH274065   4.351   2.914   4.464  0.3828 -0.1372 -0.7215
17525TIP3    H174066   4.381   2.825   4.443  0.5133  0.1021 -1.5751
17525TIP3    H274067   4.275   2.928   4.407 -0.4750 -0.1951  0.3824
17526TIP3   OH274068   2.081   5.200   2.295 -0.6072 -0.5876  0.2679
17526TIP3    H174069   2.017   5.263   2.264  0.0793 -0.2099 -0.4316
17526TIP3    H274070   2.033   5.118   2.302 -1.3393 -0.1455  0.4898
17527TIP3   OH274071   4.074   5.541  13.950  0.1297  0.6627 -0.3551
17527TIP3    H174072   4.152   5.526  13.896  0.7879 -0.0279  0.7394
17527TIP3    H274073   4.097   5.615  14.005 -0.2843  0.9442 -0.5570
17528TIP3   OH274074   4.991   1.932   0.230  0.1949  0.3300 -0.2045
17528TIP3    H174075   5.026   1.983   0.157 -2.0854  0.8087 -1.0671
17528TIP3    H274076   5.047   1.855   0.235  1.0263  0.7814 -1.7960
17529TIP3   OH274077   3.236   0.162  13.340 -0.4301 -0.1960  0.1350
17529TIP3    H174078   3.310   0.210  13.376 -2.3201  3.4545 -0.3556
17529TIP3    H274079   3.269   0.120  13.261  1.1362  1.2279  0.0056
17530TIP3   OH274080   3.799   6.106  11.846 -0.8090  0.0822  0.5376
17530TIP3    H174081   3.747   6.037  11.803  0.1364 -0.3572  0.0665
17530TIP3    H274082   3.818   6.168  11.776 -0.7606  0.2783  0.7248
17531TIP3   OH274083   4.127   1.587  12.721 -0.5590 -0.4930 -0.4939
17531TIP3    H174084   4.070   1.632  12.658  0.9534  0.7887 -1.0040
17531TIP3    H274085   4.183   1.532  12.667 -0.2495 -0.5334 -0.1327
17532TIP3   OH274086   4.133   0.838   6.519 -0.0116  0.0387  0.6662
17532TIP3    H174087   4.052   0.805   6.556  0.7517  1.0931  3.5684
17532TIP3    H274088   4.187   0.760   6.505 -0.3009 -0.4044  1.9642
17533TIP3   OH274089   5.541   2.130  13.410 -0.2415  0.3161  0.8206
17533TIP3    H174090   5.478   2.063  13.438 -0.9122  1.0913  1.2268
17533TIP3    H274091   5.551   2.187  13.487 -1.0890  1.7296 -0.0545
17534TIP3   OH274092   4.851   4.632   5.098  0.8584  0.0525 -0.3655
17534TIP3    H174093   4.930   4.666   5.056  1.8964 -1.5003  0.2064
17534TIP3    H274094   4.867   4.641   5.191  0.2162  0.0353 -0.2502
17535TIP3   OH274095   1.809   0.185   6.396 -0.0667 -0.4997 -0.7658
17535TIP3    H174096   1.834   0.269   6.358 -1.8207 -0.0074 -0.9255
17535TIP3    H274097   1.737   0.154   6.341 -0.6865 -1.2076  0.3933
17536TIP3   OH274098   6.455   0.822  15.964  0.4752  0.1125  0.1912
17536TIP3    H174099   6.402   0.831  15.885 -1.9467  1.3152  1.8634
17536TIP3    H274100   6.463   0.910  15.999  0.7129 -0.5013  1.7820
17537TIP3   OH274101   2.918   4.210  14.497  0.1376 -0.1757 -1.3359
17537TIP3    H174102   2.885   4.288  14.451 -0.9430  1.0827  1.3359
17537TIP3    H274103   3.001   4.238  14.536 -1.3898  0.6272  1.6827
17538TIP3   OH274104   3.433   3.488   6.711 -0.2670 -0.0250  0.6114
17538TIP3    H174105   3.481   3.453   6.636 -1.6626  1.4889 -1.0683
17538TIP3    H274106   3.441   3.420   6.778 -0.6724 -2.3932 -1.5974
17539TIP3   OH274107   2.092   2.531  17.253  0.0165 -0.0889 -0.2528
17539TIP3    H174108   2.096   2.487  17.339 -1.7550 -1.4975 -0.8122
17539TIP3    H274109   2.051   2.615  17.272 -1.8843 -1.0435  0.1243
17540TIP3   OH274110   4.796   6.484  15.214  0.0112 -0.4182 -0.5176
17540TIP3    H174111   4.780   6.514  15.303 -2.2118 -1.1345 -0.6029
17540TIP3    H274112   4.891   6.472  15.208  0.4097  1.5861  1.0792
17541TIP3   OH274113   4.828   0.953   1.841 -0.2529 -0.1361 -0.2851
17541TIP3    H174114   4.777   1.016   1.789  0.7025  0.7997 -0.1340
17541TIP3    H274115   4.860   1.005   1.916  1.6649 -0.4301 -0.8436
17542TIP3   OH274116   2.305   3.040   5.713 -0.2236 -0.4170  0.1483
17542TIP3    H174117   2.224   2.990   5.704  0.1252 -0.5926 -3.3188
17542TIP3    H274118   2.346   3.006   5.793 -2.3529 -2.1180  0.5999
17543TIP3   OH274119   2.871   6.360  12.610  0.2310  0.1533  0.1670
17543TIP3    H174120   2.963   6.387  12.619  0.7798 -1.7623  0.6082
17543TIP3    H274121   2.875   6.270  12.578 -1.5083  0.0168  0.2458
17544TIP3   OH274122   0.709   6.141   5.071  0.1048  0.1388 -0.2064
17544TIP3    H174123   0.784   6.192   5.100 -0.2215 -0.2802  1.4424
17544TIP3    H274124   0.740   6.050   5.068 -0.7798 -0.3610  2.4872
17545TIP3   OH274125   4.793   4.266  14.298  0.5560  0.0513 -0.3923
17545TIP3    H174126   4.832   4.331  14.357 -0.0349 -0.2621  0.3637
17545TIP3    H274127   4.861   4.250  14.233 -0.1558  3.3215 -2.1586
17546TIP3   OH274128   1.591   0.708  15.804  0.1350 -0.0377 -0.5422
17546TIP3    H174129   1.531   0.728  15.732 -0.7853  0.3867  0.3354
17546TIP3    H274130   1.629   0.792  15.828  0.5852 -0.2075 -0.6438
17547TIP3   OH274131   1.309   1.406   3.267  0.2267 -0.8331  0.0838
17547TIP3    H174132   1.231   1.351   3.270  0.0454 -0.5470  0.7279
17547TIP3    H274133   1.291   1.476   3.329 -0.6192  1.3899 -2.4556
17548TIP3   OH274134   6.129   2.990   1.737 -0.9458 -0.2266  0.4187
17548TIP3    H174135   6.189   2.970   1.665 -1.6394  0.8327 -0.4822
17548TIP3    H274136   6.115   2.906   1.781 -0.1920 -0.8087 -0.4169
17549TIP3   OH274137   6.096   3.225  14.295 -0.5618  0.2586  0.1456
17549TIP3    H174138   6.006   3.207  14.321 -0.6503  0.0608 -0.2995
17549TIP3    H274139   6.090   3.254  14.204 -0.3202  1.5146  0.5035
17550TIP3   OH274140   2.356   0.998   3.458  0.7184 -0.1836  0.1988
17550TIP3    H174141   2.440   0.955   3.473  0.8344  0.3617  1.2116
17550TIP3    H274142   2.376   1.092   3.463  0.0029 -0.0507  0.7176
17551TIP3   OH274143   5.172   5.887   0.951  0.3554  0.3481  0.1194
17551TIP3    H174144   5.120   5.938   0.889 -0.1544 -0.2989  0.0004
17551TIP3    H274145   5.116   5.881   1.029  1.3148  1.8542  0.9812
17552TIP3   OH274146   0.099   5.700  15.393 -0.1651  0.3497 -0.5172
17552TIP3    H174147   0.114   5.794  15.401 -0.9310  0.4007  0.6223
17552TIP3    H274148   0.006   5.692  15.371 -0.2164 -0.1529 -0.1399
17553TIP3   OH274149   6.655   5.582   1.779 -0.2571  0.2460 -0.2259
17553TIP3    H174150   6.586   5.635   1.818 -1.0484 -1.9680  1.5640
17553TIP3    H274151   6.658   5.611   1.687 -2.3249  1.6048  0.0597
17554TIP3   OH274152   3.497   6.446   4.668  0.1498  0.0062 -0.9877
17554TIP3    H174153   3.511   6.494   4.750 -2.2448  1.4772 -1.3279
17554TIP3    H274154   3.418   6.394   4.684  0.2692 -0.5214 -2.0213
17555TIP3   OH274155   5.872   1.433  14.099 -0.0364  0.0138  0.5476
17555TIP3    H174156   5.797   1.420  14.041 -0.3840  0.8335  0.7931
17555TIP3    H274157   5.841   1.405  14.185  0.6623 -1.7518  0.2615
17556TIP3   OH274158   0.865   4.684   6.333  0.0006 -0.0016  0.2847
17556TIP3    H174159   0.841   4.743   6.404 -1.5905 -0.5530  0.2465
17556TIP3    H274160   0.829   4.599   6.359 -0.1085 -0.3376 -0.9055
17557TIP3   OH274161   4.034   5.349   5.261  0.2515 -0.1505 -0.3141
17557TIP3    H174162   4.096   5.277   5.256  0.5672  0.1970 -1.6541
17557TIP3    H274163   4.073   5.420   5.210 -0.6202  0.5495 -0.0539
17558TIP3   OH274164   4.860   4.869  11.543 -0.2460  0.3587 -0.0057
17558TIP3    H174165   4.926   4.801  11.532 -0.7278  0.1457 -1.9725
17558TIP3    H274166   4.877   4.905  11.630  0.7959 -1.4224  0.5807
17559TIP3   OH274167   6.028   2.346  11.785  0.1774  0.6225 -0.0609
17559TIP3    H174168   6.114   2.346  11.744 -0.7259  0.6321 -2.1144
17559TIP3    H274169   5.992   2.260  11.764  0.4034 -0.1715  2.5136
17560TIP3   OH274170   2.098   0.714   4.726 -0.6568 -0.2650 -0.5114
17560TIP3    H174171   2.030   0.655   4.760 -0.7529 -0.0317 -0.2974
17560TIP3    H274172   2.146   0.743   4.804  0.8540 -1.8391 -0.7999
17561TIP3   OH274173   5.315   1.569  12.537 -0.5357  0.2317  0.1152
17561TIP3    H174174   5.302   1.587  12.630  0.6282 -1.2981  0.6159
17561TIP3    H274175   5.367   1.642  12.505 -0.7165  0.6357  0.7299
17562TIP3   OH274176   0.814   0.443  16.052 -0.0495  0.3231  0.0513
17562TIP3    H174177   0.760   0.457  15.975 -2.2622  0.7984  1.5819
17562TIP3    H274178   0.869   0.368  16.030 -0.8489  0.2339 -1.8446
17563TIP3   OH274179   2.743   3.369   3.549  0.8408 -0.0001 -0.4190
17563TIP3    H174180   2.651   3.357   3.524  0.8642 -0.7267 -0.1696
17563TIP3    H274181   2.780   3.420   3.478  0.5133 -0.6563 -1.0678
17564TIP3   OH274182   4.602   0.748   5.044 -0.5210 -0.2840  0.1299
17564TIP3    H174183   4.613   0.653   5.040 -1.4732 -0.4145  0.3623
17564TIP3    H274184   4.551   0.769   4.966 -1.1513 -0.1099  0.5709
17565TIP3   OH274185   5.082   2.895  16.140  0.3737 -0.1938 -0.6528
17565TIP3    H174186   5.035   2.854  16.213 -0.3605 -0.2952 -1.1707
17565TIP3    H274187   5.019   2.896  16.068  0.4281  1.6716 -0.7307
17566TIP3   OH274188   2.548   4.189   6.130 -0.0194 -0.4567 -0.6095
17566TIP3    H174189   2.530   4.107   6.176  0.1666 -1.0099 -1.5029
17566TIP3    H274190   2.541   4.257   6.198  0.0133 -1.2254  0.1757
17567TIP3   OH274191   5.377   4.270   3.371 -0.6948  0.4345 -0.2574
17567TIP3    H174192   5.331   4.187   3.356  2.4074 -1.7939  1.3604
17567TIP3    H274193   5.380   4.279   3.466 -0.9757  2.4842 -0.3997
17568TIP3   OH274194   2.528   3.822  14.116 -0.3316 -0.1005  0.5511
17568TIP3    H174195   2.619   3.823  14.147 -0.4936  0.1327  1.0316
17568TIP3    H274196   2.491   3.742  14.156  0.0366 -0.9639 -0.7695
17569TIP3   OH274197   1.235   2.722   1.541  0.0484  0.0691  0.3139
17569TIP3    H174198   1.163   2.673   1.503  0.0084 -0.3600  0.9278
17569TIP3    H274199   1.255   2.790   1.476 -0.2778 -0.3940 -0.2765
17570TIP3   OH274200   2.403   1.196   5.010  0.8780  0.4107 -0.0876
17570TIP3    H174201   2.424   1.240   5.092 -1.2451  0.5051  0.4600
17570TIP3    H274202   2.482   1.145   4.989  1.1878 -0.2932  2.4505
17571TIP3   OH274203   3.401   1.491  14.740  0.9517  0.1148 -0.0044
17571TIP3    H174204   3.461   1.546  14.689 -1.2064  1.3766 -1.3716
17571TIP3    H274205   3.354   1.553  14.796  1.1024 -0.8758  1.2650
17572TIP3   OH274206   4.588   2.864   3.838  0.2353 -0.3876 -0.4074
17572TIP3    H174207   4.579   2.815   3.756 -1.0417  1.1791 -1.2488
17572TIP3    H274208   4.498   2.885   3.864  0.6958  0.5056  0.5495
17573TIP3   OH274209   2.231   4.824  13.646 -0.0740 -0.4741  0.6012
17573TIP3    H174210   2.185   4.781  13.718  2.0068 -2.6121  0.7561
17573TIP3    H274211   2.265   4.905  13.684 -0.2219 -0.8778  1.6109
17574TIP3   OH274212   5.985   0.859  13.127  0.2221  0.1071  0.3206
17574TIP3    H174213   5.997   0.776  13.082  0.7114  0.8421 -0.9502
17574TIP3    H274214   6.070   0.876  13.169  0.2159  0.1235  0.3262
17575TIP3   OH274215   5.257   6.103  15.688  0.0435  0.2621 -0.0939
17575TIP3    H174216   5.268   6.009  15.675  0.5036  0.5137 -1.6963
17575TIP3    H274217   5.188   6.110  15.754 -0.4296 -1.1931 -0.4050
17576TIP3   OH274218   6.311   5.636   5.067 -0.1206  0.2116 -0.0070
17576TIP3    H174219   6.254   5.666   4.996  1.6651  0.0002 -1.6357
17576TIP3    H274220   6.350   5.716   5.102  0.6773  0.1902 -0.8077
17577TIP3   OH274221   1.074   2.721  12.357  0.0480  0.2326 -0.0822
17577TIP3    H174222   1.046   2.784  12.423 -1.1623 -0.5827  0.2087
17577TIP3    H274223   1.110   2.647  12.407  0.8636  0.4073 -0.3978
17578TIP3   OH274224   4.569   1.085  17.351 -0.1629  0.4220  0.4915
17578TIP3    H174225   4.479   1.076  17.320 -0.4045 -0.1872  1.3145
17578TIP3    H274226   4.611   1.003  17.324 -0.0260  0.4486  0.6239
17579TIP3   OH274227   2.571   3.372   1.899 -0.0486  0.2413 -0.6044
17579TIP3    H174228   2.502   3.434   1.877  0.0080  0.3071 -0.5955
17579TIP3    H274229   2.645   3.426   1.926 -0.1555  0.1589 -0.1459
17580TIP3   OH274230   3.905   1.395   4.979  0.7239 -0.3665 -0.5148
17580TIP3    H174231   3.920   1.315   5.031  2.1768 -1.0232 -1.8512
17580TIP3    H274232   3.914   1.366   4.888  1.0136  1.2822 -1.0357
17581TIP3   OH274233   6.072   6.369   2.969 -0.0138 -0.0536 -0.2430
17581TIP3    H174234   6.081   6.460   2.995  0.1500  0.0920 -0.7988
17581TIP3    H274235   6.100   6.367   2.878  2.4262 -1.1041  0.4438
17582TIP3   OH274236   3.446   4.163   5.146  0.4416 -0.0994  0.5586
17582TIP3    H174237   3.363   4.116   5.140 -0.7268  2.0187 -1.5819
17582TIP3    H274238   3.428   4.237   5.204  0.6588  0.6084 -0.2521
17583TIP3   OH274239   5.064   1.324  13.569  0.6033 -0.2233  0.1228
17583TIP3    H174240   5.081   1.362  13.483 -0.4830 -0.2134 -0.0944
17583TIP3    H274241   5.106   1.384  13.630  1.0097 -0.0011 -0.3678
17584TIP3   OH274242   5.251   0.691   5.971  0.2140 -0.0584  0.0395
17584TIP3    H174243   5.195   0.616   5.954  2.0612 -1.3395 -0.7091
17584TIP3    H274244   5.226   0.721   6.058 -1.3672 -0.7734 -0.1362
17585TIP3   OH274245   6.689   2.129  16.000 -0.3117  0.7592 -0.5674
17585TIP3    H174246   6.676   2.217  15.965  0.6599  1.3616  0.5032
17585TIP3    H274247   6.770   2.099  15.957  0.9235  1.5290  1.1089
17586TIP3   OH274248   2.689   4.638  15.428  0.6206  0.0399  0.0761
17586TIP3    H174249   2.670   4.572  15.361  1.3024  0.0645 -0.1509
17586TIP3    H274250   2.622   4.624  15.495 -1.1940  1.1305 -1.3837
17587TIP3   OH274251   5.196   3.062   6.403 -0.2592  0.3324  1.1420
17587TIP3    H174252   5.133   3.123   6.442 -1.1869 -0.2915  0.6398
17587TIP3    H274253   5.151   3.026   6.326  0.8073  0.0692  0.6184
17588TIP3   OH274254   6.503   6.173   0.080 -0.1449  0.1468 -0.1987
17588TIP3    H174255   6.534   6.264   0.080  2.1285 -0.5606 -1.3317
17588TIP3    H274256   6.449   6.166   0.002 -0.1030  0.4478 -0.2560
17589TIP3   OH274257   1.625   2.843  15.637 -0.2364 -0.5380 -0.2658
17589TIP3    H174258   1.609   2.934  15.613  1.6473 -0.5142 -1.6525
17589TIP3    H274259   1.553   2.821  15.695 -0.7214  1.8396  0.1490
17590TIP3   OH274260   6.128   6.422   2.689  0.2084 -0.1090  0.5823
17590TIP3    H174261   6.085   6.355   2.636 -0.0935 -0.5667  1.3968
17590TIP3    H274262   6.079   6.502   2.670 -0.0612 -0.3208  0.3743
17591TIP3   OH274263   4.811   0.202  11.714 -0.8053 -0.0557 -0.4286
17591TIP3    H174264   4.790   0.239  11.628  1.2624 -0.9436 -1.3917
17591TIP3    H274265   4.844   0.114  11.695  2.6642  0.7827  0.8855
17592TIP3   OH274266   1.869   2.289  11.369 -0.4495 -0.0501  0.2170
17592TIP3    H174267   1.900   2.320  11.454 -0.6989 -0.4985  0.4708
17592TIP3    H274268   1.902   2.199  11.363  0.4764  0.3149 -0.6164
17593TIP3   OH274269   3.954   1.780   5.997  0.4679  0.2772  0.6669
17593TIP3    H174270   3.993   1.752   6.080 -0.2025  0.2089  0.9656
17593TIP3    H274271   3.876   1.725   5.987  0.5820  0.2365 -0.0434
17594TIP3   OH274272   3.381   1.004   5.524  0.4640  0.0373  0.0223
17594TIP3    H174273   3.415   0.917   5.545  1.1265  0.2010 -0.3516
17594TIP3    H274274   3.431   1.032   5.447  2.1714  1.8307  1.6333
17595TIP3   OH274275   2.887   3.702  16.718 -0.6546  0.4464  0.3255
17595TIP3    H174276   2.815   3.755  16.752 -1.0016 -1.6030  3.1215
17595TIP3    H274277   2.845   3.643  16.654 -0.6953  1.7456 -0.9039
17596TIP3   OH274278   2.294   4.361  11.914 -0.1469 -1.2049 -0.4491
17596TIP3    H174279   2.247   4.444  11.901 -0.0781 -0.9874  0.6281
17596TIP3    H274280   2.366   4.364  11.851  1.0785  0.5000  0.9427
17597TIP3   OH274281   4.037   0.178   2.115  0.3392  0.1247  0.5654
17597TIP3    H174282   3.975   0.225   2.060 -0.2789 -0.8832  0.3591
17597TIP3    H274283   4.123   0.208   2.087  0.0943 -0.9665 -1.5878
17598TIP3   OH274284   0.024   6.740   3.290 -0.2966 -0.6747  0.1781
17598TIP3    H174285  -0.058   6.763   3.247 -0.5447  0.4737  1.2195
17598TIP3    H274286   0.091   6.786   3.240 -0.6512  1.2383  1.3757
17599TIP3   OH274287   6.285   5.802   5.652  0.3084 -0.0048 -0.2472
17599TIP3    H174288   6.286   5.717   5.696  0.0800 -0.8437 -1.7754
17599TIP3    H274289   6.321   5.863   5.716  0.1147 -1.1781  1.0263
17600TIP3   OH274290   5.750   3.307   1.476 -0.2013 -0.1434 -0.0303
17600TIP3    H174291   5.805   3.248   1.527 -0.1581 -1.5564 -1.6000
17600TIP3    H274292   5.660   3.282   1.498 -0.2003  0.1507  0.3203
17601TIP3   OH274293   6.384   1.833   1.309  0.0612 -0.4415 -0.0016
17601TIP3    H174294   6.475   1.862   1.316  0.1319 -0.6199 -0.1616
17601TIP3    H274295   6.376   1.801   1.219 -0.0593 -0.7555  0.1191
17602TIP3   OH274296   2.198   0.954   0.068 -0.7998 -0.0709  0.1559
17602TIP3    H174297   2.125   1.009   0.042 -0.9637  0.1880  1.1426
17602TIP3    H274298   2.160   0.868   0.084 -0.6467 -0.3196 -0.7353
17603TIP3   OH274299   4.605   5.520  14.601 -0.1501  0.0920  0.1105
17603TIP3    H174300   4.530   5.555  14.553  0.2215  0.1772 -0.4185
17603TIP3    H274301   4.609   5.571  14.681 -0.0693  0.7560 -0.3117
17604TIP3   OH274302   1.549   0.066  14.065 -0.0841 -0.4646  0.2528
17604TIP3    H174303   1.522  -0.023  14.045 -0.5266 -0.2237 -0.2625
17604TIP3    H274304   1.491   0.094  14.136  0.1423 -0.6287  0.5039
17605TIP3   OH274305   1.257   4.723   1.155 -0.3105  0.0868  0.0831
17605TIP3    H174306   1.204   4.659   1.107 -3.5256  2.0849  0.6115
17605TIP3    H274307   1.278   4.790   1.090 -0.3395  0.3652  0.3572
17606TIP3   OH274308   0.133   2.314  12.340 -0.8766 -0.2319 -0.1182
17606TIP3    H174309   0.071   2.283  12.405 -0.3151  0.8525  0.9599
17606TIP3    H274310   0.079   2.353  12.272 -1.5858 -2.9518 -1.2693
17607TIP3   OH274311   3.830   5.197  13.129  0.0197  0.2670  0.3593
17607TIP3    H174312   3.839   5.243  13.213 -0.7536  1.0089  0.0603
17607TIP3    H274313   3.893   5.240  13.072  0.9814 -0.6466  0.7118
17608TIP3   OH274314   3.109   3.931   4.837  0.2329  0.2778 -0.1182
17608TIP3    H174315   3.062   3.985   4.901 -0.3551  0.4452 -0.6789
17608TIP3    H274316   3.201   3.937   4.864 -0.0534 -0.0201  0.9683
17609TIP3   OH274317   4.500   0.728   0.216 -0.8647  0.0184  0.3041
17609TIP3    H174318   4.431   0.780   0.256 -2.1593 -0.0776 -1.6329
17609TIP3    H274319   4.582   0.772   0.240 -1.8368  2.2951 -0.3313
17610TIP3   OH274320   1.661   1.439   0.123  0.4867  0.0173  0.1711
17610TIP3    H174321   1.725   1.509   0.137  0.1300  0.0699  1.7396
17610TIP3    H274322   1.600   1.447   0.196 -0.8918 -0.5106 -0.8807
17611TIP3   OH274323   0.034   3.619   3.467 -0.4553  0.7132 -0.1222
17611TIP3    H174324  -0.025   3.575   3.407 -1.6970  1.6996  0.3314
17611TIP3    H274325  -0.023   3.670   3.525  0.7997  1.2441  0.7112
17612TIP3   OH274326   2.436   1.240   0.482  0.3432 -0.2474 -0.9030
17612TIP3    H174327   2.408   1.213   0.395  1.0700 -2.1082 -0.5884
17612TIP3    H274328   2.410   1.169   0.540  2.5335 -0.4359 -0.0706
17613TIP3   OH274329   3.742   4.149   6.805  0.1975  0.1710  0.1448
17613TIP3    H174330   3.684   4.218   6.835 -0.7354  0.0557 -1.3012
17613TIP3    H274331   3.787   4.186   6.729  0.0759 -0.6156 -0.3258
17614TIP3   OH274332   6.584   3.476   6.625  0.3624 -0.1709 -0.0807
17614TIP3    H174333   6.639   3.505   6.697  1.6661  0.7881 -1.3920
17614TIP3    H274334   6.646   3.447   6.558 -0.6878  1.0979 -1.6813
17615TIP3   OH274335   3.566   2.688  14.458  0.3634  0.8339  0.0548
17615TIP3    H174336   3.510   2.679  14.535 -1.5978  0.0999 -1.3922
17615TIP3    H274337   3.587   2.782  14.455 -0.6962  1.1078  0.7089
17616TIP3   OH274338   3.568   3.161   5.127 -1.1043  0.2983  0.3911
17616TIP3    H174339   3.481   3.130   5.102 -1.3815  0.5364  1.0513
17616TIP3    H274340   3.558   3.192   5.217 -0.2691  0.0404  0.5840
17617TIP3   OH274341   4.032   4.598   3.269 -0.2908 -0.3165  0.3117
17617TIP3    H174342   4.120   4.577   3.298 -0.1195 -0.6883 -0.4414
17617TIP3    H274343   3.986   4.514   3.268 -0.1350 -0.4132 -0.9614
17618TIP3   OH274344   0.235   0.935  13.233  0.4511  0.1153 -0.5651
17618TIP3    H174345   0.202   1.024  13.222 -2.6368 -0.5376  1.9486
17618TIP3    H274346   0.257   0.929  13.326  0.5785 -1.7796 -0.6787
17619TIP3   OH274347   6.692   4.040   1.583 -0.2999 -0.2771 -0.0830
17619TIP3    H174348   6.712   3.980   1.511 -0.6804  0.3586 -0.7271
17619TIP3    H274349   6.777   4.063   1.619 -0.0837 -0.3090 -0.5679
17620TIP3   OH274350   3.522   0.341   0.890 -0.3893  0.4561 -0.2788
17620TIP3    H174351   3.543   0.247   0.894  0.3931  0.6647  1.0422
17620TIP3    H274352   3.521   0.369   0.981 -1.3252  1.5986 -0.6149
17621TIP3   OH274353   4.874   4.588   3.012 -0.3366 -0.0838  0.7127
17621TIP3    H174354   4.801   4.649   2.997  0.2249  0.2534 -0.8466
17621TIP3    H274355   4.836   4.501   2.996 -0.0369  0.1916 -1.9296
17622TIP3   OH274356   2.146   5.946   5.616  0.2167 -0.4802 -0.0465
17622TIP3    H174357   2.190   6.012   5.670  0.0081  0.1508 -0.6283
17622TIP3    H274358   2.213   5.915   5.556  0.2760 -0.6989  0.1292
17623TIP3   OH274359   2.507   4.161  13.270  0.2431 -0.1335 -0.4676
17623TIP3    H174360   2.449   4.123  13.336 -1.2562 -0.5518 -1.9694
17623TIP3    H274361   2.569   4.091  13.250 -0.8950 -0.9045 -1.3445
17624TIP3   OH274362   0.461   0.839   5.345 -0.0608 -0.0784 -0.3711
17624TIP3    H174363   0.522   0.769   5.367 -1.1886 -0.9177  0.2447
17624TIP3    H274364   0.397   0.796   5.287 -1.5855  0.0209  1.1542
17625TIP3   OH274365   2.396   3.277   2.922 -0.5257 -0.8965 -0.1204
17625TIP3    H174366   2.336   3.301   2.993 -0.5002 -2.1378  0.3427
17625TIP3    H274367   2.340   3.272   2.844 -0.3954  1.4000 -0.4256
17626TIP3   OH274368   5.755   3.476   3.782 -0.2048 -0.0416 -0.6551
17626TIP3    H174369   5.732   3.513   3.697 -1.4234 -0.9744 -0.7579
17626TIP3    H274370   5.716   3.389   3.782  1.4884 -0.8480  0.0872
17627TIP3   OH274371   4.544   6.334   5.110 -0.4027 -0.1663  0.0419
17627TIP3    H174372   4.452   6.330   5.085 -0.4689 -0.8352  0.3573
17627TIP3    H274373   4.556   6.259   5.169  1.0449 -1.9812 -2.3636
17628TIP3   OH274374   2.670   4.028  12.960  0.0988  0.1307  0.0116
17628TIP3    H174375   2.677   3.938  12.992 -1.6450 -0.2913 -0.6605
17628TIP3    H274376   2.724   4.079  13.020  2.4447 -1.5520 -0.5148
17629TIP3   OH274377   3.998   3.337  14.332 -0.6083  0.7261  0.2715
17629TIP3    H174378   3.982   3.418  14.381 -1.5870  1.7652 -1.6605
17629TIP3    H274379   3.914   3.292  14.334 -1.0907  1.4666 -1.5814
17630TIP3   OH274380   1.094   4.099   5.621  0.6605  0.2681 -0.9661
17630TIP3    H174381   1.069   4.028   5.681 -0.3821  0.8397 -0.6891
17630TIP3    H274382   1.138   4.055   5.549  1.0652 -0.5424 -0.2512
17631TIP3   OH274383   5.416   4.095   2.247 -0.1335  0.0522 -0.1800
17631TIP3    H174384   5.413   4.005   2.212  1.5960 -0.8858  1.8803
17631TIP3    H274385   5.459   4.146   2.179 -0.3642 -0.8533 -1.0260
17632TIP3   OH274386   2.267   2.066  12.934  0.4501  0.1888  0.7019
17632TIP3    H174387   2.259   2.158  12.958  0.5057  0.6912 -1.0642
17632TIP3    H274388   2.178   2.033  12.933  0.3125  0.5535  0.2181
17633TIP3   OH274389   0.176   4.000   5.436  0.2617 -0.2780 -0.1282
17633TIP3    H174390   0.216   3.971   5.354  0.0981 -0.8380 -0.0167
17633TIP3    H274391   0.155   4.092   5.422  1.2220 -0.0740 -0.3338
17634TIP3   OH274392   6.641   1.232   3.879 -0.4676  0.0561 -0.5696
17634TIP3    H174393   6.671   1.237   3.970  1.0659 -0.1489 -1.0397
17634TIP3    H274394   6.659   1.319   3.843  1.0785 -0.5223 -1.2848
17635TIP3   OH274395   4.917   3.663  11.374  0.0715  0.3640  0.3741
17635TIP3    H174396   4.848   3.727  11.360 -0.0667  0.3955  1.1355
17635TIP3    H274397   4.972   3.701  11.443  1.8413  1.1270 -1.3526
17636TIP3   OH274398   5.274   1.629  11.379  0.4372  0.1305 -0.6897
17636TIP3    H174399   5.254   1.540  11.350  0.3220 -0.1830  0.3207
17636TIP3    H274400   5.236   1.685  11.311  0.1703 -0.5800 -1.1403
17637TIP3   OH274401   4.749   3.120   3.143  0.4889 -0.7458 -0.4006
17637TIP3    H174402   4.748   3.024   3.135 -0.1366 -0.7343 -0.4400
17637TIP3    H274403   4.674   3.141   3.197  0.4330 -0.2473 -0.6644
17638TIP3   OH274404   5.230   4.798   5.976 -0.5463  0.2511 -0.0617
17638TIP3    H174405   5.189   4.743   6.043 -0.3221 -0.7898 -0.7415
17638TIP3    H274406   5.244   4.738   5.903  3.1769  0.2526  0.5013
17639TIP3   OH274407   4.987   3.894  11.058  0.2340 -0.1702 -0.0162
17639TIP3    H174408   4.912   3.835  11.068  0.6495 -0.7238 -0.1071
17639TIP3    H274409   4.949   3.982  11.058 -0.4071 -0.4437 -0.0141
17640TIP3   OH274410   6.194   6.348  14.346 -0.3139 -0.5607  0.2928
17640TIP3    H174411   6.288   6.329  14.346  0.0976  1.2494 -0.7459
17640TIP3    H274412   6.177   6.385  14.432 -0.1360 -1.1302  0.5765
17641TIP3   OH274413   2.067   3.317   4.819  0.1351 -0.0998  0.0293
17641TIP3    H174414   2.051   3.224   4.807  0.5105 -0.2033  0.3398
17641TIP3    H274415   1.981   3.358   4.806  0.1876 -0.3614 -1.3161
17642TIP3   OH274416   1.896   1.810   4.653 -0.3579  0.3746  0.2321
17642TIP3    H174417   1.911   1.881   4.716  0.8286  0.5897 -0.2707
17642TIP3    H274418   1.825   1.842   4.597  0.1214  1.1529  0.0503
17643TIP3   OH274419   6.215   1.004   3.611 -0.3807 -0.2234 -0.0417
17643TIP3    H174420   6.256   1.086   3.639  0.4974 -0.9895  0.9846
17643TIP3    H274421   6.266   0.977   3.535  1.5476 -1.5085  1.6129
17644TIP3   OH274422   3.532   0.467   1.170 -0.0466 -0.1345  0.6514
17644TIP3    H174423   3.437   0.471   1.177 -0.1332  0.5496 -0.7788
17644TIP3    H274424   3.559   0.422   1.251 -1.5808 -0.5716  0.9621
17645TIP3   OH274425   3.615   0.085   2.863 -0.7968  0.4384 -0.6141
17645TIP3    H174426   3.678   0.022   2.898 -1.4741  0.8726  1.5863
17645TIP3    H274427   3.662   0.130   2.793  0.9200 -0.0785  0.1515
17646TIP3   OH274428   2.159   4.351   5.829  0.3197 -0.0453  0.4532
17646TIP3    H174429   2.237   4.385   5.873  0.9640  0.5309 -1.0504
17646TIP3    H274430   2.168   4.382   5.738 -0.5497 -1.8236 -0.2822
17647TIP3   OH274431   2.139   5.778   4.807 -0.4538 -0.0002  0.4951
17647TIP3    H174432   2.148   5.798   4.714  1.2006 -0.3880  0.5502
17647TIP3    H274433   2.051   5.741   4.815 -1.1855  1.4178 -0.6399
17648TIP3   OH274434   5.079   3.221   1.237 -0.0991  0.4289  0.3657
17648TIP3    H174435   5.065   3.311   1.267 -0.3841  1.0831 -1.5730
17648TIP3    H274436   5.172   3.205   1.252 -0.3706  0.3702  2.3258
17649TIP3   OH274437   2.432   0.449   2.208  0.3610  0.0711  0.2490
17649TIP3    H174438   2.417   0.407   2.123  2.0594  0.7581 -0.4306
17649TIP3    H274439   2.395   0.388   2.271  0.8887 -1.4464 -0.8471
17650TIP3   OH274440   6.519   5.675  12.575 -0.1995  0.2134 -0.3714
17650TIP3    H174441   6.461   5.751  12.569 -0.9510 -0.4007 -1.1328
17650TIP3    H274442   6.472   5.605  12.529 -0.1591 -1.1202  1.5234
17651TIP3   OH274443   3.847   0.336  13.771 -0.2060 -0.0730  0.5526
17651TIP3    H174444   3.904   0.355  13.846  0.8337 -0.0016 -0.2373
17651TIP3    H274445   3.763   0.376  13.794 -0.3220 -1.1931  2.2516
17652TIP3   OH274446   3.112   3.629  17.242 -0.3137 -0.0051 -0.1881
17652TIP3    H174447   3.054   3.673  17.180  0.1413 -1.3865 -1.6641
17652TIP3    H274448   3.193   3.615  17.194  0.3525 -0.3832  1.0009
17653TIP3   OH274449   2.242   5.109   0.661 -0.4068 -0.1704  0.1149
17653TIP3    H174450   2.320   5.084   0.612 -1.3805  0.6123 -1.9875
17653TIP3    H274451   2.265   5.193   0.701 -0.1217  0.0429 -0.4726
17654TIP3   OH274452   5.407   0.355   4.901  0.4101  0.4481  0.0859
17654TIP3    H174453   5.414   0.363   4.805  0.2146 -0.3473  0.0023
17654TIP3    H274454   5.317   0.379   4.921  0.5214  0.8707  0.1088
17655TIP3   OH274455   0.357   3.293   1.629 -0.6114 -0.4202  0.4302
17655TIP3    H174456   0.379   3.221   1.688 -0.8408 -0.7339  0.1294
17655TIP3    H274457   0.265   3.312   1.648 -0.2387  0.5828  1.3557
17656TIP3   OH274458   0.529   6.299  15.484 -0.5215 -0.8922 -0.4138
17656TIP3    H174459   0.496   6.342  15.563 -1.0030 -1.0185 -0.5476
17656TIP3    H274460   0.514   6.363  15.414  2.7618  0.5739  0.0455
17657TIP3   OH274461   6.622   0.902   5.269 -0.1812  0.3030  0.2980
17657TIP3    H174462   6.577   0.854   5.200  1.9087 -0.7497 -0.4216
17657TIP3    H274463   6.713   0.907   5.239  0.2731  2.0954  1.7910
17658TIP3   OH274464   6.615   0.342  10.378  0.1344 -0.0160  0.5597
17658TIP3    H174465   6.598   0.283  10.452  1.6839  1.9218  2.6040
17658TIP3    H274466   6.670   0.291  10.319 -0.9416 -1.5425  0.8333
17659TIP3   OH274467   0.888   0.240   0.485 -0.6623 -0.5480 -0.0855
17659TIP3    H174468   0.825   0.310   0.501 -0.6514 -0.8422  1.4481
17659TIP3    H274469   0.954   0.251   0.554  0.6738 -0.5815 -1.3151
17660TIP3   OH274470   6.341   6.306   4.029 -0.5963  0.2011  0.0927
17660TIP3    H174471   6.334   6.220   3.986 -0.3359 -0.0438  0.5318
17660TIP3    H274472   6.435   6.322   4.036 -0.6272  1.4876 -1.8453
17661TIP3   OH274473   6.082   5.979   4.173 -0.6250 -0.4679  0.0688
17661TIP3    H174474   6.101   6.071   4.192 -1.9881 -0.1423 -0.0215
17661TIP3    H274475   6.164   5.933   4.192  0.1755  0.7966 -0.1860
17662TIP3   OH274476   2.329   2.393   1.078  0.7039 -0.3688 -0.5361
17662TIP3    H174477   2.313   2.441   0.997 -1.5136 -0.6818 -0.3518
17662TIP3    H274478   2.359   2.460   1.140 -1.4579  0.6830 -0.5386
17663TIP3   OH274479   3.563   1.353  17.482 -0.3361  0.2059  0.1021
17663TIP3    H174480   3.579   1.261  17.464 -0.0569  0.1616  0.5287
17663TIP3    H274481   3.483   1.354  17.534 -0.9939  0.3108 -0.8877
17664TIP3   OH274482   4.542   2.029  16.201 -0.0243  0.1086 -0.0284
17664TIP3    H174483   4.487   2.052  16.126  1.6548  2.0489 -0.7350
17664TIP3    H274484   4.492   2.058  16.277 -0.0017  1.8909 -0.6567
17665TIP3   OH274485   0.683   6.625  13.280  0.3238 -0.0775  0.5383
17665TIP3    H174486   0.733   6.654  13.356  1.1002 -0.8108  0.3354
17665TIP3    H274487   0.739   6.559  13.239  0.2766  0.8510 -1.1086
17666TIP3   OH274488   4.253   6.035   2.482 -0.1282  0.3932  0.0455
17666TIP3    H174489   4.278   5.949   2.448  0.4075 -0.1569  1.7376
17666TIP3    H274490   4.178   6.017   2.539  0.8751  0.8235  1.5286
17667TIP3   OH274491   0.051   3.349  12.362 -0.5532  0.5664  0.4509
17667TIP3    H174492   0.099   3.333  12.443 -1.0785 -2.5768  0.2608
17667TIP3    H274493  -0.015   3.414  12.385  0.0172  0.5685  2.2204
17668TIP3   OH274494   3.022   3.949   3.687  0.0055 -1.0563  0.0137
17668TIP3    H174495   2.970   4.028   3.703 -0.3548 -0.8427 -1.9369
17668TIP3    H274496   2.967   3.878   3.719  0.1143 -0.5617  1.3285
17669TIP3   OH274497   5.560   2.171  16.208  0.4389 -0.6283  0.3193
17669TIP3    H174498   5.493   2.208  16.266  1.7745 -0.4366  1.8236
17669TIP3    H274499   5.553   2.221  16.127 -1.6019 -1.0168  0.2092
17670TIP3   OH274500   2.236   3.409   0.610 -0.2341 -0.0503 -0.0225
17670TIP3    H174501   2.205   3.410   0.519  0.9354 -0.7761 -0.4551
17670TIP3    H274502   2.222   3.319   0.639  0.4700 -0.1221  0.1171
17671TIP3   OH274503   3.166   4.811  12.957  0.4282 -0.2295  0.6593
17671TIP3    H174504   3.248   4.810  12.908 -0.9568  0.5749 -1.8392
17671TIP3    H274505   3.191   4.782  13.045  3.0128 -2.0269 -0.5259
17672TIP3   OH274506   2.289   4.261  12.253 -0.0421 -0.0945 -0.4821
17672TIP3    H174507   2.195   4.242  12.257 -0.3374  1.1085 -1.0742
17672TIP3    H274508   2.293   4.350  12.215  1.3173 -0.0161 -0.1784
17673TIP3   OH274509   5.918   1.371   5.376 -0.9396  0.2081  0.6102
17673TIP3    H174510   5.880   1.292   5.338 -2.2599  1.2859 -0.4786
17673TIP3    H274511   6.012   1.364   5.359 -1.2932 -0.1443 -1.4495
17674TIP3   OH274512   3.989   2.181   5.682  0.1540  0.2667  0.1539
17674TIP3    H174513   3.963   2.223   5.599 -0.1842  0.8636  0.5538
17674TIP3    H274514   4.010   2.254   5.740  0.7567 -0.1619  0.4798
17675TIP3   OH274515   0.563   1.559  16.977 -0.2262 -0.0378 -0.2160
17675TIP3    H174516   0.497   1.542  17.044 -0.0850 -0.1817 -0.1122
17675TIP3    H274517   0.646   1.534  17.018 -0.1936 -0.6166 -0.6239
17676TIP3   OH274518   2.072   2.459   5.434 -0.5376  0.0162  1.4338
17676TIP3    H174519   2.074   2.390   5.500 -2.0934 -1.2558  0.2433
17676TIP3    H274520   2.061   2.540   5.484 -2.3239 -0.9628  2.7546
17677TIP3   OH274521   1.008   4.164  13.335 -0.4097  0.5958  0.2628
17677TIP3    H174522   1.046   4.209  13.411 -0.3338 -0.5407  0.9250
17677TIP3    H274523   1.010   4.072  13.359  0.0318  0.1663 -1.3180
17678TIP3   OH274524   5.511   0.732  14.540 -0.4236 -0.2454 -0.8989
17678TIP3    H174525   5.553   0.807  14.500 -1.8686  1.5534  0.7335
17678TIP3    H274526   5.553   0.723  14.626  1.2913 -2.8062 -1.8820
17679TIP3   OH274527   0.567   0.982  12.474 -0.2361 -0.5982 -1.0204
17679TIP3    H174528   0.586   1.002  12.566 -1.0690 -1.2559 -0.6836
17679TIP3    H274529   0.603   1.056  12.425  0.2126 -0.2334 -0.1674
17680TIP3   OH274530   5.686   4.539   0.565 -0.0785 -0.2445  0.5850
17680TIP3    H174531   5.621   4.562   0.632 -1.5023 -0.6765 -0.5848
17680TIP3    H274532   5.681   4.611   0.502  3.6244  1.9265  2.4035
17681TIP3   OH274533   2.663   6.675   4.902 -0.3140  0.0305 -0.5324
17681TIP3    H174534   2.655   6.702   4.811  1.3262 -0.4200 -0.8459
17681TIP3    H274535   2.707   6.747   4.946  0.8591 -0.6268 -0.5928
17682TIP3   OH274536   2.771   2.841   5.368  0.1479  0.1766 -0.3017
17682TIP3    H174537   2.824   2.820   5.291  0.4459 -0.6738  0.1237
17682TIP3    H274538   2.698   2.892   5.334  0.7571  0.5842 -1.0226
17683TIP3   OH274539   5.086   1.118  14.487  0.3178  0.3502  0.3634
17683TIP3    H174540   5.175   1.084  14.484 -0.5195 -1.9701 -0.3212
17683TIP3    H274541   5.044   1.070  14.558 -0.8900 -0.0064 -0.5610
17684TIP3   OH274542   4.557   5.363  17.390 -0.1578  1.1076  0.0914
17684TIP3    H174543   4.466   5.349  17.365  0.1545 -1.1281 -0.0106
17684TIP3    H274544   4.559   5.451  17.425 -2.4601  1.0439  0.5308
17685TIP3   OH274545   0.451   2.953   3.911 -0.5250  0.0311  0.1259
17685TIP3    H174546   0.451   3.022   3.845  1.7582  0.8216  0.8866
17685TIP3    H274547   0.514   2.888   3.878 -0.3165 -0.1766  0.9095
17686TIP3   OH274548   5.934   0.059   1.190 -0.5659  0.2467  0.0835
17686TIP3    H174549   5.868   0.127   1.203 -0.0096  0.7039  0.5799
17686TIP3    H274550   5.896  -0.020   1.229 -0.5198  0.6779  1.0053
17687TIP3   OH274551   2.007   3.680   2.750 -0.0602  0.0567 -0.1099
17687TIP3    H174552   2.045   3.630   2.678 -1.9384  0.0285 -1.1427
17687TIP3    H274553   2.029   3.771   2.731 -1.1216  0.1257 -1.1487
17688TIP3   OH274554   6.404   5.541  15.680  0.2798  0.5654  0.0643
17688TIP3    H174555   6.469   5.536  15.610  0.5927 -1.3992  0.4361
17688TIP3    H274556   6.398   5.452  15.713 -1.7462  0.9392  0.8388
17689TIP3   OH274557   3.125   5.146  15.351  0.0040  0.5060  0.4200
17689TIP3    H174558   3.090   5.091  15.420 -1.2335 -1.0518 -1.3677
17689TIP3    H274559   3.075   5.123  15.273  1.4470  2.0644 -1.0659
17690TIP3   OH274560   5.318   3.959   1.295 -0.1600  0.4718  0.0881
17690TIP3    H174561   5.228   3.982   1.318 -0.3542 -0.6591  0.4945
17690TIP3    H274562   5.319   3.959   1.199 -1.1659 -1.5610  0.0368
17691TIP3   OH274563   1.346   1.415  10.462 -0.0765 -0.6038  0.7330
17691TIP3    H174564   1.394   1.333  10.478  2.0613  0.5088  0.3989
17691TIP3    H274565   1.374   1.472  10.534  0.6265  0.6998 -0.5347
17692TIP3   OH274566   6.656   4.065  11.604  0.0006  0.3705  0.2407
17692TIP3    H174567   6.639   4.106  11.519 -1.0332 -0.9552 -0.2422
17692TIP3    H274568   6.715   3.992  11.584  1.8095  1.5545  1.0788
17693TIP3   OH274569   0.558   4.466  11.687  0.3070 -0.4644  0.9823
17693TIP3    H174570   0.469   4.436  11.667  0.6144 -0.2893 -0.7848
17693TIP3    H274571   0.572   4.438  11.778 -1.8699  0.3141  1.6444
17694TIP3   OH274572   3.604   5.510  17.143 -0.1011 -0.5669 -0.4653
17694TIP3    H174573   3.533   5.459  17.103 -0.5868 -0.3570  0.0991
17694TIP3    H274574   3.641   5.451  17.209 -0.0555 -0.5143 -0.4443
17695TIP3   OH274575   5.863   3.110   0.332 -0.2340 -0.7138 -0.2613
17695TIP3    H174576   5.813   3.131   0.253 -0.2300 -1.2282 -0.4067
17695TIP3    H274577   5.947   3.078   0.299 -0.2856 -1.0715 -0.0596
17696TIP3   OH274578   4.961   1.764  16.462  0.1112  0.1706  0.5822
17696TIP3    H174579   4.880   1.774  16.412  0.6388 -0.1031 -0.3601
17696TIP3    H274580   4.934   1.717  16.542 -0.9601  1.7620  1.1982
17697TIP3   OH274581   0.735   0.928   4.214 -0.3047 -0.2832 -0.2145
17697TIP3    H174582   0.677   0.968   4.279 -0.1828  0.3035 -0.4564
17697TIP3    H274583   0.723   0.982   4.136  0.8594  0.0869 -0.1529
17698TIP3   OH274584   5.756   5.106   1.023 -0.5708 -0.7289  0.6018
17698TIP3    H174585   5.816   5.174   0.992 -0.0200 -1.0000  1.0490
17698TIP3    H274586   5.733   5.057   0.945 -0.9733 -0.0305  0.2736
17699TIP3   OH274587   4.773   1.677   5.435  0.5845 -0.4967 -0.3540
17699TIP3    H174588   4.677   1.676   5.426  0.5101 -1.9484  0.2807
17699TIP3    H274589   4.802   1.747   5.377 -0.7268 -1.4094 -2.2026
17700TIP3   OH274590   3.038   1.720  17.078  0.9432 -0.4630 -0.6130
17700TIP3    H174591   2.985   1.787  17.122  1.8344 -0.2307  0.1343
17700TIP3    H274592   3.124   1.761  17.068  0.9694 -0.7914 -1.9208
17701TIP3   OH274593   3.695   2.371   6.142 -0.3006  0.2599 -0.9047
17701TIP3    H174594   3.602   2.389   6.133 -0.5743 -1.1925 -1.1840
17701TIP3    H274595   3.729   2.376   6.053 -0.5794 -1.4969 -1.1452
17702TIP3   OH274596   2.855   4.605   2.910  0.2610 -0.4712  0.1828
17702TIP3    H174597   2.862   4.512   2.932 -3.5393 -1.4857 -2.0049
17702TIP3    H274598   2.766   4.629   2.935 -0.0620  1.5859 -2.4688
17703TIP3   OH274599   2.605   2.876   3.504  0.4355  0.3759  0.3966
17703TIP3    H174600   2.661   2.951   3.485  1.5377 -0.5483 -0.0934
17703TIP3    H274601   2.629   2.850   3.593  0.1374  0.5377  0.5235
17704TIP3   OH274602   2.333   1.851  12.763  0.3213 -0.0306 -0.4020
17704TIP3    H174603   2.281   1.779  12.799  1.9786 -1.6262 -1.0343
17704TIP3    H274604   2.363   1.900  12.839 -2.2932  1.1724 -0.0243
17705TIP3   OH274605   0.295   0.588   0.980  0.2801 -0.5910  0.2996
17705TIP3    H174606   0.243   0.551   1.052 -0.1927  1.1081  0.8756
17705TIP3    H274607   0.334   0.511   0.938 -2.7540 -1.9823 -0.2646
17706TIP3   OH274608   5.345   3.544   5.592  0.2075  0.0176 -0.1243
17706TIP3    H174609   5.413   3.512   5.651 -0.1211 -1.8154 -0.6515
17706TIP3    H274610   5.263   3.530   5.640 -0.0028 -0.7727 -0.6735
17707TIP3   OH274611   4.772   5.479   3.602 -0.0236 -0.0898  0.2940
17707TIP3    H174612   4.736   5.467   3.515  0.2482 -0.7073  0.2616
17707TIP3    H274613   4.848   5.420   3.605  0.8197  0.9652  0.4505
17708TIP3   OH274614   6.127   2.737   5.203 -0.3859 -0.0248 -0.1546
17708TIP3    H174615   6.112   2.715   5.295  2.2326  0.4598  0.4721
17708TIP3    H274616   6.102   2.829   5.196 -2.5354 -0.5999 -0.4773
17709TIP3   OH274617   4.262   2.568   1.454  0.3756 -0.4397 -0.1632
17709TIP3    H174618   4.287   2.493   1.400  1.4935 -2.2494  2.5798
17709TIP3    H274619   4.345   2.612   1.474  0.1558 -0.4095  0.7629
17710TIP3   OH274620   5.550   1.133   4.172  0.4480 -0.1671  0.0513
17710TIP3    H174621   5.556   1.195   4.099 -1.9382 -0.6090 -0.6008
17710TIP3    H274622   5.638   1.097   4.180  1.0709  0.8146 -1.7884
17711TIP3   OH274623   4.975   1.020  16.837 -0.3038  0.0468 -0.5814
17711TIP3    H174624   4.990   0.926  16.848 -1.2767 -0.0410  0.1694
17711TIP3    H274625   4.937   1.048  16.920 -0.2498  1.0611 -0.8848
17712TIP3   OH274626   0.509   4.453  15.882 -0.3979  0.3296  0.1018
17712TIP3    H174627   0.437   4.423  15.937 -1.0837 -4.1009 -2.6429
17712TIP3    H274628   0.472   4.456  15.793  2.4299 -1.2275 -1.2985
17713TIP3   OH274629   5.656   3.662  11.501  0.2856  0.2414 -0.5597
17713TIP3    H174630   5.580   3.719  11.498  0.7149  0.8036 -1.4105
17713TIP3    H274631   5.632   3.587  11.446  0.0174 -0.0076 -0.1010
17714TIP3   OH274632   1.714   2.232  16.709 -0.9565 -0.3513 -0.0733
17714TIP3    H174633   1.656   2.256  16.637 -0.1185  0.2540 -0.5646
17714TIP3    H274634   1.656   2.226  16.785 -1.6393  0.4463 -0.5048
17715TIP3   OH274635   1.192   3.594  16.873  0.4217 -0.4021  0.2889
17715TIP3    H174636   1.276   3.559  16.844  0.2821 -3.0838  2.7008
17715TIP3    H274637   1.215   3.674  16.921  1.1314  0.8933 -1.9999
17716TIP3   OH274638   1.717   5.202   2.783  0.4631  0.2545  0.6683
17716TIP3    H174639   1.706   5.118   2.827 -0.0393  0.7139  1.4407
17716TIP3    H274640   1.769   5.182   2.705 -0.6953 -0.9897  0.1666
17717TIP3   OH274641   0.764   0.629   2.301 -0.3870  0.5265  0.3241
17717TIP3    H174642   0.777   0.538   2.275  0.6827  1.4253 -2.7341
17717TIP3    H274643   0.724   0.624   2.388  0.0821 -2.8138  0.4706
17718TIP3   OH274644   3.943   0.570   4.337 -0.3924  0.2510 -0.6709
17718TIP3    H174645   3.882   0.563   4.264 -0.5087  0.6469 -0.6170
17718TIP3    H274646   3.890   0.602   4.410 -0.0977  0.7366 -0.6619
17719TIP3   OH274647   0.284   3.864  11.334 -0.0133  0.0412  0.9903
17719TIP3    H174648   0.315   3.914  11.258  1.3584  1.0003  2.1143
17719TIP3    H274649   0.239   3.789  11.297  1.3407  0.0402 -0.7844
17720TIP3   OH274650   3.323   1.727  11.482 -0.3389  0.1341  0.4049
17720TIP3    H174651   3.250   1.788  11.479 -0.0910  0.3828 -0.8769
17720TIP3    H274652   3.320   1.681  11.398  0.5696 -0.3413  0.6159
17721TIP3   OH274653   4.010   2.982  15.848  0.1833 -0.3440  0.2536
17721TIP3    H174654   4.065   2.958  15.922 -0.4018 -0.6225  0.6130
17721TIP3    H274655   4.033   2.920  15.780  1.0365  0.1910  0.0482
17722TIP3   OH274656   4.487   2.311   5.733 -0.2083 -0.0601  0.6698
17722TIP3    H174657   4.426   2.240   5.714  0.7990 -0.5135 -1.0309
17722TIP3    H274658   4.453   2.386   5.684 -0.4434  0.2427  1.2775
17723TIP3   OH274659   6.031   5.149   4.460 -0.5361  1.0069  0.4102
17723TIP3    H174660   6.003   5.104   4.380 -0.0584  1.7440 -0.1865
17723TIP3    H274661   5.954   5.149   4.516 -0.8320  0.3452  0.0136
17724TIP3   OH274662   5.499   0.801   2.522  0.5795  0.1025 -0.4508
17724TIP3    H174663   5.470   0.845   2.602  1.0891  3.7001 -2.0397
17724TIP3    H274664   5.439   0.727   2.512 -2.7064  2.3788  0.7291
17725TIP3   OH274665   0.387   2.244  13.737 -0.3541 -0.0376 -0.4847
17725TIP3    H174666   0.305   2.293  13.745 -1.6885 -2.3056  0.9186
17725TIP3    H274667   0.435   2.289  13.668 -1.5367  3.0488  0.5329
17726TIP3   OH274668   2.530   4.667   2.990  0.6472 -0.1275 -1.0253
17726TIP3    H174669   2.436   4.679   3.004  0.5078  1.4730 -2.9155
17726TIP3    H274670   2.537   4.583   2.946 -0.1523  0.5673 -2.5781
17727TIP3   OH274671   1.431   2.105  14.601 -0.2321 -0.1608  0.5774
17727TIP3    H174672   1.478   2.069  14.676  2.6425  0.7329 -0.6802
17727TIP3    H274673   1.384   2.030  14.564 -0.0497 -1.0376  2.0430
17728TIP3   OH274674   1.748   3.224   1.497  0.0956 -0.2448  0.2216
17728TIP3    H174675   1.750   3.147   1.554  0.5998 -1.1544 -0.9726
17728TIP3    H274676   1.836   3.262   1.504 -0.5414  1.0170  1.8139
17729TIP3   OH274677   0.718   1.515   5.678 -0.3766  0.3150 -0.0250
17729TIP3    H174678   0.805   1.554   5.671 -0.8167  1.1939 -0.7411
17729TIP3    H274679   0.659   1.589   5.688 -1.2423 -0.1501 -1.4435
17730TIP3   OH274680   1.446   0.454   5.548  0.2147 -0.0813 -0.0330
17730TIP3    H174681   1.448   0.359   5.533  1.7510  0.2666 -2.6437
17730TIP3    H274682   1.538   0.481   5.543 -0.2799  1.6663 -0.3290
17731TIP3   OH274683   5.596   4.387  14.792 -0.3819  1.0280 -0.1909
17731TIP3    H174684   5.632   4.299  14.781  0.1632  1.3037 -0.6599
17731TIP3    H274685   5.623   4.434  14.713 -0.6401  1.6250  0.0722
17732TIP3   OH274686   2.179   4.573  16.061 -0.4343 -0.1247  0.3978
17732TIP3    H174687   2.268   4.568  16.097 -0.3214  1.1173  0.3219
17732TIP3    H274688   2.129   4.510  16.112  0.3835 -0.4967  0.7623
17733TIP3   OH274689   3.772   2.827   2.430 -0.3637  0.5083 -0.2558
17733TIP3    H174690   3.777   2.875   2.513 -0.7622  1.5700 -0.8150
17733TIP3    H274691   3.795   2.737   2.452  1.1996  1.1033  0.7102
17734TIP3   OH274692   5.303   3.194   2.734  0.6755  0.2246 -0.2579
17734TIP3    H174693   5.254   3.229   2.660  0.9119  0.5996 -0.2383
17734TIP3    H274694   5.305   3.100   2.719  1.2279  0.3567 -1.0310
17735TIP3   OH274695   6.569   2.131  13.130 -0.1207  0.2922 -0.0052
17735TIP3    H174696   6.546   2.123  13.222  2.0745  1.7543  0.7403
17735TIP3    H274697   6.488   2.109  13.083 -1.3509 -0.2407  2.2362
17736TIP3   OH274698   0.392   2.988   5.214  0.1143  0.5315 -0.0948
17736TIP3    H174699   0.473   3.037   5.226  0.6175 -0.3986  0.3710
17736TIP3    H274700   0.334   3.049   5.168  1.1637  1.1094 -0.6835
17737TIP3   OH274701   6.059   4.507  10.695  0.3608  0.8519  0.3660
17737TIP3    H174702   5.988   4.470  10.642  0.9282  0.1950  0.0631
17737TIP3    H274703   6.031   4.597  10.711  0.2307  1.1301 -1.1887
17738TIP3   OH274704   0.304   3.774  14.743 -0.7196 -0.0490  0.3380
17738TIP3    H174705   0.237   3.740  14.802  0.2762 -1.9579  0.4699
17738TIP3    H274706   0.379   3.792  14.800 -0.7346  0.9836  0.0439
17739TIP3   OH274707   2.692   3.546  17.441  0.1041 -0.0066  0.2775
17739TIP3    H174708   2.786   3.532  17.425  1.0279  3.6724  1.6387
17739TIP3    H274709   2.688   3.597  17.521 -2.9017  2.0002 -0.9610
17740TIP3   OH274710   0.433   1.712   3.437 -0.0667 -0.2759  0.3240
17740TIP3    H174711   0.455   1.771   3.365  1.8838 -0.0184  1.0679
17740TIP3    H274712   0.409   1.629   3.395 -0.5628  0.3400 -0.6427
17741TIP3   OH274713   6.183   5.622  16.338  0.1599 -0.0874  0.1458
17741TIP3    H174714   6.218   5.711  16.342  0.8258 -0.3045 -0.6452
17741TIP3    H274715   6.182   5.592  16.429  0.2695  0.6003  0.3726
17742TIP3   OH274716   3.015   4.731   2.479  0.0529 -0.1080  0.2668
17742TIP3    H174717   2.944   4.787   2.446  0.6211  0.5740  0.1805
17742TIP3    H274718   3.050   4.688   2.400  1.4316  1.5462 -0.0794
17743TIP3   OH274719   4.273   2.619  11.693  0.7845 -0.2811  0.0080
17743TIP3    H174720   4.306   2.552  11.753  3.0794 -0.4735 -1.3227
17743TIP3    H274721   4.288   2.581  11.606  1.6443  1.7313 -0.7660
17744TIP3   OH274722   2.056   1.620   0.667 -0.4235 -0.8106  0.0175
17744TIP3    H174723   1.987   1.658   0.612  0.5194 -0.8774 -1.2690
17744TIP3    H274724   2.031   1.528   0.676  0.6120 -1.4121 -2.4040
17745TIP3   OH274725   5.155   1.681   2.013 -0.4478  0.0888 -0.8016
17745TIP3    H174726   5.072   1.710   2.050 -0.1919  1.2071 -1.0703
17745TIP3    H274727   5.155   1.716   1.923  0.1737 -0.1680 -0.9078
17746TIP3   OH274728   2.782   5.702   7.128  1.2589  0.2407  0.2200
17746TIP3    H174729   2.750   5.619   7.093  3.7305 -0.7672  0.1927
17746TIP3    H274730   2.863   5.719   7.080  1.0562  2.4547  0.5594
17747TIP3   OH274731   5.442   6.397   1.594  0.7572 -0.8808 -0.1041
17747TIP3    H174732   5.512   6.459   1.580  0.2695  0.0717  1.4505
17747TIP3    H274733   5.479   6.332   1.654  0.4024 -0.5106  0.5251
17748TIP3   OH274734   0.625   0.368  13.395  0.0678  0.2392 -0.1110
17748TIP3    H174735   0.691   0.350  13.328 -0.7959  0.1560 -0.9662
17748TIP3    H274736   0.541   0.356  13.350 -0.5377  1.1169  0.7338
17749TIP3   OH274737   3.223   1.214   3.429  0.2795 -0.0428  0.3368
17749TIP3    H174738   3.165   1.262   3.369 -0.2530  0.5709  1.3152
17749TIP3    H274739   3.165   1.152   3.473  0.4665  0.2098  0.9415
17750TIP3   OH274740   1.510   0.154   0.790 -0.1010  0.4511 -0.3070
17750TIP3    H174741   1.552   0.090   0.733  0.3774 -0.5380  1.0986
17750TIP3    H274742   1.416   0.146   0.771 -0.0311 -0.5516 -0.2799
17751TIP3   OH274743   5.248   6.183  16.739 -0.0805 -0.0080  0.1363
17751TIP3    H174744   5.301   6.123  16.687  0.8632  0.9199 -0.0136
17751TIP3    H274745   5.158   6.162  16.716  0.1483 -2.0642  0.8571
17752TIP3   OH274746   2.842   4.966   3.588  0.1652 -0.1798  0.4070
17752TIP3    H174747   2.795   4.956   3.670 -0.4201 -0.6580  0.0296
17752TIP3    H274748   2.909   5.032   3.605 -2.6640  3.0743  0.1197
17753TIP3   OH274749   1.823   5.826   0.217  0.5834  0.0939  0.2688
17753TIP3    H174750   1.880   5.887   0.170  1.3985 -0.1798  0.8688
17753TIP3    H274751   1.884   5.770   0.266 -0.1007 -1.5343 -0.6623
17754TIP3   OH274752   0.452   2.110  15.960 -0.1413  0.1201  0.1345
17754TIP3    H174753   0.536   2.131  16.001  0.6124 -1.3914 -0.5457
17754TIP3    H274754   0.466   2.128  15.867 -0.9362  0.8647  0.1403
17755TIP3   OH274755   0.637   4.698   4.759 -0.1297  0.1835  0.0765
17755TIP3    H174756   0.731   4.687   4.748 -0.2397 -0.1775 -0.5255
17755TIP3    H274757   0.598   4.626   4.710 -0.7901  2.0062 -2.2285
17756TIP3   OH274758   4.812   5.982  15.069  0.3203 -0.6129  0.0898
17756TIP3    H174759   4.902   6.006  15.048  1.0761 -0.1762  3.3126
17756TIP3    H274760   4.771   6.065  15.096 -0.4235 -1.1507  0.6452
17757TIP3   OH274761   4.369   2.843   5.234 -0.4741  0.1972 -0.1785
17757TIP3    H174762   4.425   2.773   5.199 -1.6347  0.3832 -2.5919
17757TIP3    H274763   4.296   2.796   5.275 -0.6167 -0.0252 -0.6765
17758TIP3   OH274764   4.542   1.356   4.986  0.6805  0.4640 -0.2059
17758TIP3    H174765   4.578   1.281   5.034  0.9165  0.3718 -0.5226
17758TIP3    H274766   4.449   1.335   4.975  0.5315  0.6817  0.5771
17759TIP3   OH274767   6.295   0.892  16.341 -0.3123 -0.9879  0.0340
17759TIP3    H174768   6.343   0.962  16.386 -0.8725 -1.0109  0.6870
17759TIP3    H274769   6.210   0.930  16.320  0.2452 -0.6874 -1.8501
17760TIP3   OH274770   0.261   4.838  12.489 -0.2220  0.4575  0.4114
17760TIP3    H174771   0.221   4.901  12.429 -1.5970 -1.2988 -0.6351
17760TIP3    H274772   0.297   4.770  12.432  0.1826 -0.2881  1.5173
17761TIP3   OH274773   1.945   5.341  14.012 -0.0318  0.1903  0.1445
17761TIP3    H174774   1.999   5.348  13.933  1.5543 -1.5758  0.9912
17761TIP3    H274775   1.883   5.414  14.005  0.9063  0.8750 -2.0583
17762TIP3   OH274776   3.186   1.501  13.737  0.1261  0.1427 -0.5281
17762TIP3    H174777   3.271   1.524  13.775 -0.1316  1.1386 -0.5378
17762TIP3    H274778   3.150   1.584  13.706 -0.6674 -0.3320 -0.9087
17763TIP3   OH274779   2.407   3.337  16.249 -0.8769 -0.1953 -0.2352
17763TIP3    H174780   2.501   3.318  16.241 -1.0931 -0.6785 -2.0207
17763TIP3    H274781   2.381   3.293  16.330  0.6500  0.9731  0.9727
17764TIP3   OH274782   2.479   0.521   4.842 -0.3113 -0.0466 -0.8423
17764TIP3    H174783   2.501   0.472   4.763 -0.1080  0.3103 -1.0113
17764TIP3    H274784   2.385   0.506   4.854 -0.7378  1.3014 -2.1564
17765TIP3   OH274785   3.202   0.108   1.021 -0.1058 -0.2722  0.3011
17765TIP3    H174786   3.193   0.040   0.954 -1.3639  0.7992 -0.6695
17765TIP3    H274787   3.213   0.189   0.971 -2.2881  0.7268  1.3366
17766TIP3   OH274788   5.726   6.513  13.304 -0.2753  0.0788  0.0685
17766TIP3    H174789   5.820   6.527  13.315 -0.4136  1.0618  0.0512
17766TIP3    H274790   5.685   6.570  13.369 -0.8584 -0.8110  0.5076
17767TIP3   OH274791   0.692   4.410   2.327 -0.3758 -0.3601  0.1084
17767TIP3    H174792   0.766   4.447   2.374 -0.6182  0.7953 -0.3928
17767TIP3    H274793   0.619   4.468   2.347 -1.0407 -1.2052  0.1985
17768TIP3   OH274794   5.641   5.005  16.496 -0.1979  0.1165 -0.1890
17768TIP3    H174795   5.558   5.050  16.482 -0.3677  0.1696  0.8693
17768TIP3    H274796   5.676   4.991  16.409 -1.1991  0.3212 -0.6398
17769TIP3   OH274797   6.533   6.703   6.485  0.3056  0.0952 -0.1806
17769TIP3    H174798   6.589   6.757   6.541  0.9217 -1.5446  0.8284
17769TIP3    H274799   6.532   6.617   6.526 -0.6595 -0.6979 -1.7460
17770TIP3   OH274800   3.848   6.530  15.318 -0.4113 -0.3391  0.1744
17770TIP3    H174801   3.814   6.619  15.321 -1.6427 -0.8076  1.9298
17770TIP3    H274802   3.776   6.478  15.282 -0.3296 -0.8529  0.7393
17771TIP3   OH274803   2.436   6.439  15.232  0.3598  0.2417 -0.2160
17771TIP3    H174804   2.446   6.533  15.218  0.0801  0.2413 -0.4106
17771TIP3    H274805   2.482   6.422  15.315 -0.2459  0.6825  0.2217
17772TIP3   OH274806   0.387   2.761  15.667  0.3158  0.7508  0.3473
17772TIP3    H174807   0.442   2.689  15.698 -0.5684 -0.1446 -0.1091
17772TIP3    H274808   0.424   2.784  15.582  0.5132  0.7364  0.4281
17773TIP3   OH274809   5.126   3.267   2.972 -0.7460 -0.1464 -0.4073
17773TIP3    H174810   5.170   3.231   2.895 -0.1258 -0.8152  0.2380
17773TIP3    H274811   5.129   3.362   2.959  4.2087  0.2255  1.2208
17774TIP3   OH274812   3.385   4.832   6.083 -0.6440 -0.1869 -0.2865
17774TIP3    H174813   3.469   4.845   6.128  0.6113  0.2257 -2.6008
17774TIP3    H274814   3.345   4.758   6.129  0.3337  0.4412  1.7335
17775TIP3   OH274815   6.705   5.770  17.084  0.0159  0.6924 -0.1127
17775TIP3    H174816   6.693   5.841  17.147  1.0859 -0.1692  1.1079
17775TIP3    H274817   6.717   5.692  17.137  3.0843  0.2233 -1.2711
17776TIP3   OH274818   4.910   5.631  14.666 -0.0687 -0.6581  0.4456
17776TIP3    H174819   4.856   5.708  14.646 -0.3418 -0.4659  1.8489
17776TIP3    H274820   4.992   5.647  14.620  0.2182  0.9152  1.4438
17777TIP3   OH274821   5.886   6.487   5.361  0.4317 -0.0235 -0.3580
17777TIP3    H174822   5.929   6.442   5.288  0.8023 -0.0579 -0.1195
17777TIP3    H274823   5.927   6.573   5.364  0.0240  0.1832 -0.5401
17778TIP3   OH274824   0.524   4.084   6.602  0.3425  0.4130  0.2655
17778TIP3    H174825   0.494   4.175   6.611 -1.3441 -0.1099  0.2872
17778TIP3    H274826   0.448   4.032   6.627  0.8048 -1.0109 -1.1632
17779TIP3   OH274827   6.084   5.553  12.575 -0.0239 -0.3834 -0.0769
17779TIP3    H174828   6.108   5.483  12.635  0.4512  0.0321  0.2224
17779TIP3    H274829   6.166   5.579  12.534 -0.5335 -1.7452 -2.1304
17780TIP3   OH274830   1.712   4.894   1.310  0.4908  0.2299 -0.0834
17780TIP3    H174831   1.663   4.824   1.352  4.3595 -1.5385  2.0686
17780TIP3    H274832   1.684   4.973   1.354  0.5213 -0.8997  2.0807
17781TIP3   OH274833   3.266   1.302  17.332 -0.2382 -0.2678  0.0838
17781TIP3    H174834   3.234   1.335  17.416  3.2503  0.0469  1.4459
17781TIP3    H274835   3.221   1.356  17.267  1.2567  3.6945  2.0161
17782TIP3   OH274836   6.281   2.253   4.569 -0.2753 -0.8373 -0.2998
17782TIP3    H174837   6.375   2.268   4.557 -0.4958  0.5810 -0.4556
17782TIP3    H274838   6.251   2.221   4.484  0.2638 -2.5616  0.1171
17783TIP3   OH274839   4.750   0.422   2.982  0.6839  0.2350 -0.2579
17783TIP3    H174840   4.667   0.436   2.936  0.3876 -2.5939 -0.7723
17783TIP3    H274841   4.724   0.402   3.072  0.2252 -4.9860 -1.2707
17784TIP3   OH274842   5.789   6.384   2.835 -0.0007 -0.6989 -0.0129
17784TIP3    H174843   5.716   6.334   2.800  1.3109 -1.9778 -1.0178
17784TIP3    H274844   5.802   6.348   2.923 -0.9659  0.0009  0.4414
17785TIP3   OH274845   0.580   3.790   0.616 -0.2583  0.2680 -0.3941
17785TIP3    H174846   0.496   3.795   0.662 -0.1111 -0.0212 -0.0924
17785TIP3    H274847   0.557   3.766   0.526 -0.4585 -0.3627 -0.1772
17786TIP3   OH274848   6.426   0.359   4.320  0.6633 -0.0405  0.1578
17786TIP3    H174849   6.380   0.292   4.369  2.5278 -0.7368  1.0621
17786TIP3    H274850   6.404   0.441   4.364  0.0467 -0.3131  0.3608
17787TIP3   OH274851   5.475   0.427   3.060  0.4758  0.2325 -0.4639
17787TIP3    H174852   5.395   0.375   3.058  0.3769  0.3857 -0.4456
17787TIP3    H274853   5.513   0.410   3.146  0.6005 -0.0475 -0.5703
17788TIP3   OH274854   2.692   6.338   0.113 -0.3718  0.2821 -0.5757
17788TIP3    H174855   2.625   6.272   0.101  0.0602 -0.2959  0.1247
17788TIP3    H274856   2.774   6.293   0.095  0.1751 -0.1608  2.4506
17789TIP3   OH274857   3.231   3.108   2.351  0.3453 -0.0932  0.3331
17789TIP3    H174858   3.194   3.180   2.403  1.8634  0.9146  0.0673
17789TIP3    H274859   3.325   3.127   2.348  0.3295 -0.0612 -2.8333
17790TIP3   OH274860   2.858   2.006  12.123 -0.6417 -0.1143  0.5007
17790TIP3    H174861   2.865   2.094  12.161  0.2990  0.5959 -1.1566
17790TIP3    H274862   2.765   1.993  12.107 -0.8091  0.4977  0.9687
17791TIP3   OH274863   5.298   6.497  14.833  0.1697  0.5954  0.6615
17791TIP3    H174864   5.315   6.501  14.739  1.1953  1.1052  0.8615
17791TIP3    H274865   5.218   6.444  14.840 -0.8352  1.8596 -0.5897
17792TIP3   OH274866   1.844   4.048  16.018 -0.3604 -0.1516 -0.2130
17792TIP3    H174867   1.905   3.975  16.029  1.1891  1.3191  1.5190
17792TIP3    H274868   1.763   4.007  15.988  1.2292 -2.2564 -1.9299
17793TIP3   OH274869   0.890   2.069   5.089  0.0910 -0.2431  0.5181
17793TIP3    H174870   0.915   2.145   5.037 -1.1992  0.5978  1.0530
17793TIP3    H274871   0.931   1.995   5.045 -0.0482  0.5591 -1.0360
17794TIP3   OH274872   3.051   6.709   6.938 -0.0056 -0.2991 -0.2530
17794TIP3    H174873   3.032   6.628   6.892 -0.9256 -0.3311  0.1673
17794TIP3    H274874   2.972   6.728   6.989 -0.9981  2.3511 -2.4935
17795TIP3   OH274875   5.390   5.810  13.601 -0.2739  0.2819 -0.0473
17795TIP3    H174876   5.475   5.769  13.617 -0.5878  0.2435  1.7865
17795TIP3    H274877   5.401   5.856  13.518  1.0370 -0.9908 -0.6337
17796TIP3   OH274878   5.526   2.700  14.096 -0.0025 -0.4675 -0.0191
17796TIP3    H174879   5.430   2.701  14.104  0.0724  1.3021  1.3795
17796TIP3    H274880   5.549   2.792  14.081  1.4055 -1.0674 -1.9105
17797TIP3   OH274881   2.032   1.883  12.405  0.3739 -0.2171  0.0779
17797TIP3    H174882   2.016   1.917  12.493 -2.8985  4.5752 -1.9606
17797TIP3    H274883   2.115   1.922  12.378  1.3859 -1.6998  0.8600
17798TIP3   OH274884   4.687   6.420  13.836  0.3528 -0.0777  0.8563
17798TIP3    H174885   4.640   6.413  13.919  2.4134  0.3970  2.1472
17798TIP3    H274886   4.746   6.495  13.848 -0.6722  1.2860 -1.7947
17799TIP3   OH274887   4.533   6.407  15.112  0.6444  0.2188 -0.1300
17799TIP3    H174888   4.525   6.468  15.039  1.5791 -0.8383 -1.1624
17799TIP3    H274889   4.585   6.454  15.177  0.7234  0.8017 -0.6056
17800TIP3   OH274890   3.863   4.058   3.301  0.2402 -0.1519 -0.3003
17800TIP3    H174891   3.769   4.071   3.308 -0.0268 -1.9159 -0.1650
17800TIP3    H274892   3.901   4.144   3.320 -1.3114  0.4589  0.1535
17801TIP3   OH274893   3.864   1.663  16.546  0.3793  0.2305  0.1500
17801TIP3    H174894   3.898   1.736  16.493  0.6802 -0.4229 -0.5767
17801TIP3    H274895   3.942   1.614  16.572  0.1828  0.1978  0.6799
17802TIP3   OH274896   3.673   6.174   2.231  0.0027  0.1530 -0.2382
17802TIP3    H174897   3.710   6.118   2.299  0.2034  1.3935  0.7138
17802TIP3    H274898   3.749   6.201   2.179 -0.2688 -1.5769 -1.5913
17803TIP3   OH274899   4.084   5.031  12.180 -0.0308 -0.0036 -0.3949
17803TIP3    H174900   4.093   5.078  12.097 -0.9295 -0.2030 -0.6254
17803TIP3    H274901   4.162   4.976  12.185  0.4139  0.5831 -0.7298
17804TIP3   OH274902   2.762   5.006   2.876 -0.0596 -0.8333  0.1165
17804TIP3    H174903   2.809   5.090   2.870 -1.0253 -0.3234 -0.6020
17804TIP3    H274904   2.826   4.941   2.847  0.1477 -0.1271 -1.1031
17805TIP3   OH274905   3.670   2.802  17.168  0.0132  0.0329 -0.3267
17805TIP3    H174906   3.617   2.851  17.231 -0.7675 -0.3078 -0.7103
17805TIP3    H274907   3.716   2.737  17.222  0.0346  0.3195  0.0056
17806TIP3   OH274908   5.879   4.454  14.725 -0.2585  0.0803 -0.3838
17806TIP3    H174909   5.857   4.417  14.810 -0.4007 -0.6727 -0.7363
17806TIP3    H274910   5.963   4.414  14.703  1.2425  2.4222  0.6586
17807TIP3   OH274911   4.702   2.610  17.319  0.0269 -0.1993  1.2143
17807TIP3    H174912   4.795   2.629  17.331  0.7721 -2.3449 -0.5777
17807TIP3    H274913   4.691   2.522  17.354 -1.2080 -0.2142  0.8406
17808TIP3   OH274914   5.936   0.038  10.605 -0.9354 -0.2540  0.1690
17808TIP3    H174915   5.887   0.105  10.559 -0.4105  0.6708  0.9269
17808TIP3    H274916   6.027   0.056  10.584 -0.7924 -0.7643  0.3290
17809TIP3   OH274917   2.335   5.471   3.216  0.2388 -0.0403 -0.1205
17809TIP3    H174918   2.399   5.512   3.274 -0.5856  0.8514  0.1955
17809TIP3    H274919   2.335   5.527   3.138 -0.9653  0.6582  0.3503
17810TIP3   OH274920   5.269   1.632   6.485  0.2951 -0.6251  0.1938
17810TIP3    H174921   5.297   1.619   6.576  0.0889 -0.5116  0.2764
17810TIP3    H274922   5.196   1.572   6.474  2.0791 -2.7392 -0.7744
17811TIP3   OH274923   6.681   6.254  15.023 -0.1962  0.4848 -0.5019
17811TIP3    H174924   6.729   6.287  15.098  0.8364 -1.7675 -0.0883
17811TIP3    H274925   6.747   6.238  14.956 -0.7587  0.0522 -0.9732
17812TIP3   OH274926   2.484   1.174  15.817 -0.2656 -0.2327  0.5644
17812TIP3    H174927   2.405   1.135  15.781  0.8400 -1.5349 -0.5537
17812TIP3    H274928   2.464   1.268  15.825 -1.9823 -0.5804  0.5656
17813TIP3   OH274929   1.573   0.583   3.904 -0.4904 -0.0213 -0.3022
17813TIP3    H174930   1.482   0.589   3.878 -0.6134  1.4976  0.3604
17813TIP3    H274931   1.583   0.650   3.973  1.7187  1.7916 -2.1939
17814TIP3   OH274932   5.704   6.772  14.320  0.1602  0.3041 -0.4470
17814TIP3    H174933   5.676   6.705  14.382 -2.1193 -0.8827 -2.5723
17814TIP3    H274934   5.799   6.763  14.316 -0.0754 -3.2566 -0.9985
17815TIP3   OH274935   3.975   0.367  15.974 -0.2507  0.4201  0.0259
17815TIP3    H174936   4.071   0.371  15.976 -0.0167 -2.5752  1.2692
17815TIP3    H274937   3.954   0.336  15.886 -0.2285  2.1763 -0.6395
17816TIP3   OH274938   5.553   4.544   5.188  0.0635  0.5405  0.1711
17816TIP3    H174939   5.599   4.490   5.124  1.1484  1.2748  0.3140
17816TIP3    H274940   5.460   4.533   5.166  0.3349 -0.4766 -0.5091
17817TIP3   OH274941   3.560   0.042   2.139  0.0712 -0.0840  0.6033
17817TIP3    H174942   3.613   0.034   2.218 -0.7270  0.3594  1.2054
17817TIP3    H274943   3.476   0.076   2.170  0.2933  1.7761 -0.6189
17818TIP3   OH274944   2.863   3.148  11.838 -0.0724  0.2309  0.0241
17818TIP3    H174945   2.911   3.173  11.758 -0.9510  0.1655 -0.5352
17818TIP3    H274946   2.866   3.227  11.892 -1.1672  0.9551 -0.9246
17819TIP3   OH274947   1.589   0.778   3.515  0.2393 -0.0215  0.1352
17819TIP3    H174948   1.528   0.811   3.581  0.7067  0.5287  0.3052
17819TIP3    H274949   1.640   0.711   3.561 -0.6708 -0.9626 -0.1933
17820TIP3   OH274950   2.299   2.462  13.346 -0.4176 -0.3741 -0.1091
17820TIP3    H174951   2.355   2.521  13.294  0.4592 -2.3574 -1.5354
17820TIP3    H274952   2.356   2.432  13.417 -0.6540 -0.0647  0.2182
17821TIP3   OH274953   4.294   5.234  15.072 -0.4570 -0.4777  0.3850
17821TIP3    H174954   4.334   5.316  15.103  0.4633 -0.4356 -0.8373
17821TIP3    H274955   4.357   5.166  15.098  0.3169 -0.4417 -1.2894
17822TIP3   OH274956   3.641   1.984   2.660  0.0994  0.0393  0.8485
17822TIP3    H174957   3.591   2.064   2.678  0.0703  0.3301 -0.4298
17822TIP3    H274958   3.678   1.959   2.745 -0.1042  1.2568  1.3133
17823TIP3   OH274959   1.794   1.330   3.624  0.7883 -0.2298  0.0374
17823TIP3    H174960   1.736   1.286   3.563 -0.2492  0.0848  0.7686
17823TIP3    H274961   1.757   1.312   3.711  1.4442  0.4580  0.4801
17824TIP3   OH274962   5.295   2.942   0.955  0.3013 -0.8000 -0.3833
17824TIP3    H174963   5.376   2.971   0.914  1.3039 -2.1513  0.5829
17824TIP3    H274964   5.273   2.860   0.910  0.5922 -1.5031  0.7306
17825TIP3   OH274965   5.219   3.236   0.988 -0.4399 -0.1278 -0.3844
17825TIP3    H174966   5.232   3.153   0.941 -2.1250  0.6423 -2.3772
17825TIP3    H274967   5.159   3.214   1.058 -2.4304 -0.3389 -2.0500
17826TIP3   OH274968   2.121   1.345  13.602 -0.1066  0.2037 -0.6747
17826TIP3    H174969   2.059   1.393  13.548  0.2728  1.7864  0.2369
17826TIP3    H274970   2.198   1.335  13.546  0.2031  1.6350 -0.5477
17827TIP3   OH274971   3.607   4.615   4.104  0.5760 -0.2760 -0.2924
17827TIP3    H174972   3.582   4.576   4.188 -1.8816 -0.7151 -1.1389
17827TIP3    H274973   3.614   4.540   4.044 -0.8761  0.2363 -1.1605
17828TIP3   OH274974   5.677   3.637   4.538 -0.1690 -0.7469  0.6313
17828TIP3    H174975   5.752   3.653   4.595  0.4196  0.4399 -0.4081
17828TIP3    H274976   5.710   3.657   4.450 -1.8024  0.2135  0.1919
17829TIP3   OH274977   5.704   2.172   1.577 -0.2622  0.1764 -0.5140
17829TIP3    H174978   5.762   2.224   1.633  0.5349 -1.0208 -0.1832
17829TIP3    H274979   5.763   2.134   1.512 -1.2513  2.0466 -2.6311
17830TIP3   OH274980   4.612   6.773   3.491  0.6466 -0.6758 -0.0557
17830TIP3    H174981   4.558   6.757   3.414  3.6008 -0.9699 -2.2038
17830TIP3    H274982   4.598   6.696   3.546  2.4187 -3.1866 -2.8166
17831TIP3   OH274983   5.572   2.498   3.255 -0.2658  0.5788  0.2301
17831TIP3    H174984   5.544   2.440   3.183  1.3282 -0.6388  0.5404
17831TIP3    H274985   5.512   2.477   3.327  0.3624 -0.8465  0.3825
17832TIP3   OH274986   4.737   0.151   4.359 -0.4506  0.2722  0.0789
17832TIP3    H174987   4.802   0.083   4.376 -0.7567 -0.4374 -1.4680
17832TIP3    H274988   4.739   0.206   4.438  1.4294 -0.1995  0.4128
17833TIP3   OH274989   1.948   4.063  13.697 -0.3445 -0.4311 -0.3313
17833TIP3    H174990   1.915   4.130  13.756 -0.2436 -0.8319  0.1885
17833TIP3    H274991   1.892   4.070  13.619  0.5286  1.1719 -0.8722
17834TIP3   OH274992   4.259   3.280  15.934 -0.2910  0.4942  0.2354
17834TIP3    H174993   4.190   3.306  15.995 -0.5846  0.9749 -0.2897
17834TIP3    H274994   4.274   3.358  15.880 -1.8473 -0.6112 -1.9977
17835TIP3   OH274995   1.290   0.068   5.379 -0.3659  0.0441 -0.0876
17835TIP3    H174996   1.267   0.127   5.451 -0.8111  0.9589 -0.9441
17835TIP3    H274997   1.207   0.054   5.333 -0.1037 -0.6014 -0.3698
17836TIP3   OH274998   6.139   5.720  11.395 -0.1307 -0.1014 -0.0435
17836TIP3    H174999   6.151   5.780  11.469  0.3933  0.3575 -0.4924
17836TIP3    H275000   6.123   5.778  11.320 -0.5029 -0.5594 -0.3225
17837TIP3   OH275001   5.147   0.846   6.619  0.2607  0.0375 -0.1558
17837TIP3    H175002   5.184   0.815   6.702  2.1817  0.8585 -0.6516
17837TIP3    H275003   5.204   0.919   6.592 -1.5695  1.1714 -1.1620
17838TIP3   OH275004   4.150   2.836  16.028 -0.8026 -0.4067  0.5715
17838TIP3    H175005   4.149   2.759  15.971  0.7110 -0.8435  1.0951
17838TIP3    H275006   4.236   2.834  16.070 -1.2826  0.7852  1.6817
17839TIP3   OH275007   2.050   5.448   3.737 -0.3313 -0.4067 -0.1009
17839TIP3    H175008   2.098   5.531   3.733  0.5021 -0.9195 -2.0538
17839TIP3    H275009   2.042   5.430   3.830 -0.3894  1.7668  0.3764
17840TIP3   OH275010   1.033   5.443  15.655  0.5571  0.0292  0.0625
17840TIP3    H175011   1.086   5.488  15.589 -1.2489  1.0931 -0.7683
17840TIP3    H275012   1.066   5.475  15.738  2.9978 -1.4637 -0.2628
17841TIP3   OH275013   1.944   0.473   5.054 -0.0850  1.0688  0.3530
17841TIP3    H175014   1.883   0.523   5.000  0.2451 -0.0461 -1.1453
17841TIP3    H275015   1.996   0.423   4.990  1.6579  1.1732  1.6371
17842TIP3   OH275016   4.818   6.277   5.249  0.5183  0.0028 -0.5713
17842TIP3    H175017   4.833   6.330   5.327 -0.3314  1.2771 -1.2310
17842TIP3    H275018   4.732   6.236   5.264 -0.2961  1.3301 -1.3661
17843TIP3   OH275019   5.500   3.281   5.494  0.1793 -0.6127 -0.0487
17843TIP3    H175020   5.584   3.253   5.459 -0.0863  1.3576 -2.5040
17843TIP3    H275021   5.436   3.261   5.425 -1.5183 -2.4142  1.8956
17844TIP3   OH275022   2.663   0.904   1.802 -0.1556  0.0404 -0.6491
17844TIP3    H175023   2.647   0.855   1.883  0.8278 -1.0395 -1.0801
17844TIP3    H275024   2.641   0.994   1.824 -0.5615 -0.3474  0.6230
17845TIP3   OH275025   4.966   3.059  16.661  0.3496  0.3572 -0.3945
17845TIP3    H175026   5.002   2.977  16.626  0.1101 -0.1888  0.6033
17845TIP3    H275027   4.968   3.047  16.756 -0.0742  1.3486 -0.2552
17846TIP3   OH275028   1.881   2.874  15.534 -0.7399 -0.1028  0.0155
17846TIP3    H175029   1.867   2.960  15.494 -0.9484 -0.1291  0.0316
17846TIP3    H275030   1.793   2.839  15.547 -0.6250 -0.9685 -1.3859
17847TIP3   OH275031   1.967   6.004  13.696 -1.1364 -0.0799 -0.1755
17847TIP3    H175032   1.920   6.051  13.765 -0.4413  1.4903 -0.7349
17847TIP3    H275033   2.053   6.047  13.691 -0.5998 -1.1788 -0.9713
17848TIP3   OH275034   0.991   5.255   1.471 -0.1642  0.1149 -0.2463
17848TIP3    H175035   0.965   5.340   1.437 -1.4014 -0.1642 -0.0381
17848TIP3    H275036   1.037   5.274   1.552 -1.2554  0.5599  0.2885
17849TIP3   OH275037   1.961   4.112   6.019  0.1852  0.1897  0.3300
17849TIP3    H175038   1.899   4.085   5.950  0.1384  0.6349  0.1928
17849TIP3    H275039   1.935   4.061   6.096  0.5869 -0.7238 -0.1255
17850TIP3   OH275040   0.528   2.110  11.543 -0.4386 -0.7084  0.4679
17850TIP3    H175041   0.449   2.164  11.550 -0.2268 -0.5458  1.8933
17850TIP3    H275042   0.588   2.162  11.490 -1.0428 -0.5447 -0.0683
17851TIP3   OH275043   1.971   6.192  14.914  0.1083 -0.4347 -0.3584
17851TIP3    H175044   2.034   6.263  14.902  0.4167 -0.7909 -0.8772
17851TIP3    H275045   1.962   6.185  15.009 -1.6745  1.7983 -0.2902
17852TIP3   OH275046   1.947   0.317   0.654  0.3091  0.1781  0.2147
17852TIP3    H175047   2.003   0.350   0.584 -0.0962  1.1688  0.3395
17852TIP3    H275048   1.930   0.393   0.709 -0.7053 -0.2279  0.4853
17853TIP3   OH275049   6.522   0.399   3.323 -0.4645 -0.0224 -0.4478
17853TIP3    H175050   6.578   0.426   3.396  1.4975 -1.0275 -1.5290
17853TIP3    H275051   6.530   0.470   3.259 -1.4139  0.3970 -0.1218
17854TIP3   OH275052   0.489   2.680   0.179 -0.0472 -0.4017  0.0415
17854TIP3    H175053   0.402   2.709   0.206 -0.2088 -0.4988 -0.3726
17854TIP3    H275054   0.478   2.587   0.158  0.4016 -0.7009  1.0660
17855TIP3   OH275055   0.191   5.129  15.040 -0.9737 -0.0337 -0.0171
17855TIP3    H175056   0.160   5.189  14.972 -1.4073  0.2153  0.3941
17855TIP3    H275057   0.163   5.043  15.009  1.8488 -0.4183 -1.9005
17856TIP3   OH275058   1.784   2.989   4.002 -0.5564 -0.0437 -0.7143
17856TIP3    H175059   1.844   2.937   4.054 -0.6939 -0.6329 -1.1337
17856TIP3    H275060   1.724   2.925   3.963 -0.1404  0.3138 -2.0067
17857TIP3   OH275061   5.459   2.577   2.762 -0.0637 -0.3341 -0.7668
17857TIP3    H175062   5.548   2.603   2.738 -0.8086  2.3585 -0.9329
17857TIP3    H275063   5.445   2.615   2.849 -0.6617 -1.8165 -0.1724
17858TIP3   OH275064   0.764   5.860  12.569  0.7031 -0.8945 -0.5161
17858TIP3    H175065   0.818   5.824  12.639  2.1053 -0.0307 -1.1152
17858TIP3    H275066   0.809   5.836  12.488  0.3035 -0.0080 -1.0223
17859TIP3   OH275067   0.067   5.433   2.664  0.0627 -0.4326 -0.0725
17859TIP3    H175068   0.017   5.359   2.699 -0.6170 -1.1649 -2.4433
17859TIP3    H275069   0.004   5.506   2.664 -0.3942 -0.8067 -1.0551
17860TIP3   OH275070   1.781   4.660  17.072  0.1452  0.1389  0.2521
17860TIP3    H175071   1.802   4.712  16.994 -3.2244  1.6476  0.1980
17860TIP3    H275072   1.765   4.725  17.140 -0.7979 -0.9949  1.1452
17861TIP3   OH275073   2.906   3.421  16.851  0.9856  0.0413  0.2720
17861TIP3    H175074   2.957   3.494  16.886 -2.4071  1.7117  2.2942
17861TIP3    H275075   2.830   3.462  16.809  0.4081 -2.2889 -1.1867
17862TIP3   OH275076   1.939   0.738  13.354  0.2406  0.6610  0.3085
17862TIP3    H175077   2.001   0.722  13.426  1.4411  0.1833 -0.8006
17862TIP3    H275078   1.985   0.799  13.296 -0.6162  0.8439 -0.1846
17863TIP3   OH275079   2.018   1.420   2.438 -0.5760 -0.4920 -0.7666
17863TIP3    H175080   1.955   1.434   2.509  0.6918  2.5382 -0.1106
17863TIP3    H275081   1.975   1.457   2.361  0.2668  1.4929 -0.3372
17864TIP3   OH275082   6.170   0.950   5.288  0.1940  0.2598  0.2949
17864TIP3    H175083   6.182   0.894   5.364  0.7274 -0.8927 -0.6100
17864TIP3    H275084   6.235   0.920   5.225 -0.4133  1.0072 -0.7265
17865TIP3   OH275085   5.312   5.620  12.418  0.3027 -0.6651  0.2116
17865TIP3    H175086   5.251   5.607  12.491 -0.2660 -0.8517 -0.2926
17865TIP3    H275087   5.274   5.571  12.345  2.2279 -2.7817  0.5001
17866TIP3   OH275088   5.954   6.231  13.410  0.8471  0.2302 -0.7370
17866TIP3    H175089   6.036   6.236  13.360  0.1770  1.8589 -1.7778
17866TIP3    H275090   5.888   6.209  13.344  0.0901  1.4312 -0.4014
17867TIP3   OH275091   4.783   1.141   0.382 -0.2989  0.3687 -0.4293
17867TIP3    H175092   4.791   1.114   0.290 -0.2417 -1.0203 -0.0266
17867TIP3    H275093   4.722   1.215   0.379  0.0897  0.6688 -1.6350
17868TIP3   OH275094   2.678   4.434  14.121 -0.4260 -0.3974 -0.1427
17868TIP3    H175095   2.731   4.425  14.201 -0.0473 -0.8723 -0.4404
17868TIP3    H275096   2.588   4.443  14.153 -0.2466 -0.2922  0.3475
17869TIP3   OH275097   3.299   2.079   2.252  0.5292  0.0837  0.0441
17869TIP3    H175098   3.388   2.057   2.278  0.4789  0.1328  0.2684
17869TIP3    H275099   3.244   2.033   2.316  0.4227  0.7887  0.4809
17870TIP3   OH275100   0.848   3.762   5.534  0.0641 -0.5621 -0.2699
17870TIP3    H175101   0.905   3.732   5.605  0.2429 -2.2830 -1.0915
17870TIP3    H275102   0.784   3.819   5.578  0.5898 -1.0037  1.1427
17871TIP3   OH275103   0.276   0.205  14.816  0.1869 -0.1885  0.4959
17871TIP3    H175104   0.299   0.125  14.863 -0.3002 -0.1526  0.8035
17871TIP3    H275105   0.297   0.276  14.876 -0.9307 -0.1668  0.8860
17872TIP3   OH275106   1.017   5.023   0.593 -0.0247  0.0816  0.0773
17872TIP3    H175107   1.094   5.061   0.550 -1.4916  1.6055 -1.3551
17872TIP3    H275108   1.032   4.928   0.588  1.0838  0.2868 -1.5301
17873TIP3   OH275109   0.621   4.704   6.143 -0.6609 -0.3785 -0.2209
17873TIP3    H175110   0.676   4.771   6.101 -0.6669 -1.5240 -2.1905
17873TIP3    H275111   0.679   4.661   6.205  0.6827 -1.3720 -2.0594
17874TIP3   OH275112   4.108   5.363   5.692 -0.0729 -0.3188  0.1718
17874TIP3    H175113   4.022   5.383   5.656  0.1007 -2.2298 -1.4724
17874TIP3    H275114   4.094   5.286   5.747  0.3391  0.3364  1.2412
17875TIP3   OH275115   4.474   3.361  16.972 -0.6153 -0.1318 -0.5545
17875TIP3    H175116   4.379   3.364  16.981 -0.5024  1.1737  0.4881
17875TIP3    H275117   4.501   3.288  17.028 -0.8321  1.0282  1.1340
17876TIP3   OH275118   4.140   1.933   5.508 -0.2672  0.3710  0.6032
17876TIP3    H175119   4.075   1.913   5.576 -0.8390  0.7942  0.1892
17876TIP3    H275120   4.089   1.973   5.438  0.2792 -0.3128 -0.1958
17877TIP3   OH275121   4.810   5.086  16.647 -0.0746  0.2822 -0.5632
17877TIP3    H175122   4.900   5.067  16.671 -0.2211  0.2200 -0.0359
17877TIP3    H275123   4.792   5.028  16.573 -0.0044 -0.4691 -0.0127
17878TIP3   OH275124   3.835   5.357   4.265  0.0254 -0.3812  0.0079
17878TIP3    H175125   3.837   5.448   4.296 -1.0209 -0.4108  0.2001
17878TIP3    H275126   3.777   5.359   4.188  0.3332 -0.8107 -0.2385
17879TIP3   OH275127   5.204   2.380   3.561 -0.1263  0.0853 -0.3231
17879TIP3    H175128   5.142   2.319   3.521 -0.4077 -0.2818  0.6417
17879TIP3    H275129   5.175   2.388   3.652  1.2236 -0.0843  0.1547
17880TIP3   OH275130   1.442   0.089  13.776  0.2811 -0.7469 -0.1983
17880TIP3    H175131   1.427   0.181  13.752  0.9644 -0.4916  0.3245
17880TIP3    H275132   1.448   0.090  13.872  0.6694 -1.2814 -0.2117
17881TIP3   OH275133   6.634   6.458   3.653 -0.9318 -0.0942 -0.0151
17881TIP3    H175134   6.593   6.422   3.574 -2.1235  0.9204  0.1191
17881TIP3    H275135   6.570   6.519   3.688  0.3196  0.8199  0.7567
17882TIP3   OH275136   0.566   4.543   5.646 -0.2068  0.2916 -0.0323
17882TIP3    H175137   0.548   4.581   5.731  1.2769  0.3367  0.2941
17882TIP3    H275138   0.518   4.598   5.584 -1.4913  0.1152  0.7720
17883TIP3   OH275139   5.882   5.989   3.635  0.0336 -0.4973 -0.0490
17883TIP3    H175140   5.891   5.893   3.633 -1.2470 -0.7198  1.8059
17883TIP3    H275141   5.798   6.006   3.593  0.7395 -0.0463 -1.3437
17884TIP3   OH275142   4.957   2.843  15.404 -0.1968 -0.6527  0.5637
17884TIP3    H175143   4.967   2.756  15.441 -0.0886 -1.0552 -0.3723
17884TIP3    H275144   4.926   2.828  15.315 -1.1585  0.3062  0.7156
17885TIP3   OH275145   4.444   1.132   0.506  0.0935  0.1093  0.3726
17885TIP3    H175146   4.514   1.197   0.509 -0.3033  0.5458  0.2383
17885TIP3    H275147   4.420   1.128   0.413  1.1521 -1.3454  0.1236
17886TIP3   OH275148   1.050   4.062   1.930 -0.1882  0.3976  0.2683
17886TIP3    H175149   1.014   4.142   1.892  1.0803  0.3634 -1.0723
17886TIP3    H275150   0.974   4.018   1.968 -1.2026  1.3624 -0.5602
17887TIP3   OH275151   6.440   2.207   4.059  0.0019 -0.0835 -0.5081
17887TIP3    H175152   6.354   2.174   4.036  0.2428  0.7087 -2.9194
17887TIP3    H275153   6.425   2.266   4.133 -1.1127 -1.7299  0.6403
17888TIP3   OH275154   1.523   3.575  12.012 -0.0146 -0.2247  0.3165
17888TIP3    H175155   1.557   3.584  12.101 -0.0276 -0.0771  0.3069
17888TIP3    H275156   1.599   3.589  11.955  0.3650 -2.0259  0.3224
17889TIP3   OH275157   4.144   1.108   4.096 -0.8833 -0.1614  0.6413
17889TIP3    H175158   4.224   1.134   4.143 -1.3583  0.7770  0.9730
17889TIP3    H275159   4.155   1.015   4.080  0.1435 -0.1131  0.9525
17890TIP3   OH275160   0.532   4.372   2.689 -0.1707  0.2242  0.1596
17890TIP3    H175161   0.516   4.327   2.772  1.5773  0.3891  0.6222
17890TIP3    H275162   0.533   4.302   2.623 -0.8375  0.0038  0.3782
17891TIP3   OH275163   1.335   4.131  13.284 -0.0710 -0.6719 -0.7382
17891TIP3    H175164   1.260   4.074  13.267 -1.1382 -0.1829  1.9286
17891TIP3    H275165   1.321   4.164  13.372  2.6878  0.4170 -0.6086
17892TIP3   OH275166   6.271   2.109  11.973 -0.4627  0.5282 -0.3882
17892TIP3    H175167   6.194   2.132  12.025 -0.7497 -2.4597  0.7207
17892TIP3    H275168   6.331   2.182  11.984 -2.5078  2.2491 -0.0270
17893TIP3   OH275169   6.269   4.902  13.062  0.2778 -0.5647  0.2132
17893TIP3    H175170   6.202   4.950  13.014  0.0954 -1.3647 -0.3500
17893TIP3    H275171   6.241   4.811  13.059  1.3661 -0.9142  0.0041
17894TIP3   OH275172   5.553   0.414  13.614 -0.2559  0.5056  0.7335
17894TIP3    H175173   5.510   0.449  13.536  0.8977 -0.6210 -0.4371
17894TIP3    H275174   5.641   0.390  13.585 -0.2917 -1.3355  1.9885
17895TIP3   OH275175   4.567   5.279  12.209 -0.4351  0.6000  0.6991
17895TIP3    H175176   4.591   5.343  12.276  0.3726  1.7528 -0.6452
17895TIP3    H275177   4.481   5.309  12.178 -0.3941  0.6049  0.5901
17896TIP3   OH275178   0.594   2.953   2.420  0.4895  0.5740  0.6569
17896TIP3    H175179   0.665   2.980   2.478  0.8575  0.6658  0.1727
17896TIP3    H275180   0.618   2.990   2.334 -0.8128  1.7567  0.7736
17897TIP3   OH275181   4.809   2.915  14.159 -0.1323 -0.8299 -0.0232
17897TIP3    H175182   4.870   2.842  14.151 -0.3764 -1.1522  0.9119
17897TIP3    H275183   4.737   2.881  14.213  0.4664  0.5102  1.7575
17898TIP3   OH275184   2.424   5.686  13.340  0.4315  0.3470 -0.1898
17898TIP3    H175185   2.447   5.710  13.429  1.5136 -0.1709 -0.3168
17898TIP3    H275186   2.334   5.652  13.347  1.3359 -2.0320  1.1635
17899TIP3   OH275187   2.444   5.851  14.433  0.1366 -0.2825  0.0205
17899TIP3    H175188   2.492   5.772  14.458 -0.8271 -0.7613  0.4113
17899TIP3    H275189   2.397   5.826  14.353 -0.1047 -0.0843  0.1005
17900TIP3   OH275190   1.794   5.234   5.318  0.1608 -1.1380  0.3579
17900TIP3    H175191   1.801   5.316   5.368  0.9897 -0.4132 -0.8819
17900TIP3    H275192   1.811   5.166   5.382  1.8643 -0.2030  0.9646
17901TIP3   OH275193   2.196   1.702  15.421 -0.6367 -0.2884  0.2481
17901TIP3    H175194   2.260   1.656  15.476 -2.3363 -2.5942  0.4397
17901TIP3    H275195   2.159   1.769  15.478 -0.3050 -0.7077  0.9728
17902TIP3   OH275196   3.045   3.084  13.139  0.1692  0.1247  0.4231
17902TIP3    H175197   2.980   3.054  13.202 -2.3174  1.3506 -1.3786
17902TIP3    H275198   3.007   3.164  13.102  2.4613  0.5804 -1.1675
17903TIP3   OH275199   3.721   5.127   1.601  0.4757 -0.4006 -1.2000
17903TIP3    H175200   3.626   5.115   1.595 -0.1104  2.0128  1.0680
17903TIP3    H275201   3.748   5.147   1.511 -1.1489 -1.0798 -1.8875
17904TIP3   OH275202   0.733   5.243   5.956 -0.3357  0.2490  0.4727
17904TIP3    H175203   0.686   5.193   5.890 -0.9860  1.1755  0.2101
17904TIP3    H275204   0.812   5.193   5.973 -1.0409 -0.9470  0.3507
17905TIP3   OH275205   2.089   4.846  16.833  0.4901  0.1012 -0.1053
17905TIP3    H175206   2.171   4.896  16.838 -0.2529  1.3858 -0.2579
17905TIP3    H275207   2.086   4.798  16.916  0.7878  1.0476  0.4752
17906TIP3   OH275208   1.325   1.890  14.471 -0.0953  0.0578  0.3073
17906TIP3    H175209   1.393   1.930  14.417 -0.3528  2.4363  1.6033
17906TIP3    H275210   1.243   1.907  14.424 -0.0482 -0.5718 -0.0146
17907TIP3   OH275211   5.757   2.044  16.340  0.0293  0.2014 -0.2160
17907TIP3    H175212   5.698   2.110  16.303  0.7655 -0.2298 -2.2716
17907TIP3    H275213   5.799   2.004  16.264  2.8698  0.3928  1.1359
17908TIP3   OH275214   5.490   0.420  14.506 -0.7022  0.1688 -0.3709
17908TIP3    H175215   5.584   0.410  14.497 -0.7276  0.3515 -0.8437
17908TIP3    H275216   5.465   0.481  14.437 -1.4858 -1.6916 -1.8210
17909TIP3   OH275217   1.489   1.793   4.339  0.2215 -0.1103  0.0272
17909TIP3    H175218   1.398   1.820   4.326 -0.6483 -1.6869  2.2218
17909TIP3    H275219   1.506   1.732   4.267 -0.1127  0.8940 -0.9275
17910TIP3   OH275220   2.332   3.246  11.251 -0.1858 -0.4820  0.3416
17910TIP3    H175221   2.381   3.231  11.170  1.2704  1.2770  0.8461
17910TIP3    H275222   2.251   3.288  11.223  0.7238  1.0014 -0.1752
17911TIP3   OH275223   2.566   2.512  15.137  0.0662 -0.0733 -0.1961
17911TIP3    H175224   2.489   2.471  15.098  0.5550  0.5854 -1.9570
17911TIP3    H275225   2.587   2.456  15.212 -1.2591 -1.0870 -0.5343
17912TIP3   OH275226   3.802   2.729   6.258  0.1497  0.4201 -0.1008
17912TIP3    H175227   3.871   2.684   6.306 -0.0568  1.0411  0.7984
17912TIP3    H275228   3.805   2.819   6.290 -1.6261  0.2767  0.5817
17913TIP3   OH275229   6.649   4.997  12.980  1.3224 -0.4323  0.4473
17913TIP3    H175230   6.698   4.925  12.939  0.7879 -1.2630  1.2201
17913TIP3    H275231   6.708   5.072  12.974  2.0426 -1.0151 -0.0700
17914TIP3   OH275232   0.641   1.032   3.974 -0.4948  0.2204 -0.4711
17914TIP3    H175233   0.631   0.992   3.888 -2.0461 -2.0595  0.6903
17914TIP3    H275234   0.561   1.084   3.986  0.1548  1.3195 -0.7530
17915TIP3   OH275235   4.637   4.013   3.722  0.1457  0.3141 -0.2520
17915TIP3    H175236   4.723   3.970   3.721  0.1827  0.3876 -0.9139
17915TIP3    H275237   4.628   4.047   3.811  0.4607 -0.3783  0.0461
17916TIP3   OH275238   2.096   5.674   4.103 -0.0369 -0.5091  0.6116
17916TIP3    H175239   2.078   5.595   4.053  1.5128 -0.4655 -0.0601
17916TIP3    H275240   2.172   5.713   4.060  0.9730 -0.1456  2.6235
17917TIP3   OH275241   2.979   3.817  13.535 -0.1664 -0.6779 -0.4211
17917TIP3    H175242   2.940   3.843  13.618  0.2610  1.0207 -0.7063
17917TIP3    H275243   3.054   3.762  13.560  1.5827  1.9154  0.5529
17918TIP3   OH275244   4.742   2.631   5.974  0.4365 -1.2619 -0.1298
17918TIP3    H175245   4.728   2.596   6.062  1.3459 -0.6742  0.2633
17918TIP3    H275246   4.660   2.674   5.952 -0.2018 -2.4115 -0.0517
17919TIP3   OH275247   5.553   2.285   0.573  0.2795  0.0510 -0.8481
17919TIP3    H175248   5.468   2.327   0.583  0.5798  0.4092  0.3861
17919TIP3    H275249   5.611   2.355   0.542  0.8643  0.7463  1.5562
17920TIP3   OH275250   2.642   3.327   1.434 -0.1344  0.4535 -0.1444
17920TIP3    H175251   2.605   3.287   1.513 -0.3034  1.1802  0.1471
17920TIP3    H275252   2.726   3.363   1.461 -1.6434  3.7780  0.6391
17921TIP3   OH275253   1.243   1.752  13.804  0.1726 -0.0970 -0.0544
17921TIP3    H175254   1.332   1.769  13.776 -0.0547 -0.2952 -0.9107
17921TIP3    H275255   1.206   1.839  13.822  0.4645 -0.0026  0.0953
17922TIP3   OH275256   1.638   1.832  13.227 -0.6865 -0.4932  0.3595
17922TIP3    H175257   1.588   1.906  13.193  1.0281  0.6008  0.1176
17922TIP3    H275258   1.643   1.849  13.321  0.0516 -0.0556  0.2505
17923TIP3   OH275259   3.035   6.141   1.888  0.6682 -0.0996  0.2022
17923TIP3    H175260   2.960   6.191   1.921 -0.0011 -0.6951 -0.3634
17923TIP3    H275261   3.073   6.099   1.965 -1.0208 -1.6758  0.2577
17924TIP3   OH275262   2.008   1.304  16.859  0.6592 -0.0556  0.0471
17924TIP3    H175263   2.100   1.298  16.888  0.2103  0.8758  1.8346
17924TIP3    H275264   2.006   1.377  16.798  1.5222 -1.6644 -2.0403
17925TIP3   OH275265   0.785   0.333   5.079 -0.9129 -0.1973  0.0111
17925TIP3    H175266   0.717   0.307   5.140 -0.0093 -1.8573  0.3665
17925TIP3    H275267   0.780   0.270   5.008 -0.9928  0.8363 -0.9368
17926TIP3   OH275268   3.649   3.502   4.745  0.0762  0.5822  0.0341
17926TIP3    H175269   3.612   3.442   4.811 -1.0149  0.1944 -0.9073
17926TIP3    H275270   3.737   3.521   4.778 -0.0868 -0.3737  1.1115
17927TIP3   OH275271   0.543   0.787  16.152  0.4614  0.7350  0.3040
17927TIP3    H175272   0.638   0.795  16.144  0.5927  1.1871  1.9321
17927TIP3    H275273   0.522   0.708  16.104  1.8085  0.0396  0.7997
17928TIP3   OH275274   3.765   4.400   1.990  0.3676 -0.3436  0.4500
17928TIP3    H175275   3.786   4.486   2.026 -1.0430  0.0167  0.4906
17928TIP3    H275276   3.849   4.361   1.969  1.0837  0.6349  1.3923
17929TIP3   OH275277   3.877   3.326  16.607 -0.2231  0.2492 -0.4194
17929TIP3    H175278   3.971   3.323  16.585  0.0711 -2.8402  0.7037
17929TIP3    H275279   3.875   3.357  16.697 -0.2415 -0.0377 -0.3209
17930TIP3   OH275280   2.646   6.417  14.976  0.2646  0.1076 -0.9377
17930TIP3    H175281   2.627   6.330  14.943  0.1036  0.3193 -1.4086
17930TIP3    H275282   2.566   6.467  14.961  0.1502  0.1879 -0.1376
17931TIP3   OH275283   0.796   5.792   0.188 -0.0059  0.2153  0.1489
17931TIP3    H175284   0.780   5.702   0.162  1.5150 -0.0011 -0.0996
17931TIP3    H275285   0.832   5.835   0.110  0.4462  0.7064  0.6142
17932TIP3   OH275286   5.932   4.214   4.694  0.0793 -0.3089  0.2085
17932TIP3    H175287   5.932   4.179   4.784  0.6764  0.4685  0.5286
17932TIP3    H275288   5.866   4.162   4.648  0.0893 -1.0338  0.9746
17933TIP3   OH275289   3.568   2.742   5.723  0.4745 -0.2021 -0.2050
17933TIP3    H175290   3.596   2.717   5.811  1.7946 -1.6052 -0.9829
17933TIP3    H275291   3.649   2.755   5.674 -0.2331  0.6969 -1.1973
17934TIP3   OH275292   2.516   5.255  15.009  0.4126  0.0109  0.1904
17934TIP3    H175293   2.589   5.316  15.000  1.3167 -0.7155  1.9945
17934TIP3    H275294   2.451   5.303  15.061  1.6285 -0.8587  2.6711
17935TIP3   OH275295   0.590   0.641   1.251  0.5783  0.3276 -0.0508
17935TIP3    H175296   0.658   0.593   1.298  0.2319 -0.8299 -0.6767
17935TIP3    H275297   0.544   0.573   1.200 -1.0085  1.0836  0.3130
17936TIP3   OH275298   1.609   0.280  16.090  0.2315 -0.0625  0.0034
17936TIP3    H175299   1.544   0.347  16.109 -1.3456 -2.0988  2.3439
17936TIP3    H275300   1.559   0.199  16.080  2.1938 -1.2397 -1.0707
17937TIP3   OH275301   4.880   4.597   0.756 -0.2896 -0.2885 -0.6162
17937TIP3    H175302   4.966   4.638   0.748 -0.5979  0.1137 -2.4030
17937TIP3    H275303   4.827   4.639   0.688 -0.8489 -3.0569 -2.0396
17938TIP3   OH275304   1.026   6.069  13.970  0.2099 -0.1652  0.3422
17938TIP3    H175305   0.941   6.107  13.991 -0.0128 -0.7916  0.6052
17938TIP3    H275306   1.090   6.132  14.003 -0.1542 -0.1671  1.0658
17939TIP3   OH275307   0.985   6.736   1.045  0.4743  0.0998 -0.3499
17939TIP3    H175308   1.033   6.682   1.107  1.6601 -0.3927 -1.6268
17939TIP3    H275309   0.922   6.677   1.004  1.9921 -0.4766 -1.9798
17940TIP3   OH275310   2.547   5.338  11.203  0.2285 -0.2335 -0.0057
17940TIP3    H175311   2.632   5.300  11.183 -0.3788 -1.5626 -0.2294
17940TIP3    H275312   2.496   5.328  11.123 -0.7970 -1.4533  0.7526
17941TIP3   OH275313   6.257   1.598  13.881  0.5105 -0.5621  0.0857
17941TIP3    H175314   6.238   1.626  13.791  2.5077  0.9641  0.0575
17941TIP3    H275315   6.182   1.629  13.932 -2.6271 -4.7649 -1.4376
17942TIP3   OH275316   2.778   5.769   1.796 -0.1930 -0.3640 -0.3155
17942TIP3    H175317   2.812   5.743   1.882  0.0079  2.1715  0.4514
17942TIP3    H275318   2.853   5.809   1.753 -0.9427  0.7372 -0.6192
17943TIP3   OH275319   2.958   1.997  12.838  0.2743 -0.7620  0.1770
17943TIP3    H175320   3.031   2.023  12.894 -1.6510  1.1061  1.9642
17943TIP3    H275321   2.914   2.079  12.816 -0.0870 -1.6067 -2.7401
17944TIP3   OH275322   2.167   3.012  13.164  0.1065  0.0851 -0.1796
17944TIP3    H175323   2.137   2.968  13.085  1.1840  0.1694 -0.6621
17944TIP3    H275324   2.105   2.986  13.232  0.2450 -1.5320 -0.6259
17945TIP3   OH275325   2.022   6.412   0.171 -0.1464 -0.0012  0.7171
17945TIP3    H175326   1.998   6.387   0.082 -0.2295 -1.1313  1.0400
17945TIP3    H275327   2.114   6.387   0.179  0.0034  0.5537  0.8034
17946TIP3   OH275328   0.361   1.722  11.317 -0.2035  0.5835  0.3486
17946TIP3    H175329   0.368   1.652  11.252  0.6596 -0.6088  1.6625
17946TIP3    H275330   0.268   1.743  11.321 -0.2641  0.6953 -1.2591
17947TIP3   OH275331   4.495   5.746  12.867 -0.1100 -0.0414 -0.6876
17947TIP3    H175332   4.540   5.664  12.849 -1.4308 -0.3481 -3.0133
17947TIP3    H275333   4.466   5.776  12.781  0.7925  3.1729 -0.0116
17948TIP3   OH275334   3.561   5.545  14.083  0.0111  0.3884 -0.5721
17948TIP3    H175335   3.502   5.479  14.048  1.4036 -0.1852 -1.9500
17948TIP3    H275336   3.648   5.504  14.078  0.8325  2.1048 -0.9485
17949TIP3   OH275337   1.181   1.282   2.052  0.1174 -0.3342  0.7038
17949TIP3    H175338   1.252   1.309   1.994  0.1053  0.2490  0.9625
17949TIP3    H275339   1.105   1.275   1.994  0.4732 -1.4543  0.3271
17950TIP3   OH275340   2.165   6.533   5.435  0.5085  0.2889 -0.5680
17950TIP3    H175341   2.166   6.478   5.513 -0.3985  1.5694  0.3933
17950TIP3    H275342   2.253   6.524   5.397  0.4694 -1.5613 -0.2991
17951TIP3   OH275343   4.923   5.699  12.845 -0.4702  0.3324  0.4167
17951TIP3    H175344   4.853   5.634  12.847 -0.8395  0.6656 -0.7483
17951TIP3    H275345   4.884   5.778  12.881  0.2116 -0.2437  2.6069
17952TIP3   OH275346   0.470   3.415   5.393  0.2360 -0.9823  0.0117
17952TIP3    H175347   0.430   3.423   5.306 -0.8615  2.3730  0.6724
17952TIP3    H275348   0.563   3.435   5.378 -0.1875  0.9332 -0.2783
17953TIP3   OH275349   4.421   1.861   2.410 -0.0613  0.2039 -0.4102
17953TIP3    H175350   4.450   1.923   2.476  0.1625 -0.0586 -0.2566
17953TIP3    H275351   4.483   1.872   2.338  0.5219 -0.4516 -0.0280
17954TIP3   OH275352   3.913   6.054  14.954  0.0959 -0.4889  0.2106
17954TIP3    H175353   3.987   6.106  14.925  0.3232 -1.0899 -0.3009
17954TIP3    H275354   3.879   6.101  15.031  0.3148  0.3851 -0.2154
17955TIP3   OH275355   5.673   1.902  16.785  0.0224  0.0889 -0.4331
17955TIP3    H175356   5.713   1.841  16.848 -1.1466  0.8351  1.0894
17955TIP3    H275357   5.591   1.929  16.826 -1.6454 -0.6155 -2.9883
17956TIP3   OH275358   1.020   0.401  17.074  0.1404 -0.2222  0.0516
17956TIP3    H175359   1.095   0.344  17.093  1.9114  1.9826  0.0171
17956TIP3    H275360   0.943   0.345  17.088  1.7756 -2.7006 -0.3566
17957TIP3   OH275361   3.128   5.855   3.897  0.1275 -0.0059  0.1674
17957TIP3    H175362   3.090   5.865   3.810 -0.7083  1.6167  0.6888
17957TIP3    H275363   3.194   5.786   3.887 -1.5677 -1.5020 -1.2089
17958TIP3   OH275364   0.379   4.593   1.113 -0.9867  0.2080 -0.4023
17958TIP3    H175365   0.291   4.561   1.133 -0.1252 -0.9557  1.8093
17958TIP3    H275366   0.418   4.523   1.061 -1.4248  0.8672 -1.6679
17959TIP3   OH275367   6.422   4.960  14.667 -0.4936 -0.1223 -0.1338
17959TIP3    H175368   6.487   4.978  14.735 -0.8916 -0.0287  0.2327
17959TIP3    H275369   6.451   4.879  14.626  0.0551  0.1166 -0.2283
17960TIP3   OH275370   5.243   2.357  12.432  0.8084  0.0620  0.2411
17960TIP3    H175371   5.156   2.377  12.397  1.2133 -0.2449 -1.0056
17960TIP3    H275372   5.227   2.294  12.502 -0.1078  1.3332  1.2232
17961TIP3   OH275373   4.410   0.149  14.364  0.5219  0.1173  0.2368
17961TIP3    H175374   4.361   0.109  14.292  0.5319  0.4689  0.0341
17961TIP3    H275375   4.493   0.176  14.324  0.5958  0.1596  0.4192
17962TIP3   OH275376   3.925   0.377  17.200 -0.0401 -0.0640 -0.2101
17962TIP3    H175377   4.012   0.350  17.171  0.1580 -0.7245  0.9169
17962TIP3    H275378   3.924   0.359  17.294 -1.6294 -0.7376 -0.3123
17963TIP3   OH275379   1.412   4.410  16.487  0.7319 -0.2126  0.4219
17963TIP3    H175380   1.375   4.337  16.536 -0.2718 -0.0611 -0.0858
17963TIP3    H275381   1.453   4.370  16.410 -2.7903 -0.1038 -1.7265
17964TIP3   OH275382   6.258   6.779  12.421 -0.0555  0.7819 -0.1923
17964TIP3    H175383   6.354   6.773  12.423 -0.0709 -0.1804 -1.4092
17964TIP3    H275384   6.241   6.873  12.414  0.8303  0.9274 -0.6111
17965TIP3   OH275385   6.189   1.928  17.254  0.4458 -0.3559  0.4645
17965TIP3    H175386   6.248   2.003  17.262 -0.9652  0.8558 -0.1369
17965TIP3    H275387   6.130   1.936  17.329  1.5651 -2.1005  1.6084
17966TIP3   OH275388   6.361   5.423  17.279  0.1547  0.3389  0.3548
17966TIP3    H175389   6.279   5.373  17.282  1.1242 -1.2787  2.1564
17966TIP3    H275390   6.425   5.367  17.322  1.8656  2.2266  0.4235
17967TIP3   OH275391   1.903   3.433   0.630 -0.1793 -0.0925 -0.1492
17967TIP3    H175392   1.811   3.453   0.645 -0.0467 -0.7676  1.9285
17967TIP3    H275393   1.930   3.384   0.708  2.3667  1.5291  0.1206
17968TIP3   OH275394   4.098   2.723  15.717  0.4389  0.0192 -0.6321
17968TIP3    H175395   4.099   2.647  15.776  2.3611 -0.9193 -1.7740
17968TIP3    H275396   4.010   2.722  15.679  0.8798 -2.6442 -1.7944
17969TIP3   OH275397   5.014   6.502   1.415  0.2517 -0.1167  0.5077
17969TIP3    H175398   4.987   6.592   1.432 -0.1874 -0.5256  2.1442
17969TIP3    H275399   4.947   6.467   1.356 -1.4064 -0.3244  2.4365
17970TIP3   OH275400   5.388   3.475  15.929 -0.7300  0.4102  0.1384
17970TIP3    H175401   5.326   3.487  16.001  0.3519  0.4478  1.0919
17970TIP3    H275402   5.467   3.441  15.971  0.0803  0.8577 -0.9728
17971TIP3   OH275403   1.867   1.053   5.595  0.7334 -0.3791 -0.1861
17971TIP3    H175404   1.899   1.121   5.536  0.0118 -1.2524 -1.6669
17971TIP3    H275405   1.906   0.972   5.562  1.6520 -0.6963  1.5971
17972TIP3   OH275406   2.571   2.045   0.851  0.0223 -0.7063  0.4061
17972TIP3    H175407   2.528   1.964   0.824 -1.9503  0.3019  0.3207
17972TIP3    H275408   2.649   2.017   0.899  0.6517 -2.6160 -1.5764
17973TIP3   OH275409   5.665   1.927   0.555 -0.4653  0.4526 -0.1555
17973TIP3    H175410   5.668   1.976   0.637  0.0117  0.1495  0.0125
17973TIP3    H275411   5.653   1.993   0.487  0.0436  0.7890  0.0784
17974TIP3   OH275412   3.128   4.578   0.043  0.0042  0.2604 -0.5731
17974TIP3    H175413   3.063   4.618  -0.015  0.9762  0.8638 -1.2839
17974TIP3    H275414   3.149   4.647   0.107  0.1221  0.1584 -0.5002
17975TIP3   OH275415   6.120   1.074   5.557  0.0485 -0.0285  0.2158
17975TIP3    H175416   6.025   1.065   5.563 -0.0909  1.4584  0.7100
17975TIP3    H275417   6.152   0.984   5.551 -1.2761 -0.6611  1.7676
17976TIP3   OH275418   6.733   6.138   1.141 -0.7400  0.2651 -0.5344
17976TIP3    H175419   6.700   6.080   1.210 -1.3120  0.1089 -0.9305
17976TIP3    H275420   6.721   6.226   1.176  1.6780  0.1515  0.7730
17977TIP3   OH275421   2.603   2.142   5.022 -0.3104 -0.0127 -0.1168
17977TIP3    H175422   2.617   2.058   4.978  1.5853  0.8898 -1.3655
17977TIP3    H275423   2.547   2.192   4.962 -0.1358  0.1739 -0.1254
17978TIP3   OH275424   5.940   5.973  16.444  0.0304  0.5241  0.2431
17978TIP3    H175425   5.921   6.024  16.523 -0.8490 -1.8186  1.6286
17978TIP3    H275426   6.024   6.007  16.413  1.7682 -0.1851  3.7022
17979TIP3   OH275427   3.602   6.273  12.502  0.1490 -0.0316 -0.2664
17979TIP3    H175428   3.655   6.219  12.443  1.7679  0.1913  0.8944
17979TIP3    H275429   3.578   6.349  12.450  2.5360  0.7360 -0.3900
17980TIP3   OH275430   0.641   0.974   0.892 -0.1947 -0.6145 -0.3984
17980TIP3    H175431   0.693   1.044   0.854  1.9426 -1.7751  0.2052
17980TIP3    H275432   0.621   1.005   0.981  1.3047 -0.9672  0.1006
17981TIP3   OH275433   0.020   4.601   3.119 -0.0552  0.3755 -0.4061
17981TIP3    H175434   0.090   4.657   3.154 -0.2970  0.0637  0.6020
17981TIP3    H275435   0.040   4.514   3.151 -0.0840 -0.0019 -1.3776
17982TIP3   OH275436   2.290   0.971  16.799  0.0873  0.0950 -0.1547
17982TIP3    H175437   2.360   0.998  16.739 -0.3234  0.7871 -0.3279
17982TIP3    H275438   2.209   0.990  16.752 -0.2234 -1.2566 -0.1914
17983TIP3   OH275439   4.575   0.452   3.989 -0.3831  0.1993  0.2336
17983TIP3    H175440   4.597   0.379   4.047  3.8908  1.7465  0.9635
17983TIP3    H275441   4.591   0.418   3.901  1.9224  0.2085  0.5810
17984TIP3   OH275442   1.076   4.165   0.747 -0.6347 -0.4801  0.5313
17984TIP3    H175443   1.019   4.142   0.820 -0.2187 -0.2040  0.9423
17984TIP3    H275444   1.021   4.151   0.669 -1.4205  0.2074  0.9425
17985TIP3   OH275445   1.830   0.721   0.052  0.7445 -0.2622  0.2385
17985TIP3    H175446   1.794   0.686   0.133  1.7310 -1.0157  0.3725
17985TIP3    H275447   1.792   0.808   0.044 -0.9032 -0.9096  0.4835
17986TIP3   OH275448   0.810   6.614   5.479  0.2007  0.0457 -0.0911
17986TIP3    H175449   0.760   6.680   5.528  2.2650  2.1451 -0.6702
17986TIP3    H275450   0.887   6.598   5.533  0.0546 -1.4729 -0.2855
17987TIP3   OH275451   4.494   0.702   5.868 -0.1613 -0.0728  0.3296
17987TIP3    H175452   4.589   0.692   5.874 -0.1288  0.7571  1.4508
17987TIP3    H275453   4.480   0.753   5.788  0.5031  1.5698  1.2122
17988TIP3   OH275454   4.527   3.104   0.544  0.1377  0.2842  0.0345
17988TIP3    H175455   4.485   3.099   0.630  0.6090  0.6024  0.2914
17988TIP3    H275456   4.537   3.198   0.528  1.7764  0.2275  0.5047
17989TIP3   OH275457   5.873   5.839  16.746 -0.2929  0.4543  0.2321
17989TIP3    H175458   5.837   5.790  16.672  0.9275  0.4310 -0.3660
17989TIP3    H275459   5.832   5.925  16.738  0.4097  0.7078 -0.9584
17990TIP3   OH275460   6.395   2.416  16.671 -0.3791  0.0463  0.0270
17990TIP3    H175461   6.483   2.385  16.648  0.1134  1.4416 -0.0412
17990TIP3    H275462   6.341   2.391  16.596  0.2508  0.4172 -0.5629
17991TIP3   OH275463   4.642   4.770  16.218 -0.1530  0.5456  0.0158
17991TIP3    H175464   4.595   4.819  16.150  0.0930  0.1270 -0.4686
17991TIP3    H275465   4.707   4.719  16.169  0.4758  0.7434  0.6264
17992TIP3   OH275466   2.803   6.082   4.566  0.8349 -0.8303  0.1081
17992TIP3    H175467   2.828   6.052   4.478 -2.0479  0.4634 -1.3043
17992TIP3    H275468   2.716   6.045   4.579 -0.3310  1.9238  0.8067
17993TIP3   OH275469   1.763   1.717  14.897  0.5248 -0.0010 -0.4560
17993TIP3    H175470   1.755   1.736  14.804  2.1842 -0.0938 -0.6593
17993TIP3    H275471   1.847   1.756  14.921 -0.6189  1.4733  1.3908
17994TIP3   OH275472   1.514   4.622   5.591  0.1968  0.5069 -0.0277
17994TIP3    H175473   1.530   4.528   5.581  0.6732  0.7328 -1.6201
17994TIP3    H275474   1.577   4.664   5.532  0.8229  1.9017  1.5679
17995TIP3   OH275475   3.026   1.893   4.376 -0.2642  0.4621 -0.1528
17995TIP3    H175476   3.080   1.959   4.333 -0.1516  0.0562 -0.6532
17995TIP3    H275477   2.981   1.940   4.447 -0.2937  1.0978 -0.5859
17996TIP3   OH275478   5.762   3.465  12.504  0.6591  0.0956  0.3816
17996TIP3    H175479   5.844   3.474  12.553  1.3313  0.7413 -0.7998
17996TIP3    H275480   5.707   3.537  12.536  0.4887 -0.4131  1.2672
17997TIP3   OH275481   5.210   2.910   3.182  0.1708  0.4743 -0.1433
17997TIP3    H175482   5.269   2.944   3.249  1.6706  1.8783 -2.0561
17997TIP3    H275483   5.132   2.966   3.188 -0.0044  0.1511  0.8273
17998TIP3   OH275484   6.324   5.693  13.860  0.0583 -0.7246  0.3037
17998TIP3    H175485   6.393   5.649  13.810 -1.3541  0.4227 -2.9568
17998TIP3    H275486   6.243   5.670  13.813 -1.4715  0.1745  2.3488
17999TIP3   OH275487   2.369   3.664   4.030 -0.1695 -0.2780  0.3403
17999TIP3    H175488   2.376   3.746   3.980 -1.2877  0.0565  0.7044
17999TIP3    H275489   2.410   3.684   4.114 -0.9794  0.1006  0.6495
18000TIP3   OH275490   0.262   4.454   2.822 -0.5121  0.1666 -0.4739
18000TIP3    H175491   0.242   4.403   2.901 -1.4411 -3.8462 -3.0136
18000TIP3    H275492   0.348   4.423   2.794  0.0487  1.9237 -0.8530
18001TIP3   OH275493   2.397   4.497  16.843 -0.4704 -0.1441  0.4524
18001TIP3    H175494   2.484   4.457  16.840  0.0239  0.9645 -0.5701
18001TIP3    H275495   2.400   4.554  16.920 -0.1963  0.0951  0.2667
18002TIP3   OH275496   5.229   6.705   3.913  0.0460  0.3569 -0.1497
18002TIP3    H175497   5.200   6.796   3.911  1.2699  0.7591 -0.4529
18002TIP3    H275498   5.217   6.678   4.004 -0.8268  0.6336 -0.1652
18003TIP3   OH275499   1.143   3.869   3.221  0.4025 -0.1042 -0.9861
18003TIP3    H175500   1.230   3.903   3.198  0.3505  1.6158  1.0704
18003TIP3    H275501   1.109   3.833   3.139  2.3697  0.6823 -2.2264
18004TIP3   OH275502   4.342   5.146   4.256  0.1246 -0.0268 -0.0857
18004TIP3    H175503   4.385   5.146   4.341 -0.7867  0.0366  0.3913
18004TIP3    H275504   4.384   5.217   4.208 -0.5623  1.1424  0.9658
18005TIP3   OH275505   1.400   3.073   0.281 -0.0661 -0.0712 -0.0324
18005TIP3    H175506   1.347   3.104   0.208 -0.6884 -0.4451  0.2571
18005TIP3    H275507   1.482   3.122   0.274  0.1056 -0.5131 -1.3191
18006TIP3   OH275508   5.421   1.918   0.849 -0.0841 -0.3791  1.3121
18006TIP3    H175509   5.426   1.841   0.791 -0.8200 -0.3378  1.1900
18006TIP3    H275510   5.512   1.935   0.873  0.4544  0.6152 -1.1450
18007TIP3   OH275511   0.944   3.571  16.735  0.2711 -0.1038  0.3840
18007TIP3    H175512   1.027   3.583  16.782  1.0491 -0.4327 -0.8478
18007TIP3    H275513   0.950   3.629  16.660 -1.2874  0.9891  1.0561
18008TIP3   OH275514   5.284   2.006  11.846  0.3311  0.4822  0.0505
18008TIP3    H175515   5.256   1.924  11.806 -2.2922  0.4745  1.6724
18008TIP3    H275516   5.379   2.006  11.837  0.2536 -1.8499 -1.5981
18009TIP3   OH275517   5.524   4.568   1.231 -0.2503 -0.6406 -0.0286
18009TIP3    H175518   5.596   4.629   1.247  0.5171 -1.5847  0.1628
18009TIP3    H275519   5.504   4.577   1.138 -0.7723  0.5667  0.1792
18010TIP3   OH275520   0.704   5.794   0.774 -0.5993 -0.1293 -0.0330
18010TIP3    H175521   0.630   5.850   0.754 -0.1515  1.0942  1.5498
18010TIP3    H275522   0.688   5.764   0.863  1.3133  1.0745  0.7789
18011TIP3   OH275523   5.992   2.422  10.894  0.6135  0.1011  0.3508
18011TIP3    H175524   6.079   2.459  10.876  0.4794  0.5691  0.6578
18011TIP3    H275525   6.008   2.355  10.961  0.5549  1.1297  1.4182
18012TIP3   OH275526   4.774   0.228  15.416 -0.5315 -0.0308 -0.0297
18012TIP3    H175527   4.859   0.184  15.413 -0.6393 -0.1889 -1.4357
18012TIP3    H275528   4.711   0.156  15.427 -0.5670 -0.0578 -0.3794
18013TIP3   OH275529   6.712   5.143   1.970 -0.4244  0.3302 -0.5790
18013TIP3    H175530   6.644   5.113   2.031  0.8021  0.6889  1.0439
18013TIP3    H275531   6.782   5.079   1.978  0.8591  1.7778  0.4484
18014TIP3   OH275532   1.086   0.475  15.779  0.1821  0.3970  0.1685
18014TIP3    H175533   1.048   0.562  15.793 -2.4864 -0.7633  0.7689
18014TIP3    H275534   1.096   0.468  15.684  1.9044  1.8866  0.1960
18015TIP3   OH275535   5.737   2.459  15.192 -0.0497  0.1326 -0.2546
18015TIP3    H175536   5.679   2.400  15.143 -1.6775  0.2019  1.4680
18015TIP3    H275537   5.797   2.401  15.239 -0.0070 -0.0290 -0.5051
18016TIP3   OH275538   5.895   0.697  12.681 -0.7699  0.5111 -0.0668
18016TIP3    H175539   5.865   0.684  12.591 -0.2591 -0.9432 -0.0587
18016TIP3    H275540   5.917   0.790  12.687 -0.7262  0.6004 -1.4687
18017TIP3   OH275541   0.988   0.346  14.413  0.0499 -0.3933  0.3769
18017TIP3    H175542   1.004   0.251  14.410  3.4352 -0.1239  3.1816
18017TIP3    H275543   1.040   0.382  14.342 -0.3690 -0.5520 -0.0130
18018TIP3   OH275544   0.136   5.230  16.826  0.6476  0.3918 -0.3807
18018TIP3    H175545   0.178   5.186  16.752  2.6141 -0.3882  1.1071
18018TIP3    H275546   0.147   5.170  16.900 -0.9145  1.3021  0.6735
18019TIP3   OH275547   3.679   1.605  14.249 -0.3761 -0.6907 -0.1951
18019TIP3    H175548   3.701   1.569  14.163  1.4030 -0.4987  0.1412
18019TIP3    H275549   3.625   1.538  14.291  0.6684 -1.8003 -0.5892
18020TIP3   OH275550   2.729   3.411  14.143 -0.1326 -0.1024 -0.0070
18020TIP3    H175551   2.727   3.316  14.153 -1.6048 -0.3693 -2.0839
18020TIP3    H275552   2.822   3.433  14.134  0.1477 -1.5999 -1.2077
18021TIP3   OH275553   6.347   0.976   2.764  0.2952 -0.2858 -0.1518
18021TIP3    H175554   6.396   1.057   2.782  0.4042 -0.0140 -1.5875
18021TIP3    H275555   6.370   0.954   2.674 -4.0969  1.2170 -1.9121
18022TIP3   OH275556   5.757   2.597  15.972  0.3570 -0.0022 -0.2536
18022TIP3    H175557   5.703   2.632  16.044  0.2569  0.5719 -0.6045
18022TIP3    H275558   5.696   2.589  15.899  0.6933  0.4591 -0.5938
18023TIP3   OH275559   2.968   5.119  15.131 -0.0055 -0.2083  0.2318
18023TIP3    H175560   2.895   5.067  15.097  0.2515 -0.2755 -0.2254
18023TIP3    H275561   3.014   5.149  15.053  0.9159 -0.8304  0.5197
18024TIP3   OH275562   5.347   0.304  14.728  0.0132  0.1326 -0.1266
18024TIP3    H175563   5.340   0.375  14.791  0.5636  0.0885 -0.0121
18024TIP3    H275564   5.367   0.348  14.645  1.0096  0.0834  0.0671
18025TIP3   OH275565   1.476   5.372  16.723 -0.3516  0.0369 -0.3103
18025TIP3    H175566   1.521   5.451  16.694 -1.6767  1.8037  2.0892
18025TIP3    H275567   1.516   5.352  16.808 -1.1806 -0.8574 -0.1070
18026TIP3   OH275568   6.196   0.501   0.130  0.3883  0.7023 -0.2346
18026TIP3    H175569   6.174   0.593   0.116  0.0407  0.8066  0.8788
18026TIP3    H275570   6.149   0.454   0.061 -0.5352  1.2535 -0.0010
18027TIP3   OH275571   4.468   2.816   5.933  0.2748 -0.7293  0.2006
18027TIP3    H175572   4.378   2.794   5.954 -0.1471  0.5241 -0.2200
18027TIP3    H275573   4.462   2.880   5.862  1.3586  1.5106  1.9914
18028TIP3   OH275574   3.881   1.195   5.808 -0.3854 -0.2665  0.4746
18028TIP3    H175575   3.876   1.199   5.904 -2.9656 -1.0781  0.4588
18028TIP3    H275576   3.880   1.287   5.780 -1.6001 -0.0397  1.2098
18029TIP3   OH275577   4.245   3.008   5.526 -0.2923  0.2952  0.6380
18029TIP3    H175578   4.312   3.027   5.591  0.8695  0.2190 -0.5034
18029TIP3    H275579   4.241   3.086   5.472 -1.5241  0.5103  0.9889
18030TIP3   OH275580   5.965   6.570  14.297 -0.3012  0.1725 -0.8548
18030TIP3    H175581   6.017   6.490  14.284 -1.1726 -0.6483  0.4697
18030TIP3    H275582   5.875   6.539  14.307 -0.3258  0.9666  2.6410
18031TIP3   OH275583   4.543   5.500  13.876  0.7251  0.4437  0.6469
18031TIP3    H175584   4.553   5.457  13.961  2.8242 -1.2275 -0.3575
18031TIP3    H275585   4.633   5.514  13.845  0.0899 -1.2485 -2.3301
18032TIP3   OH275586   6.603   3.692  15.241  0.0101 -0.3803 -0.3293
18032TIP3    H175587   6.564   3.614  15.201  0.5460 -0.3825 -0.8656
18032TIP3    H275588   6.697   3.680  15.228  0.0767  0.4979 -0.6874
18033TIP3   OH275589   2.350   0.676  12.324 -0.2444 -0.0347  0.1698
18033TIP3    H175590   2.329   0.766  12.350  2.0302  0.4422  0.5693
18033TIP3    H275591   2.417   0.648  12.387  0.0626 -1.5267 -0.7758
18034TIP3   OH275592   4.392   2.006   5.834  0.4712  0.9076  0.4935
18034TIP3    H175593   4.310   2.048   5.811 -0.8102 -0.9706  1.3228
18034TIP3    H275594   4.408   1.943   5.763 -0.4619 -0.8413  1.7419
18035TIP3   OH275595   4.716   4.693   0.055  0.4321  0.0896  0.3542
18035TIP3    H175596   4.645   4.757   0.050  1.7091  1.5014 -0.7230
18035TIP3    H275597   4.748   4.686  -0.035 -0.2415 -2.8210  0.2378
18036TIP3   OH275598   0.762   6.327   5.697 -0.3286  0.2196 -0.4000
18036TIP3    H175599   0.769   6.271   5.775 -0.2796 -1.7943 -1.7736
18036TIP3    H275600   0.790   6.413   5.728  1.0313 -0.8032  1.5141
18037TIP3   OH275601   0.295   5.681   3.201  0.5390  0.2054 -0.2986
18037TIP3    H175602   0.343   5.745   3.149  1.5447  0.6092  1.0704
18037TIP3    H275603   0.329   5.692   3.290 -0.7267 -0.8379  0.3488
18038TIP3   OH275604   6.705   0.952   3.846  0.4436 -0.5407  0.6656
18038TIP3    H175605   6.638   0.914   3.789  0.9572 -0.2148 -0.1831
18038TIP3    H275606   6.663   1.030   3.882  0.5367 -0.0281 -0.2984
18039TIP3   OH275607   2.265   5.064  13.804 -0.3528  0.0230 -0.2225
18039TIP3    H175608   2.303   5.014  13.877 -0.9074  0.8339  0.6522
18039TIP3    H275609   2.328   5.133  13.787 -0.2792 -0.0961 -0.4308
18040TIP3   OH275610   2.480   2.408  14.399  0.3012 -0.3715 -0.3247
18040TIP3    H175611   2.550   2.468  14.426 -1.3160  0.7790  1.6063
18040TIP3    H275612   2.519   2.321  14.408  1.7229  0.2633 -0.0352
18041TIP3   OH275613   4.866   0.767   6.189  0.0459 -0.1261 -0.2845
18041TIP3    H175614   4.912   0.797   6.267  0.6441  1.0066 -1.0560
18041TIP3    H275615   4.830   0.846   6.150  1.8474 -0.2875 -2.4931
18042TIP3   OH275616   6.338   3.552   6.590 -0.1481 -0.4792  0.2870
18042TIP3    H175617   6.416   3.503   6.615  0.7132  0.5340 -0.2869
18042TIP3    H275618   6.355   3.580   6.500 -0.3558  1.2850  0.7479
18043TIP3   OH275619   5.685   3.024   5.138  0.1037 -0.0754 -0.2377
18043TIP3    H175620   5.616   2.971   5.099  0.1362 -2.2602  2.3491
18043TIP3    H275621   5.656   3.039   5.228  1.7366  1.3733  0.0989
18044TIP3   OH275622   3.456   6.236  15.671  0.4328  0.2599 -0.4588
18044TIP3    H175623   3.527   6.204  15.726  0.5579 -0.0421 -0.7967
18044TIP3    H275624   3.498   6.262  15.589  0.1037 -0.2614 -0.7960
18045TIP3   OH275625   2.147   5.545   2.452  0.0956 -0.4985  0.4294
18045TIP3    H175626   2.198   5.580   2.379 -0.2218  0.0832  0.4812
18045TIP3    H275627   2.059   5.532   2.416 -0.8540  2.5030  1.4075
18046TIP3   OH275628   3.744   6.752   4.595 -0.0899  0.1624 -0.7064
18046TIP3    H175629   3.763   6.782   4.684 -2.6612  0.1663 -0.0810
18046TIP3    H275630   3.739   6.832   4.543 -1.3667  0.4105 -0.2303
18047TIP3   OH275631   3.416   2.658   3.876 -0.8985 -0.2089  0.3137
18047TIP3    H175632   3.508   2.633   3.885 -0.1687  1.0322 -2.5266
18047TIP3    H275633   3.396   2.706   3.956  0.9172 -0.5309  1.0026
18048TIP3   OH275634   5.805   1.046  13.540  0.2821  0.2452  0.3135
18048TIP3    H175635   5.766   1.032  13.454  0.4275 -0.7631  0.4027
18048TIP3    H275636   5.735   1.088  13.591 -0.2050 -0.2326  0.0461
18049TIP3   OH275637   3.225   4.700   2.642  0.3490  0.1454  0.4434
18049TIP3    H175638   3.180   4.677   2.560  0.6079 -1.8659  0.8051
18049TIP3    H275639   3.190   4.639   2.707  1.3958  0.5558  1.4322
18050TIP3   OH275640   3.178   4.364   4.501 -0.1417 -0.3130  0.5090
18050TIP3    H175641   3.179   4.459   4.492  0.6246 -0.3412  0.2153
18050TIP3    H275642   3.201   4.349   4.593 -1.6827 -0.1955  0.9508
18051TIP3   OH275643   2.134   0.200   0.280 -0.2862  0.0294 -0.5448
18051TIP3    H175644   2.179   0.117   0.262 -1.4033 -1.3200  2.2841
18051TIP3    H275645   2.042   0.181   0.263 -0.4350  1.0437 -0.8865
18052TIP3   OH275646   4.206   6.590   0.543  0.1746 -0.2546  0.7943
18052TIP3    H175647   4.301   6.599   0.536 -0.0341  2.3879  0.5243
18052TIP3    H275648   4.187   6.506   0.502  2.2150 -0.0362 -0.7336
18053TIP3   OH275649   0.223   6.568  15.054 -0.2621 -0.6003 -0.1010
18053TIP3    H175650   0.236   6.491  15.000 -1.4249 -0.8985  0.0208
18053TIP3    H275651   0.206   6.534  15.141 -0.9945 -0.2119 -0.0910
18054TIP3   OH275652   6.554   6.711  10.564 -0.0770  0.1235  0.0301
18054TIP3    H175653   6.510   6.667  10.637  1.2296 -0.1156  0.6956
18054TIP3    H275654   6.511   6.797  10.558  0.0926  0.3148  1.3701
18055TIP3   OH275655   1.859   0.365  12.066 -0.0041 -0.0181 -0.0358
18055TIP3    H175656   1.771   0.329  12.082  0.5643 -1.0180  1.0140
18055TIP3    H275657   1.916   0.288  12.068  0.8272  0.5377 -1.3779
18056TIP3   OH275658   2.908   3.906   6.528 -0.0846  0.5118  0.4066
18056TIP3    H175659   2.880   3.907   6.620 -0.0142 -2.1771  0.5407
18056TIP3    H275660   2.976   3.838   6.525  1.7408  2.3021 -1.1860
18057TIP3   OH275661   6.072   5.018  13.449  0.8003 -0.0302 -0.2069
18057TIP3    H175662   5.982   5.048  13.463 -0.2628 -2.4794 -1.2461
18057TIP3    H275663   6.099   5.058  13.367  0.0057 -0.6349 -0.7710
18058TIP3   OH275664   3.271   5.173  17.116  0.2730  0.1985 -0.3425
18058TIP3    H175665   3.207   5.139  17.053 -0.2085  0.6020 -0.0726
18058TIP3    H275666   3.228   5.248  17.156  1.7863  2.0031 -1.8551
18059TIP3   OH275667   5.613   4.538  15.393  0.6892  0.0576  0.3630
18059TIP3    H175668   5.573   4.461  15.432 -0.2265  0.4429  0.2045
18059TIP3    H275669   5.677   4.568  15.458  2.1204 -1.6530 -0.1714
18060TIP3   OH275670   3.076   4.425  15.985 -0.5678 -0.8950 -0.0099
18060TIP3    H175671   3.083   4.420  15.890 -0.2873 -0.8919  0.0078
18060TIP3    H275672   3.156   4.383  16.017 -1.2198 -1.9526  0.2459
18061TIP3   OH275673   2.078   0.462  12.490  0.2155 -0.8062  0.0878
18061TIP3    H175674   1.998   0.470  12.542  0.7545 -0.1790  0.8350
18061TIP3    H275675   2.067   0.525  12.419 -0.2869 -1.2747 -0.2516
18062TIP3   OH275676   6.443   3.219   1.015 -0.8304 -0.4734 -0.3662
18062TIP3    H175677   6.507   3.157   1.050  0.0333  1.5111  1.8922
18062TIP3    H275678   6.413   3.268   1.092 -2.1145  1.2927 -1.8961
18063TIP3   OH275679   3.521   1.222  15.428  0.4103 -0.3969  0.0393
18063TIP3    H175680   3.595   1.283  15.432  0.0796 -0.0377  1.0214
18063TIP3    H275681   3.467   1.245  15.503  0.4910 -2.1610  0.6917
18064TIP3   OH275682   4.157   0.307  11.518  0.0555 -0.1093  0.5799
18064TIP3    H175683   4.085   0.271  11.467  1.4680 -3.0290  0.4074
18064TIP3    H275684   4.119   0.326  11.604 -0.8561 -2.0026  0.6353
18065TIP3   OH275685   5.312   5.490   4.533 -0.2615  0.3642 -0.5691
18065TIP3    H175686   5.267   5.560   4.487  0.9025  0.7936 -1.1067
18065TIP3    H275687   5.280   5.496   4.623  0.2940  2.0538 -0.4317
18066TIP3   OH275688   5.340   4.760   1.435 -0.1288  0.4210 -0.0127
18066TIP3    H175689   5.397   4.793   1.505  1.0323  0.4566 -0.9420
18066TIP3    H275690   5.396   4.700   1.386 -0.5964  1.1954 -1.5310
18067TIP3   OH275691   0.099   6.322   5.206 -0.0873 -0.2459  0.2955
18067TIP3    H175692   0.005   6.308   5.214 -0.4076  0.7078 -1.4063
18067TIP3    H275693   0.127   6.258   5.140  0.3975 -0.2787  0.5299
18068TIP3   OH275694   1.274   3.524  14.341  0.0750 -0.4073 -0.3282
18068TIP3    H175695   1.232   3.589  14.284  0.2600 -0.0881 -0.1035
18068TIP3    H275696   1.210   3.508  14.410  0.3435  0.1308  0.0515
18069TIP3   OH275697   5.987   1.201   4.205  0.2547 -0.2339  0.3034
18069TIP3    H175698   5.908   1.156   4.236  0.2765 -1.1172 -0.8393
18069TIP3    H275699   5.954   1.279   4.160  0.2608  1.5963  3.2058
18070TIP3   OH275700   2.796   2.136  15.058 -0.0033  0.1469 -0.0314
18070TIP3    H175701   2.851   2.115  15.133 -0.0182 -0.7103 -0.2508
18070TIP3    H275702   2.710   2.157  15.096  0.4633  1.5491  0.3177
18071TIP3   OH275703   5.613   2.513   1.801  0.0363  0.3937  0.3572
18071TIP3    H175704   5.558   2.471   1.734  0.2416  0.2223  0.2962
18071TIP3    H275705   5.694   2.463   1.800 -0.1068  0.1268  1.0183
18072TIP3   OH275706   6.058   4.674   3.864 -0.3805 -0.1375 -0.1771
18072TIP3    H175707   6.151   4.656   3.854 -0.1631  1.0212 -0.3655
18072TIP3    H275708   6.054   4.762   3.901 -1.3951 -0.3148  0.1737
18073TIP3   OH275709   2.085   1.307   1.226  0.5915  0.3420  0.2822
18073TIP3    H175710   2.054   1.394   1.249  0.7991  0.7485 -0.9184
18073TIP3    H275711   2.015   1.248   1.255  0.8052  0.7934  1.8554
18074TIP3   OH275712   1.280   2.994  14.870  0.2730  0.3284  0.3666
18074TIP3    H175713   1.354   3.054  14.880 -0.0076  0.4621  1.8366
18074TIP3    H275714   1.273   2.950  14.955 -0.1900 -1.0287 -0.3478
18075TIP3   OH275715   5.253   4.082  14.562  0.1577 -0.1579  0.0139
18075TIP3    H175716   5.290   4.086  14.650 -1.0802  0.1608  0.5346
18075TIP3    H275717   5.273   3.993  14.532 -0.3740 -0.6413  1.0547
18076TIP3   OH275718   4.925   0.155   3.177  0.1615 -0.1478  0.0364
18076TIP3    H175719   4.831   0.141   3.188  0.3947  0.4523  4.7209
18076TIP3    H275720   4.931   0.234   3.122 -1.9401 -0.8936 -1.3874
18077TIP3   OH275721   2.323   4.221  17.097 -0.1527 -0.2091 -0.3976
18077TIP3    H175722   2.320   4.173  17.180 -0.9604  1.2583  0.4802
18077TIP3    H275723   2.322   4.313  17.124 -2.3437  0.3215 -2.0583
18078TIP3   OH275724   3.577   6.581  13.738  0.0016 -0.3432  0.1514
18078TIP3    H175725   3.505   6.520  13.725  0.3405 -0.5482 -0.8318
18078TIP3    H275726   3.557   6.655  13.681  0.5038 -0.3524 -0.0478
18079TIP3   OH275727   0.935   2.000  16.263 -0.0192  0.2095 -0.3347
18079TIP3    H175728   0.877   1.942  16.214 -0.8581  0.8386 -0.1119
18079TIP3    H275729   1.021   1.958  16.259 -0.9043 -1.9492  1.2457
18080TIP3   OH275730   0.201   5.921  16.762 -0.2883  0.7987 -0.0743
18080TIP3    H175731   0.186   5.972  16.682 -1.6111  1.5671  0.6304
18080TIP3    H275732   0.294   5.897  16.758 -0.1527  1.4420 -1.4692
18081TIP3   OH275733   3.663   0.611  10.859 -0.0250  0.3787 -0.1288
18081TIP3    H175734   3.714   0.661  10.923  0.3491  2.2775 -1.8293
18081TIP3    H275735   3.572   0.632  10.879  0.0306  0.1862  0.3581
18082TIP3   OH275736   0.104   2.112   1.380  0.1808  0.0522 -0.1307
18082TIP3    H175737   0.074   2.075   1.297 -0.0261  0.4709 -0.2473
18082TIP3    H275738   0.146   2.039   1.425  2.7568  0.4026 -1.7520
18083TIP3   OH275739   2.542   1.559   4.718  0.1150  0.4809  0.2682
18083TIP3    H175740   2.502   1.493   4.775 -1.4431 -0.1620 -1.4870
18083TIP3    H275741   2.492   1.639   4.736 -0.9639  0.0666 -0.7681
18084TIP3   OH275742   4.569   1.517   3.536  0.1015 -0.3167 -0.1658
18084TIP3    H175743   4.526   1.431   3.531 -0.3820 -0.1023  0.2525
18084TIP3    H275744   4.655   1.498   3.573 -0.0952 -0.5921  0.1593
18085TIP3   OH275745   5.244   1.345  14.727 -0.2844 -0.1206 -0.3911
18085TIP3    H175746   5.315   1.317  14.670  0.0730 -0.3526  0.1633
18085TIP3    H275747   5.261   1.302  14.811 -1.8526 -1.3316 -0.6357
18086TIP3   OH275748   5.243   3.464  16.157 -0.2407  0.0006 -0.1720
18086TIP3    H175749   5.218   3.374  16.179  0.7529 -0.6078 -1.3807
18086TIP3    H275750   5.203   3.518  16.225 -2.1841 -1.1869 -0.3071
18087TIP3   OH275751   0.336   5.712  14.069  0.2932 -0.2131 -0.4919
18087TIP3    H175752   0.429   5.734  14.066  0.1773  0.4328  0.4020
18087TIP3    H275753   0.312   5.718  14.162 -1.1580  1.9286 -0.9126
18088TIP3   OH275754   6.146   1.438   2.324 -0.2753 -0.0334 -0.2511
18088TIP3    H175755   6.101   1.510   2.368 -0.9460  0.9038 -2.3535
18088TIP3    H275756   6.239   1.458   2.334 -0.3395 -0.3669  1.4811
18089TIP3   OH275757   3.702   5.514  16.410 -0.0450 -0.2390 -0.2551
18089TIP3    H175758   3.640   5.577  16.448 -1.1348 -1.1098 -0.5607
18089TIP3    H275759   3.786   5.560  16.414 -0.5420  0.6515  0.9352
18090TIP3   OH275760   5.862   2.713  15.164 -0.4014  0.3195 -0.0270
18090TIP3    H175761   5.799   2.785  15.173  0.2860  1.0292 -0.7559
18090TIP3    H275762   5.822   2.640  15.210 -1.0654  1.2069  0.8284
18091TIP3   OH275763   5.761   5.709  11.837 -0.4762  0.1155  0.1186
18091TIP3    H175764   5.822   5.782  11.845  2.2341 -1.7744 -1.5459
18091TIP3    H275765   5.705   5.715  11.914  0.3470  3.2590  0.5741
18092TIP3   OH275766   2.706   4.955   0.505  0.8278  0.6587  0.5061
18092TIP3    H175767   2.751   5.021   0.559  0.3970 -2.0350  4.5796
18092TIP3    H275768   2.768   4.882   0.501 -0.4355 -0.4215  0.0709
18093TIP3   OH275769   5.778   6.362  13.604  0.1122 -0.4921  0.5090
18093TIP3    H175770   5.830   6.336  13.528 -0.0623 -1.3495  0.6764
18093TIP3    H275771   5.835   6.345  13.679 -0.4445 -1.6117  0.7085
18094TIP3   OH275772   6.140   5.483  16.848 -0.1989  0.0098  0.1270
18094TIP3    H175773   6.074   5.545  16.879 -0.5104 -0.6865  0.9182
18094TIP3    H275774   6.217   5.501  16.903 -0.0412  0.1961 -0.1551
18095TIP3   OH275775   0.677   2.794   5.118  0.1779  0.0129  0.9754
18095TIP3    H175776   0.594   2.748   5.131  0.2029 -0.3952 -0.2122
18095TIP3    H275777   0.689   2.796   5.023 -0.6369  3.9149  0.7847
18096TIP3   OH275778   4.751   0.987  16.082  0.5579  0.0283 -0.0719
18096TIP3    H175779   4.663   0.957  16.062  0.6397  0.1303 -0.6038
18096TIP3    H275780   4.745   1.026  16.169  0.3446 -1.0882  0.4369
18097TIP3   OH275781   4.149   3.609  12.824  0.2997  0.6216 -0.0213
18097TIP3    H175782   4.199   3.629  12.744 -0.7443  0.4780 -0.7198
18097TIP3    H275783   4.058   3.627  12.800 -0.1336 -0.3872  0.8296
18098TIP3   OH275784   3.205   0.807  12.693 -0.2416  0.3882 -0.0698
18098TIP3    H175785   3.280   0.779  12.744 -0.7490 -0.3940  0.2607
18098TIP3    H275786   3.203   0.748  12.618 -1.5443 -0.7821  0.8314
18099TIP3   OH275787   0.926   4.570   2.300  0.4612 -0.0318  0.4313
18099TIP3    H175788   0.858   4.578   2.232 -1.0610 -0.0611  1.8974
18099TIP3    H275789   0.907   4.641   2.361  0.5028 -1.2469  1.9142
18100TIP3   OH275790   0.418   6.230   0.172  0.1386  0.4126  0.2080
18100TIP3    H175791   0.350   6.165   0.149  0.0012  0.0704  1.5238
18100TIP3    H275792   0.497   6.198   0.128  0.6147 -1.8990  2.5034
18101TIP3   OH275793   2.708   2.502   7.049 -0.1573  0.4999 -0.8159
18101TIP3    H175794   2.677   2.458   6.969  1.0164 -2.6976  0.3548
18101TIP3    H275795   2.693   2.439   7.119  1.1411  2.2247  1.1391
18102TIP3   OH275796   1.768   1.171  12.020  0.5789  0.2383  0.4577
18102TIP3    H175797   1.809   1.175  12.106  0.4390  1.2469  0.4832
18102TIP3    H275798   1.795   1.251  11.976  0.1432  0.0280 -0.2135
18103TIP3   OH275799   1.080   3.951   4.214  0.4185  0.6473 -0.1774
18103TIP3    H175800   1.097   4.042   4.238 -0.4217  0.5017  1.0730
18103TIP3    H275801   1.132   3.899   4.276 -0.1353  0.2711 -0.0171
18104TIP3   OH275802   0.338   0.704   4.991  0.5611  0.6524 -0.1480
18104TIP3    H175803   0.282   0.735   4.921  1.0706  3.9617  0.7451
18104TIP3    H275804   0.391   0.635   4.951 -1.8082 -0.3107 -1.8541
18105TIP3   OH275805   6.080   0.237  13.802 -0.5063  0.8685  0.7296
18105TIP3    H175806   6.042   0.264  13.718 -1.0678  3.6600  1.7734
18105TIP3    H275807   6.007   0.194  13.848 -0.6073  0.6093  0.3276
18106TIP3   OH275808   1.896   2.800   3.085 -0.3353 -0.1423 -0.6842
18106TIP3    H175809   1.991   2.809   3.077 -0.4762  1.2504 -1.0927
18106TIP3    H275810   1.863   2.818   2.997 -0.9749 -0.9702 -0.6295
18107TIP3   OH275811   0.736   4.201   4.734 -0.8830  0.0071 -0.2250
18107TIP3    H175812   0.723   4.109   4.713 -0.2670 -0.2040  0.2857
18107TIP3    H275813   0.809   4.201   4.797  0.0106  0.9317 -1.2146
18108TIP3   OH275814   4.394   1.738  12.406  0.2201 -0.3915 -0.2367
18108TIP3    H175815   4.394   1.642  12.399  1.8644 -0.4192 -0.2115
18108TIP3    H275816   4.477   1.759  12.449 -0.3885  1.0224  0.3238
18109TIP3   OH275817   4.651   2.344   6.278 -0.0201  0.4165 -0.1219
18109TIP3    H175818   4.578   2.323   6.336 -0.5352  0.9885 -0.5562
18109TIP3    H275819   4.656   2.439   6.279  0.8254  0.3817  0.0241
18110TIP3   OH275820   1.879   4.774  14.772 -0.1405 -0.3106 -0.7107
18110TIP3    H175821   1.882   4.680  14.753 -0.3904 -0.0866 -1.9473
18110TIP3    H275822   1.793   4.801  14.740  0.5506  0.6290 -1.8440
18111TIP3   OH275823   0.807   1.674   2.458  0.1947 -0.5005  0.0110
18111TIP3    H175824   0.891   1.628   2.449  0.1243 -0.9514  1.4083
18111TIP3    H275825   0.755   1.619   2.517 -0.0473  1.1152  1.3932
18112TIP3   OH275826   0.683   5.464   4.357 -0.8680  0.1823 -0.2102
18112TIP3    H175827   0.688   5.396   4.424 -0.9205  1.3529  1.0204
18112TIP3    H275828   0.679   5.416   4.274  3.2459 -1.3681  0.2264
18113TIP3   OH275829   6.453   4.262   2.612 -0.0942  0.1971 -0.4031
18113TIP3    H175830   6.403   4.310   2.546  0.7362  0.9515 -0.5064
18113TIP3    H275831   6.459   4.173   2.577 -1.0977  0.1647 -0.5195
18114TIP3   OH275832   0.597   4.992  13.725  0.2249 -0.0616 -0.1880
18114TIP3    H175833   0.650   4.914  13.741 -0.7205 -0.4142  1.4476
18114TIP3    H275834   0.660   5.065  13.729  0.6557 -0.4894  1.4176
18115TIP3   OH275835   3.494   4.894   0.837 -0.4298 -0.2983 -0.5375
18115TIP3    H175836   3.478   4.838   0.761 -2.1501 -0.7008  0.0596
18115TIP3    H275837   3.438   4.857   0.905  0.6655  0.3786  0.7667
18116TIP3   OH275838   0.653   3.244   2.355  0.5592 -0.0054  0.0688
18116TIP3    H175839   0.577   3.212   2.306  0.5488 -0.9704  0.7028
18116TIP3    H275840   0.714   3.274   2.287 -0.6628  1.4947 -0.4281
18117TIP3   OH275841   0.650   0.720  10.553  0.0870 -0.0447  0.1753
18117TIP3    H175842   0.733   0.768  10.544  1.0196 -1.5342  0.4640
18117TIP3    H275843   0.677   0.630  10.570 -1.6156 -0.5789  0.1629
18118TIP3   OH275844   4.457   3.400  13.184 -0.1059 -0.4312 -0.5976
18118TIP3    H175845   4.381   3.458  13.181  0.9718  1.1638  0.7760
18118TIP3    H275846   4.517   3.442  13.246  1.7430 -1.8121 -1.3374
18119TIP3   OH275847   5.053   5.021   5.897 -0.3941  0.2287  0.6940
18119TIP3    H175848   5.045   5.004   5.803 -1.5169  1.0292  0.6256
18119TIP3    H275849   5.093   4.941   5.932  1.4555  0.4828 -0.6481
18120TIP3   OH275850   5.257   1.424   1.929  0.7343 -0.4495  0.5718
18120TIP3    H175851   5.256   1.352   1.992 -0.8896 -1.6640 -0.7500
18120TIP3    H275852   5.197   1.490   1.966 -1.3181 -1.7524 -0.2640
18121TIP3   OH275853   5.478   0.007  15.196  0.4352 -1.3591 -0.4091
18121TIP3    H175854   5.519   0.059  15.127  0.0158 -0.5987 -0.1071
18121TIP3    H275855   5.447  -0.072  15.152 -0.4120 -0.5879 -1.2360
18122TIP3   OH275856   1.436   5.263  11.754 -0.3626  0.3919 -0.4758
18122TIP3    H175857   1.449   5.358  11.747  0.4102  0.1727 -2.9110
18122TIP3    H275858   1.364   5.244  11.693  1.0911 -0.8472 -1.8846
18123TIP3   OH275859   4.359   2.925   6.407 -0.3523  0.2446 -0.0056
18123TIP3    H175860   4.290   2.952   6.467 -1.3839 -1.9120 -0.1380
18123TIP3    H275861   4.346   2.831   6.395  1.6463  0.0610 -1.2915
18124TIP3   OH275862   6.377   4.536  11.513  0.2250  0.0692 -0.2192
18124TIP3    H175863   6.443   4.605  11.521  1.8471 -1.3355 -0.8110
18124TIP3    H275864   6.315   4.569  11.448  0.8122  1.0894 -0.2827
18125TIP3   OH275865   5.669   3.202   3.797  0.6341  0.6695  0.1209
18125TIP3    H175866   5.591   3.175   3.748  0.1445  2.2488 -0.0202
18125TIP3    H275867   5.680   3.134   3.864  1.4710 -1.7075 -2.2665
18126TIP3   OH275868   4.317   5.522  16.442  0.4573 -0.0828  0.1954
18126TIP3    H175869   4.274   5.603  16.414 -1.5712 -1.3701 -0.6640
18126TIP3    H275870   4.307   5.520  16.537  0.5853  0.7102  0.2246
18127TIP3   OH275871   5.311   4.564  15.542 -0.0468  0.3406 -0.0623
18127TIP3    H175872   5.270   4.573  15.628  1.3395  1.2616  0.5326
18127TIP3    H275873   5.382   4.502  15.556 -0.2256 -0.0240 -0.7184
18128TIP3   OH275874   2.814   6.137  16.918  0.0123 -0.0641 -0.3478
18128TIP3    H175875   2.879   6.102  16.857  1.0972  0.4748  0.4503
18128TIP3    H275876   2.833   6.092  17.001 -0.2140  0.5537  0.0488
18129TIP3   OH275877   2.902   6.354   2.870  0.3924  0.9085  0.0723
18129TIP3    H175878   2.861   6.408   2.802  0.5173 -0.7374 -1.3762
18129TIP3    H275879   2.853   6.374   2.949 -0.7462  1.7886 -0.8140
18130TIP3   OH275880   0.406   2.692  16.820 -0.9296 -0.2723 -0.6139
18130TIP3    H175881   0.422   2.786  16.828  4.4370 -0.6980 -2.1331
18130TIP3    H275882   0.455   2.653  16.893 -1.4812 -1.9357 -1.0846
18131TIP3   OH275883   1.993   0.432   0.146  0.3957  0.0069  0.2843
18131TIP3    H175884   2.088   0.419   0.151  0.3571 -1.9279 -2.1185
18131TIP3    H275885   1.957   0.343   0.151 -1.2868  0.6770  0.7196
18132TIP3   OH275886   2.697   0.921   0.159 -0.0674  0.6511 -0.7849
18132TIP3    H175887   2.620   0.865   0.153 -0.1179  0.7607 -1.2290
18132TIP3    H275888   2.770   0.861   0.174 -0.2470  0.5534 -0.2836
18133TIP3   OH275889   2.884   2.283  11.671 -0.4927  0.5561 -0.6212
18133TIP3    H175890   2.901   2.195  11.704  0.3697 -0.4055 -3.3714
18133TIP3    H275891   2.863   2.334  11.749 -0.7282 -1.9905  1.0986
18134TIP3   OH275892   6.722   3.973   4.056  0.5943  0.2583  0.3524
18134TIP3    H175893   6.725   3.974   3.961 -1.1782  1.5796  0.2598
18134TIP3    H275894   6.649   4.031   4.079  1.4609  0.5949  2.5354
18135TIP3   OH275895   5.656   3.277  15.570 -0.0853  0.2859 -0.3344
18135TIP3    H175896   5.743   3.287  15.608  0.7676  0.3336 -2.1596
18135TIP3    H275897   5.616   3.364  15.576 -0.1726  0.1691  0.8664
18136TIP3   OH275898   4.953   0.938   1.244 -0.4338  0.0445  0.5869
18136TIP3    H175899   4.927   0.926   1.336  0.1438  0.1373  0.7672
18136TIP3    H275900   5.046   0.915   1.243 -0.6526 -0.8971 -0.1649
18137TIP3   OH275901   1.622   1.166  11.130  0.5297 -0.4636 -0.5037
18137TIP3    H175902   1.707   1.210  11.130  0.0055  0.5928 -0.2344
18137TIP3    H275903   1.640   1.080  11.169  1.5914 -0.5379 -1.1081
18138TIP3   OH275904   0.458   4.437   3.154  0.2138  0.5234 -0.1351
18138TIP3    H175905   0.421   4.349   3.142  1.9728 -0.6981  2.5081
18138TIP3    H275906   0.550   4.422   3.176  0.6106  3.0578  0.2228
18139TIP3   OH275907   6.459   4.292  14.687  0.1245  0.8221  0.3125
18139TIP3    H175908   6.502   4.223  14.737 -0.9765 -0.0311  0.1269
18139TIP3    H275909   6.470   4.371  14.740  1.2022  0.4674  0.6376
18140TIP3   OH275910   0.645   6.454  17.078  0.6685  0.3873 -0.2909
18140TIP3    H175911   0.598   6.372  17.066 -1.3153  1.4650 -0.4968
18140TIP3    H275912   0.700   6.440  17.155  0.9380 -1.3362 -0.7726
18141TIP3   OH275913   1.921   1.179  16.450 -0.7692 -0.4235  0.2245
18141TIP3    H175914   1.875   1.242  16.393 -0.4739 -0.5314 -0.1384
18141TIP3    H275915   1.947   1.231  16.526  0.8924  0.3150 -0.7847
18142TIP3   OH275916   5.715   6.043   0.682 -0.1715 -0.7185 -0.3047
18142TIP3    H175917   5.629   6.012   0.653 -0.6171 -2.4795  2.5261
18142TIP3    H275918   5.776   6.010   0.616 -1.4954 -0.5052 -1.7080
18143TIP3   OH275919   2.139   1.603   5.538  0.6464  0.1817 -0.1093
18143TIP3    H175920   2.066   1.571   5.484 -0.5536  0.7864  1.0963
18143TIP3    H275921   2.143   1.697   5.520 -0.6732  0.6642  1.7962
18144TIP3   OH275922   6.570   1.681   4.105  0.3691  0.3077  0.3348
18144TIP3    H175923   6.663   1.699   4.095  1.0044 -1.1669  2.6514
18144TIP3    H275924   6.526   1.743   4.047  2.7313  1.8043  0.0463
18145TIP3   OH275925   3.106   1.982  16.829 -0.1770 -0.2832  0.1104
18145TIP3    H175926   3.157   1.948  16.903  0.3626 -1.6016 -0.8294
18145TIP3    H275927   3.107   1.911  16.765 -1.8102  0.3003 -0.6083
18146TIP3   OH275928   2.364   3.843  14.889 -0.4991 -0.6764 -0.0975
18146TIP3    H175929   2.285   3.845  14.834 -0.2075  0.8140 -0.5028
18146TIP3    H275930   2.339   3.788  14.963 -1.6513 -0.9005 -0.6171
18147TIP3   OH275931   4.576   2.775   3.586 -0.1201 -0.2523 -0.3400
18147TIP3    H175932   4.517   2.838   3.543  0.4871  1.3657  1.0544
18147TIP3    H275933   4.663   2.799   3.556  0.2086  0.2198  0.9150
18148TIP3   OH275934   3.089   4.782  12.137  0.7503 -0.4481  0.4660
18148TIP3    H175935   3.039   4.700  12.140  1.3439 -0.7817  2.0255
18148TIP3    H275936   3.103   4.805  12.229 -0.7864  2.2855  0.1069
18149TIP3   OH275937   4.229   5.810  15.730 -0.4699  0.4168  0.0814
18149TIP3    H175938   4.138   5.838  15.743 -1.0436 -0.4021 -1.7599
18149TIP3    H275939   4.270   5.884  15.684 -0.1506  0.8163  0.9758
18150TIP3   OH275940   2.753   0.079  12.299 -0.9847  0.3286 -0.4740
18150TIP3    H175941   2.683   0.014  12.309 -1.1234  0.5526  0.0677
18150TIP3    H275942   2.827   0.029  12.265 -1.1148 -0.0993 -0.1466
18151TIP3   OH275943   4.694   0.968   3.599 -0.0427  0.0937  0.4367
18151TIP3    H175944   4.681   0.888   3.651  0.1735 -0.0314  0.3004
18151TIP3    H275945   4.783   0.960   3.565 -0.0567  0.3455  0.3370
18152TIP3   OH275946   0.075   4.130   5.195  0.7637 -0.4797 -0.5607
18152TIP3    H175947   0.065   4.223   5.212  1.2060 -0.3959 -0.7575
18152TIP3    H275948  -0.014   4.099   5.179  0.6528 -0.0296 -0.8209
18153TIP3   OH275949   2.725   4.765  13.457  0.5451  0.3315  0.0422
18153TIP3    H175950   2.819   4.747  13.451  0.6518  0.4880  1.1444
18153TIP3    H275951   2.690   4.695  13.512  0.3313  1.2674  1.1466
18154TIP3   OH275952   3.570   6.633   2.387 -0.2257  0.1912 -0.2034
18154TIP3    H175953   3.566   6.547   2.345  0.0806 -0.4518  1.0390
18154TIP3    H275954   3.523   6.692   2.327 -0.4556 -0.8412 -1.0560
18155TIP3   OH275955   6.283   5.654  12.113 -0.3413  0.2889  0.1752
18155TIP3    H175956   6.357   5.714  12.101 -0.6907  0.6523 -0.2347
18155TIP3    H275957   6.223   5.677  12.042 -0.8446 -0.0053  0.5027
18156TIP3   OH275958   1.014   1.935  12.847 -0.2492 -0.3685  0.1725
18156TIP3    H175959   0.936   1.921  12.794  0.4328 -2.1277 -0.4482
18156TIP3    H275960   1.050   1.847  12.860  1.8725  0.4269  0.0430
18157TIP3   OH275961   2.691   1.862  12.568  0.1063 -0.3027 -0.4387
18157TIP3    H175962   2.619   1.803  12.546  0.2261 -0.8486  0.5784
18157TIP3    H275963   2.670   1.894  12.656 -0.0175  1.2912 -1.0046
18158TIP3   OH275964   4.664   4.854   1.400  0.1363  0.1720  0.1817
18158TIP3    H175965   4.703   4.815   1.322  1.0716 -1.1813  1.2730
18158TIP3    H275966   4.655   4.947   1.379  1.5868  0.0661 -1.0472
18159TIP3   OH275967   5.381   3.941  15.019  0.2980 -0.0118 -0.7843
18159TIP3    H175968   5.374   3.992  14.939 -0.4011 -0.2712 -0.8937
18159TIP3    H275969   5.413   3.856  14.991 -0.1794 -0.1813 -0.8249
18160TIP3   OH275970   0.712   1.121   2.716 -0.6374  0.3802 -0.8691
18160TIP3    H175971   0.800   1.157   2.712 -0.1771 -0.4265  0.7290
18160TIP3    H275972   0.672   1.142   2.632  0.3030  2.6999 -0.7950
18161TIP3   OH275973   3.742   0.438   1.954 -0.2073 -0.0510 -0.2703
18161TIP3    H175974   3.765   0.404   2.041  0.2591 -0.1353 -0.4279
18161TIP3    H275975   3.757   0.365   1.894 -1.6000 -0.3586 -0.2937
18162TIP3   OH275976   2.113   3.781   0.327 -0.3166 -0.0901  0.1386
18162TIP3    H175977   2.164   3.701   0.345 -0.6966 -0.4008 -0.1368
18162TIP3    H275978   2.102   3.822   0.413  0.2617 -0.1005  0.2248
18163TIP3   OH275979   4.873   3.724   1.405 -0.0031 -0.7919  0.1257
18163TIP3    H175980   4.935   3.796   1.392 -0.5664 -0.4415 -0.7368
18163TIP3    H275981   4.833   3.743   1.490  1.0165 -0.9944  0.6640
18164TIP3   OH275982   6.259   6.534  14.830 -0.2189  0.3308  0.0805
18164TIP3    H175983   6.202   6.586  14.773  1.0288  1.0672 -0.5494
18164TIP3    H275984   6.309   6.479  14.771  0.6088  0.6038  0.5071
18165TIP3   OH275985   3.530   5.889   0.515  0.0973  0.2095  0.2001
18165TIP3    H175986   3.529   5.951   0.588  1.5007  0.5352 -0.0228
18165TIP3    H275987   3.469   5.927   0.451 -1.3427 -0.2066  1.2561
18166TIP3   OH275988   5.480   0.989  12.975 -0.2420  0.6383 -0.4083
18166TIP3    H175989   5.497   0.902  13.011 -1.1867 -0.5495 -2.6307
18166TIP3    H275990   5.562   1.013  12.931  1.1457  2.3767  2.7741
18167TIP3   OH275991   2.090   2.202   6.216 -0.5265  0.1458  0.3636
18167TIP3    H175992   2.096   2.177   6.308  0.5091  0.1794  0.3189
18167TIP3    H275993   2.003   2.171   6.188  0.0697 -2.0173  0.7101
18168TIP3   OH275994   0.816   1.488  17.055  0.1853 -0.0792  0.1027
18168TIP3    H175995   0.851   1.576  17.067 -0.5937  0.3659 -0.8005
18168TIP3    H275996   0.894   1.431  17.055  1.0210  0.9319 -2.3214
18169TIP3   OH275997   0.999   6.756   5.317  0.5448  0.6189 -0.3896
18169TIP3    H175998   0.958   6.693   5.376  0.2316  0.4070 -0.8288
18169TIP3    H275999   0.941   6.759   5.241  0.8886  0.9695 -0.6417
18170TIP3   OH276000   5.977   1.078   3.799  0.0265 -0.5272  0.1974
18170TIP3    H176001   6.009   1.050   3.884 -0.6519  1.5362  1.2087
18170TIP3    H276002   6.041   1.045   3.736  1.3406 -0.8234  1.6472
18171TIP3   OH276003   1.181   3.661  12.009  0.6692  0.1384  0.4252
18171TIP3    H176004   1.193   3.613  12.091 -0.9178 -2.1814 -0.5998
18171TIP3    H276005   1.219   3.604  11.942 -0.6565  0.5995 -0.7671
18172TIP3   OH276006   3.770   6.159   1.779 -0.1272  0.1252 -0.2653
18172TIP3    H176007   3.732   6.095   1.839 -4.2004  0.1423 -2.5162
18172TIP3    H276008   3.823   6.106   1.719 -1.4984 -0.8590 -0.6510
18173TIP3   OH276009   6.298   6.612  13.125  0.1996 -0.5919 -0.7023
18173TIP3    H176010   6.227   6.548  13.119  0.7141 -1.1550 -0.7349
18173TIP3    H276011   6.374   6.569  13.087  1.6468 -1.5446  2.8571
18174TIP3   OH276012   3.028   1.600   3.759  0.0715  0.2048  0.5703
18174TIP3    H176013   2.998   1.520   3.717  0.5210 -0.3245  1.2476
18174TIP3    H276014   3.112   1.577   3.798 -0.8318  0.3388  2.7276
18175TIP3   OH276015   6.590   3.858  14.505  0.0958 -0.1129  0.2281
18175TIP3    H176016   6.633   3.818  14.429  2.0333 -0.4199  1.4148
18175TIP3    H276017   6.639   3.939  14.521 -2.4988  1.8195 -0.8963
18176TIP3   OH276018   4.419   4.006   0.723  0.5547 -0.4982  0.0004
18176TIP3    H176019   4.462   3.970   0.645 -1.0432  0.7001 -1.5163
18176TIP3    H276020   4.435   4.100   0.718  0.9537 -0.4665  1.5015
18177TIP3   OH276021   5.390   5.382  13.480 -0.3108 -0.6773 -0.0171
18177TIP3    H176022   5.336   5.406  13.405 -1.5548 -0.6333  0.8562
18177TIP3    H276023   5.419   5.293  13.461 -0.1937 -0.4850 -0.7770
18178TIP3   OH276024   3.558   2.955   4.875  0.1793 -0.4568 -0.8632
18178TIP3    H176025   3.510   2.970   4.957  2.4166  0.2837  0.4016
18178TIP3    H276026   3.622   2.888   4.897  2.8585  1.8473 -0.9800
18179TIP3   OH276027   2.470   3.487   0.211 -0.8207 -0.1035  0.6253
18179TIP3    H176028   2.509   3.474   0.298 -1.6621  0.9899  1.2005
18179TIP3    H276029   2.494   3.576   0.187 -0.4534 -0.4615 -0.3509
18180TIP3   OH276030   2.163   1.031  11.069 -0.0483  0.4726  0.1468
18180TIP3    H176031   2.082   1.041  11.020  0.7703 -1.0023 -1.6581
18180TIP3    H276032   2.228   1.081  11.019  0.4878  0.2140  0.5712
18181TIP3   OH276033   2.355   2.596   2.354 -0.4129 -0.1355  0.2507
18181TIP3    H176034   2.340   2.678   2.401  1.1040  1.5199 -1.9339
18181TIP3    H276035   2.269   2.570   2.322 -0.8113  1.1151  0.2473
18182TIP3   OH276036   3.944   5.013   5.001 -0.3693  0.7833 -0.0647
18182TIP3    H176037   3.892   5.056   4.932 -0.6663  0.7336  0.1245
18182TIP3    H276038   3.998   4.950   4.954 -1.4120 -0.0811 -0.1596
18183TIP3   OH276039   5.777   0.229  10.469  0.3524 -0.0926 -0.1970
18183TIP3    H176040   5.813   0.209  10.382 -0.0720  0.4827 -0.5162
18183TIP3    H276041   5.778   0.325  10.473 -0.6595 -0.0798 -0.0192
18184TIP3   OH276042   1.758   2.587   2.259  0.2261  0.0711 -0.4068
18184TIP3    H176043   1.826   2.612   2.196 -0.2645  0.2849 -0.8648
18184TIP3    H276044   1.766   2.651   2.330 -0.0440  0.6189 -0.8599
18185TIP3   OH276045   3.198   2.718  13.084 -0.3029 -0.3495 -0.1901
18185TIP3    H176046   3.194   2.684  13.173 -0.6089  0.1612 -0.0069
18185TIP3    H276047   3.248   2.800  13.092  0.8205 -0.9601 -0.6948
18186TIP3   OH276048   3.985   3.838  16.118  0.7552 -0.2878  0.6994
18186TIP3    H176049   3.938   3.785  16.183 -1.8228  1.0534  0.0458
18186TIP3    H276050   3.974   3.928  16.148 -1.4408  0.4792 -2.0120
18187TIP3   OH276051   5.977   1.796  15.712  0.0148  0.3608 -0.0763
18187TIP3    H176052   6.034   1.728  15.747  0.1907  0.2993 -0.4688
18187TIP3    H276053   6.033   1.843  15.650  0.1738  1.4479  0.8587
18188TIP3   OH276054   1.691   4.588   2.129  0.0510 -0.2237 -0.0385
18188TIP3    H176055   1.749   4.512   2.123  0.0761 -0.1732 -0.4790
18188TIP3    H276056   1.606   4.556   2.099  0.5488  0.4325 -2.3565
18189TIP3   OH276057   6.182   3.687   2.595 -1.0522 -0.4084 -0.0034
18189TIP3    H176058   6.195   3.740   2.516  0.2465  1.0877  1.1358
18189TIP3    H276059   6.140   3.747   2.657 -2.0901 -1.5693  0.4416
18190TIP3   OH276060   1.881   2.067  14.203 -0.3941 -0.1010  0.1854
18190TIP3    H176061   1.936   2.100  14.274 -0.2713 -0.4814  0.2673
18190TIP3    H276062   1.846   2.146  14.161  0.5577  0.1661 -0.1421
18191TIP3   OH276063   3.913   2.412   2.271 -0.2335 -0.4529  0.3294
18191TIP3    H176064   3.907   2.477   2.341  0.0535  1.7423 -1.5783
18191TIP3    H276065   3.830   2.364   2.275 -0.4706  0.0224  1.7567
18192TIP3   OH276066   6.332   3.015  16.935  0.1445  0.1566  0.4825
18192TIP3    H176067   6.384   3.087  16.972 -2.4542  1.4369  1.9347
18192TIP3    H276068   6.320   2.955  17.008 -0.1491 -0.2906  0.0650
18193TIP3   OH276069   2.668   1.938   0.139  0.3201 -0.0420  0.4089
18193TIP3    H176070   2.712   2.002   0.084 -0.2278 -2.7987 -3.7278
18193TIP3    H276071   2.735   1.871   0.155  0.0166 -0.0237  1.8956
18194TIP3   OH276072   3.929   1.186  15.074  0.5780  0.3370 -0.0695
18194TIP3    H176073   3.895   1.113  15.022  1.6149 -1.2050  1.3286
18194TIP3    H276074   3.864   1.199  15.143 -0.5316  2.0290 -1.3561
18195TIP3   OH276075   1.554   6.753  16.899  0.5211  0.1579 -0.5558
18195TIP3    H176076   1.559   6.761  16.995  1.8930 -0.7203 -0.5190
18195TIP3    H276077   1.468   6.789  16.876 -1.0844 -2.1639  1.3161
18196TIP3   OH276078   5.630   6.419   3.804 -0.1423  0.1639 -0.1380
18196TIP3    H176079   5.696   6.466   3.854 -0.3899  0.4892 -0.1142
18196TIP3    H276080   5.588   6.360   3.867  0.5056 -0.4571 -0.2751
18197TIP3   OH276081   3.709   1.049   3.224 -0.1064  0.0463 -0.4915
18197TIP3    H176082   3.628   1.090   3.255 -1.3436 -1.7943 -1.1407
18197TIP3    H276083   3.730   1.096   3.143  0.1198  1.2745  0.2594
18198TIP3   OH276084   5.884   4.574   0.994  0.3433 -0.0511  0.1732
18198TIP3    H176085   5.834   4.503   1.034 -3.3269  0.0271 -3.6756
18198TIP3    H276086   5.825   4.649   0.995  3.5816  2.8170  2.7991
18199TIP3   OH276087   1.465   4.434   4.728 -0.1150 -0.5532 -0.1951
18199TIP3    H176088   1.506   4.347   4.731  0.0365 -0.4660  0.8120
18199TIP3    H276089   1.474   4.467   4.818  0.7782  0.9497 -0.7985
18200TIP3   OH276090   5.928   4.513   1.325  0.0383  0.0508 -0.0014
18200TIP3    H176091   5.921   4.453   1.400 -0.5635  0.9856  0.7160
18200TIP3    H276092   5.977   4.587   1.359  1.8030 -0.5081 -1.2152
18201TIP3   OH276093   3.484   1.331   3.105  0.7705 -0.2370 -0.0593
18201TIP3    H176094   3.566   1.381   3.115  0.1503  0.9079 -0.4975
18201TIP3    H276095   3.474   1.284   3.187  0.0498  2.3937  1.4435
18202TIP3   OH276096   5.221   0.262   1.853  0.0728 -0.2605 -0.2217
18202TIP3    H176097   5.153   0.215   1.805 -0.6620  0.7902 -0.2341
18202TIP3    H276098   5.215   0.352   1.821  1.0222 -0.0072  0.2721
18203TIP3   OH276099   1.740   0.138   2.220 -0.2525 -0.2689  0.7034
18203TIP3    H176100   1.652   0.160   2.188  0.2958 -0.5309 -1.0927
18203TIP3    H276101   1.742   0.173   2.309 -1.8750  0.5069  0.4780
18204TIP3   OH276102   5.916   5.699   3.088 -0.0039  0.2923 -0.5054
18204TIP3    H176103   5.858   5.634   3.049  1.1327 -0.5718 -0.8009
18204TIP3    H276104   5.877   5.718   3.173 -0.7399 -0.2368 -0.7130
18205TIP3   OH276105   4.529   4.492  15.420  0.5039 -0.8110 -0.5048
18205TIP3    H176106   4.607   4.456  15.463 -0.9635 -3.0233  0.5068
18205TIP3    H276107   4.469   4.511  15.492  1.1816  4.2742 -0.8769
18206TIP3   OH276108   4.474   3.507   4.726 -0.6011 -0.0830  0.0470
18206TIP3    H176109   4.436   3.492   4.639  2.2102  1.2718 -1.5713
18206TIP3    H276110   4.550   3.450   4.728 -0.1066  0.5968  1.2290
18207TIP3   OH276111   1.193   0.782  12.778 -0.4056  0.3544 -0.6430
18207TIP3    H176112   1.119   0.774  12.838  0.0674  0.5307 -0.0273
18207TIP3    H276113   1.236   0.696  12.781 -1.5010 -0.2989 -2.2474
18208TIP3   OH276114   2.774   0.969   3.086 -0.6202 -0.0548 -0.6042
18208TIP3    H176115   2.842   0.937   3.145  0.6593 -1.7335 -2.7960
18208TIP3    H276116   2.811   1.049   3.048 -1.4886  1.0864  0.8371
18209TIP3   OH276117   3.003   2.844  15.060  0.1767 -0.4852  0.1167
18209TIP3    H176118   3.092   2.809  15.058  0.7469  0.5684  2.6624
18209TIP3    H276119   2.954   2.781  15.112 -0.5189 -0.8799 -0.9819
18210TIP3   OH276120   3.311   4.443  16.750 -0.0784  0.0638 -0.2005
18210TIP3    H176121   3.368   4.465  16.824 -0.4916 -0.6475  0.3444
18210TIP3    H276122   3.368   4.400  16.687  0.2522  0.5613 -0.2420
18211TIP3   OH276123   1.965   2.740   2.144  0.2246  0.5603 -0.5210
18211TIP3    H176124   2.026   2.791   2.089  0.9868  0.2006 -0.0261
18211TIP3    H276125   2.011   2.658   2.160  0.1818  0.7989  0.9612
18212TIP3   OH276126   2.063   2.983   2.311 -0.2945  0.3862  0.7664
18212TIP3    H176127   2.076   2.888   2.309  0.6602  0.3793 -3.7650
18212TIP3    H276128   1.973   2.994   2.341 -0.9595 -2.1054 -0.0734
18213TIP3   OH276129   3.331   5.299  16.128  0.0297  0.0426 -0.5440
18213TIP3    H176130   3.407   5.246  16.151 -0.3472 -0.3045 -0.0644
18213TIP3    H276131   3.257   5.238  16.132 -0.1919  0.2164 -1.6556
18214TIP3   OH276132   0.185   6.777  16.905 -0.4171 -0.5385  0.2223
18214TIP3    H176133   0.150   6.707  16.959  0.8731 -1.0910  0.3880
18214TIP3    H276134   0.236   6.831  16.965  0.9125 -1.0781 -0.3669
18215TIP3   OH276135   0.666   3.958   4.600  0.3153  0.5698 -0.1796
18215TIP3    H176136   0.604   4.008   4.547 -0.5805  1.4946  1.6432
18215TIP3    H276137   0.744   3.951   4.546 -1.2750 -0.4718 -2.4942
18216TIP3   OH276138   3.393   2.164   6.469 -0.2692 -0.0265 -0.1316
18216TIP3    H176139   3.349   2.212   6.539  0.9025 -0.5231  0.9562
18216TIP3    H276140   3.485   2.190   6.475 -0.0476 -0.5298 -1.1046
18217TIP3   OH276141   5.813   5.224  14.845  0.3940  0.1159 -0.1764
18217TIP3    H176142   5.848   5.246  14.759  1.0439  0.5741  0.1996
18217TIP3    H276143   5.738   5.167  14.826 -0.5794  1.6241 -1.1306
18218TIP3   OH276144   0.037   3.664   3.909 -0.1268 -0.3028  0.3320
18218TIP3    H176145   0.071   3.739   3.958 -0.5574 -0.7188  1.2991
18218TIP3    H276146   0.038   3.692   3.818  0.6615  0.5095  0.5787
18219TIP3   OH276147   3.208   2.217  15.954  0.1991  0.4872 -0.3956
18219TIP3    H176148   3.178   2.169  16.031 -0.7719  0.9895 -0.4420
18219TIP3    H276149   3.191   2.157  15.881  3.2984 -0.9706 -0.0725
18220TIP3   OH276150   0.318   0.050   0.154 -0.3224  0.6108 -0.0947
18220TIP3    H176151   0.224   0.061   0.140 -0.2464  1.6064  0.1183
18220TIP3    H276152   0.346  -0.012   0.087 -0.9579  1.0631 -0.7832
18221TIP3   OH276153   3.770   3.136  17.037 -0.3407 -0.1848 -0.1018
18221TIP3    H176154   3.786   3.115  17.128 -0.4704 -0.6712 -0.1888
18221TIP3    H276155   3.676   3.120  17.025 -1.3075  3.6933  0.7015
18222TIP3   OH276156   0.830   5.214   3.483  0.1401 -0.3785  0.5722
18222TIP3    H176157   0.754   5.271   3.468 -0.2878 -1.1261 -0.2314
18222TIP3    H276158   0.845   5.219   3.577  0.9628  2.0840  0.3836
18223TIP3   OH276159   1.265   2.532   2.861  0.1717  0.0136  0.3697
18223TIP3    H176160   1.266   2.464   2.794  0.7670  0.9752 -0.6387
18223TIP3    H276161   1.196   2.592   2.834  1.1017  0.9600  0.0077
18224TIP3   OH276162   2.706   0.828  13.902  0.5755  0.0846 -0.1532
18224TIP3    H176163   2.701   0.735  13.882 -1.4808  0.0948  0.1581
18224TIP3    H276164   2.741   0.831  13.991 -0.7178 -0.4707  0.3899
18225TIP3   OH276165   0.641   5.099  16.076 -0.3834 -0.6126 -0.0512
18225TIP3    H176166   0.726   5.124  16.042 -0.7349 -0.5982 -0.9497
18225TIP3    H276167   0.659   5.028  16.139  0.6709  1.9879  2.8222
18226TIP3   OH276168   1.426   0.018  12.578  0.0775 -0.2495 -0.1246
18226TIP3    H176169   1.402  -0.074  12.589 -1.1215 -0.0887 -1.0998
18226TIP3    H276170   1.513   0.016  12.538 -0.5274 -1.0167 -1.4817
18227TIP3   OH276171   4.862   3.055  11.226 -0.3491 -0.2458 -0.3080
18227TIP3    H176172   4.869   3.090  11.137 -0.1136 -0.9669 -0.5767
18227TIP3    H276173   4.817   3.124  11.275 -2.0272 -0.5162 -1.3869
18228TIP3   OH276174   1.269   0.762  15.419  0.3743 -0.1691  0.3337
18228TIP3    H176175   1.248   0.836  15.363  0.0358 -0.9388 -0.5805
18228TIP3    H276176   1.208   0.693  15.392  1.0992 -0.9876  0.7248
18229TIP3   OH276177   6.689   2.656  11.685 -0.0714  0.0882 -0.3772
18229TIP3    H176178   6.682   2.563  11.661 -1.2908 -0.1287  0.7238
18229TIP3    H276179   6.607   2.695  11.655  0.8491  1.0777 -1.7720
18230TIP3   OH276180   4.624   4.298  15.755  0.0899 -0.0137  0.5072
18230TIP3    H176181   4.543   4.345  15.733 -0.4328 -1.5336 -1.0863
18230TIP3    H276182   4.684   4.318  15.682  0.8902  0.4945  1.2914
18231TIP3   OH276183   1.686   0.325  12.646  0.5668  0.4408 -0.0938
18231TIP3    H176184   1.652   0.284  12.566  0.9929  0.8568 -0.4974
18231TIP3    H276185   1.624   0.300  12.714  0.6672 -0.6555 -0.3793
18232TIP3   OH276186   5.836   3.494  13.969  0.6093 -0.8026  0.5537
18232TIP3    H176187   5.911   3.553  13.972 -0.5690  1.0354 -2.1194
18232TIP3    H276188   5.775   3.530  14.033  1.3738 -1.4263  1.6630
18233TIP3   OH276189   4.883   3.501  15.635  0.3399  0.2589  0.0096
18233TIP3    H176190   4.933   3.554  15.697  0.4000  0.6509 -0.3731
18233TIP3    H276191   4.950   3.459  15.581  0.2589  1.0786 -0.7484
18234TIP3   OH276192   4.212   3.510   5.476  0.1203 -0.1552 -0.0355
18234TIP3    H176193   4.194   3.428   5.430 -1.8489 -0.2473  0.8064
18234TIP3    H276194   4.130   3.531   5.521 -0.6171  3.8609 -2.6480
18235TIP3   OH276195   1.915   5.773   3.017 -0.8472 -0.1462 -0.0892
18235TIP3    H176196   1.841   5.809   3.065 -0.1644 -0.2582  1.0808
18235TIP3    H276197   1.939   5.694   3.065  1.6203  1.2251  1.0758
18236TIP3   OH276198   1.255   6.168  17.168 -0.3132 -0.3971 -0.0975
18236TIP3    H176199   1.350   6.174  17.166 -0.1845 -1.5931  1.0659
18236TIP3    H276200   1.227   6.243  17.222  0.0725 -0.7536  0.6146
18237TIP3   OH276201   6.245   2.916  11.581 -0.1502 -1.1133  0.3429
18237TIP3    H176202   6.295   2.979  11.632  0.5003 -0.6715 -0.8210
18237TIP3    H276203   6.248   2.949  11.491 -0.3566 -2.4419 -0.1747
18238TIP3   OH276204   3.204   0.684   0.759 -0.0087  0.0960  0.3746
18238TIP3    H176205   3.254   0.704   0.838 -0.2963 -0.9929  0.8478
18238TIP3    H276206   3.251   0.730   0.689 -1.9181  4.4720  1.6013
18239TIP3   OH276207   0.549   3.370  11.341 -0.2212 -0.1194  0.0714
18239TIP3    H176208   0.501   3.452  11.353 -0.1089 -0.0641  0.1449
18239TIP3    H276209   0.520   3.315  11.413  2.5363  1.1823  2.3913
18240TIP3   OH276210   1.478   2.715   4.638 -0.1837  0.6522 -0.2269
18240TIP3    H176211   1.535   2.639   4.628 -0.7776  0.4416 -2.3302
18240TIP3    H276212   1.523   2.769   4.704  0.0607 -1.6231  1.6067
18241TIP3   OH276213   0.482   4.665  17.229  0.4588  0.2258  0.3145
18241TIP3    H176214   0.398   4.633  17.196  0.8011 -0.8410  0.4380
18241TIP3    H276215   0.546   4.634  17.165  0.6152  2.5452 -0.7607
18242TIP3   OH276216   2.268   5.138   6.905  0.2155 -0.2441 -0.2417
18242TIP3    H176217   2.281   5.043   6.904  0.2201 -0.3468 -3.6721
18242TIP3    H276218   2.345   5.173   6.860 -0.1388  1.3229  0.3233
18243TIP3   OH276219   1.298   2.666  16.235  0.1401 -1.0585  0.2186
18243TIP3    H176220   1.298   2.634  16.325  0.0445  0.5161  0.7954
18243TIP3    H276221   1.381   2.713  16.226 -1.0490  1.1668  0.3847
18244TIP3   OH276222   3.682   0.014   1.888 -0.2617  0.2379 -0.2712
18244TIP3    H176223   3.763  -0.032   1.909 -0.7365 -1.3157 -1.6306
18244TIP3    H276224   3.642   0.032   1.973  0.2955 -1.2591  0.3439
18245TIP3   OH276225   5.736   5.085  16.943 -0.1562 -0.0821 -0.9903
18245TIP3    H176226   5.675   5.138  16.995  0.4807 -0.7041  0.4600
18245TIP3    H276227   5.679   5.030  16.889 -0.9027 -0.4680  0.1554
18246TIP3   OH276228   2.244   5.801   5.406  0.5208 -0.3109  0.0223
18246TIP3    H176229   2.273   5.711   5.422 -0.7535 -0.5841  0.9545
18246TIP3    H276230   2.156   5.792   5.371 -0.1551  0.5934  1.4156
18247TIP3   OH276231   0.765   0.505  14.536  0.4020 -0.0153  0.4425
18247TIP3    H176232   0.832   0.472  14.476 -0.9241 -2.1312 -0.0013
18247TIP3    H276233   0.690   0.446  14.523 -1.6971  2.4537  0.6592
18248TIP3   OH276234   6.630   5.241   1.302 -0.1437 -0.2295  0.5314
18248TIP3    H176235   6.597   5.312   1.357  0.4656  0.0517  0.5497
18248TIP3    H276236   6.664   5.286   1.224 -0.2632 -0.5519  0.2906
18249TIP3   OH276237   4.637   1.348   0.428  0.6907  0.0994  0.3741
18249TIP3    H176238   4.591   1.408   0.487 -1.8906  1.1115 -2.3770
18249TIP3    H276239   4.711   1.400   0.395 -0.0483  0.9183 -0.0580
18250TIP3   OH276240   5.575   2.516  16.409 -0.4248  0.2870  0.6557
18250TIP3    H176241   5.551   2.575  16.481  1.1790  1.4205  0.3142
18250TIP3    H276242   5.638   2.455  16.448 -0.2258  0.3524  0.4447
18251TIP3   OH276243   2.719   5.005  12.317 -0.1661 -0.3841  0.4687
18251TIP3    H176244   2.683   4.923  12.283  0.5269 -0.7284  0.5487
18251TIP3    H276245   2.769   4.979  12.395  1.5300 -0.1384 -0.4889
18252TIP3   OH276246   5.032   4.764  13.944  0.0430  0.2034  0.2207
18252TIP3    H176247   5.047   4.697  14.011  0.5417  0.6409  0.5506
18252TIP3    H276248   4.937   4.764  13.931 -0.1525  0.6954  1.5297
18253TIP3   OH276249   5.118   3.299   4.309  0.7099 -0.0845 -0.2665
18253TIP3    H176250   5.178   3.374   4.318 -0.0639  0.6863 -1.3336
18253TIP3    H276251   5.118   3.280   4.215 -0.7835 -0.0034 -0.3017
18254TIP3   OH276252   3.886   4.104   5.988  0.3426  0.2259  0.3580
18254TIP3    H176253   3.918   4.025   6.032 -0.6249 -0.5769 -0.3331
18254TIP3    H276254   3.957   4.167   5.998  1.4536 -0.9606  0.3054
18255TIP3   OH276255   4.993   3.116   5.496 -0.4829  0.1839 -0.0497
18255TIP3    H176256   5.053   3.112   5.570 -0.8419  3.4797  0.5938
18255TIP3    H276257   4.926   3.051   5.516  0.3986 -0.2789  1.6003
18256TIP3   OH276258   0.567   2.412  17.211 -0.0619  0.2001 -0.2658
18256TIP3    H176259   0.611   2.328  17.198  0.9504  0.6454  0.2021
18256TIP3    H276260   0.588   2.437  17.301  1.6615  2.0628 -1.1045
18257TIP3   OH276261   0.250   5.075  16.398  0.4070 -0.1430  0.3425
18257TIP3    H176262   0.288   5.115  16.477  0.2715  0.1704  0.2481
18257TIP3    H276263   0.325   5.057  16.342  0.3670  1.3348 -0.2455
18258TIP3   OH276264   0.431   0.117   4.882  0.5713 -0.0377 -0.5126
18258TIP3    H176265   0.469   0.192   4.836 -0.3535  1.4685  1.0119
18258TIP3    H276266   0.337   0.122   4.864  0.5088 -0.8948 -0.4729
18259TIP3   OH276267   1.335   3.970   0.546 -0.1191 -0.2172 -0.1592
18259TIP3    H176268   1.247   3.967   0.585 -0.3798  0.4687 -0.6896
18259TIP3    H276269   1.322   4.009   0.460  0.7323  0.0026 -0.1932
18260TIP3   OH276270   3.145   0.765   5.495 -0.2411  0.0139  0.0603
18260TIP3    H176271   3.199   0.777   5.417 -1.7560 -1.6009 -1.3286
18260TIP3    H276272   3.194   0.705   5.551 -0.1130 -0.5881 -0.6925
18261TIP3   OH276273   0.380   5.005   6.382 -0.2001 -0.3190 -0.0744
18261TIP3    H176274   0.348   5.086   6.343  0.2220  0.4450  1.0883
18261TIP3    H276275   0.430   5.034   6.459 -0.2011 -1.6955  0.4737
18262TIP3   OH276276   5.460   2.726   0.537 -0.5617  0.5526  0.0516
18262TIP3    H176277   5.479   2.696   0.626  0.4022 -0.5712 -0.5099
18262TIP3    H276278   5.477   2.820   0.540 -0.4368  0.5111  1.0310
18263TIP3   OH276279   1.935   4.585  16.519 -0.2153 -0.2493  0.5163
18263TIP3    H176280   2.013   4.579  16.574  0.9757  0.8875 -0.9815
18263TIP3    H276281   1.875   4.640  16.570 -0.3604 -1.6579  1.9680
18264TIP3   OH276282   4.966   0.941   0.408 -0.0816  0.6758  0.2686
18264TIP3    H176283   5.005   0.949   0.495 -0.7981  0.3685  0.6304
18264TIP3    H276284   4.902   1.013   0.404 -0.0164  0.7174 -0.0204
18265TIP3   OH276285   6.260   3.964  15.135  0.2606  0.1868 -0.9012
18265TIP3    H176286   6.288   4.003  15.053  0.2474 -0.7820 -1.3817
18265TIP3    H276287   6.323   3.997  15.200  2.2640 -1.5064 -1.8516
18266TIP3   OH276288   4.552   3.691  14.371  0.0093 -0.4040 -0.3959
18266TIP3    H176289   4.605   3.612  14.375  2.3989  1.0866 -0.9423
18266TIP3    H276290   4.615   3.762  14.359 -2.0297  1.6190  0.2058
18267TIP3   OH276291   6.744   5.049   3.189  0.2553  0.9048  0.3883
18267TIP3    H176292   6.726   5.120   3.250  1.8661  2.3601 -0.7321
18267TIP3    H276293   6.816   5.000   3.229  0.3931  1.0377  0.3062
18268TIP3   OH276294   5.372   3.134  13.400 -0.4183 -0.6910  0.2887
18268TIP3    H176295   5.330   3.211  13.439  3.3886  0.7577  2.1097
18268TIP3    H276296   5.378   3.155  13.307  1.1920  1.7275  0.8286
18269TIP3   OH276297   0.178   1.342   4.786  0.1732 -0.3860 -0.3488
18269TIP3    H176298   0.230   1.263   4.799  2.2570  0.7817 -1.1320
18269TIP3    H276299   0.108   1.315   4.726 -0.4060 -2.0857  1.0131
18270TIP3   OH276300   4.469   6.506  12.865 -0.0846 -0.4239 -0.2069
18270TIP3    H176301   4.404   6.467  12.923 -1.1554 -1.1928 -1.8433
18270TIP3    H276302   4.544   6.448  12.870 -1.2946 -2.2822 -1.8485
18271TIP3   OH276303   2.175   6.076   1.356  0.2686 -0.1761  0.0984
18271TIP3    H176304   2.118   6.034   1.420 -1.8269  0.3428 -1.3323
18271TIP3    H276305   2.260   6.033   1.367 -0.3408 -0.9234  2.3623
18272TIP3   OH276306   2.338   3.431   0.956  0.7594  0.3479 -0.1672
18272TIP3    H176307   2.422   3.392   0.932  1.3006  1.1053  0.4490
18272TIP3    H276308   2.282   3.357   0.976  1.5840 -0.1370  0.4075
18273TIP3   OH276309   6.011   4.914  16.002  0.0249 -0.3170 -0.2025
18273TIP3    H176310   6.016   5.009  16.016  0.7308 -0.2758 -0.7081
18273TIP3    H276311   5.960   4.906  15.921  0.1091 -0.3623 -0.2501
18274TIP3   OH276312   1.452   3.894   2.383 -0.1722 -0.1946  0.1809
18274TIP3    H176313   1.509   3.819   2.401 -0.3612 -0.0664  1.3911
18274TIP3    H276314   1.479   3.925   2.296  0.4898 -1.1272  0.0401
18275TIP3   OH276315   4.020   3.244  14.682 -0.3023  0.3308  0.0232
18275TIP3    H176316   4.001   3.328  14.723  2.9472  1.1057  0.2374
18275TIP3    H276317   4.109   3.254  14.647 -0.3069 -2.5893 -1.1292
18276TIP3   OH276318   0.399   0.652   2.627  0.1180  0.3742 -0.3912
18276TIP3    H176319   0.476   0.618   2.581 -0.6518 -0.9998 -0.7025
18276TIP3    H276320   0.435   0.694   2.705  1.1748 -0.4565 -0.4111
18277TIP3   OH276321   0.140   6.580   2.048  0.0552 -0.0105  0.2624
18277TIP3    H176322   0.151   6.548   2.138 -0.0492 -0.5851  0.0750
18277TIP3    H276323   0.050   6.557   2.025 -0.1561  0.7897  0.2618
18278TIP3   OH276324   4.125   6.299  12.359  0.4993 -0.1411 -0.1924
18278TIP3    H176325   4.083   6.223  12.319 -0.0115  0.1910 -0.2854
18278TIP3    H276326   4.214   6.299  12.322 -0.0458  0.3291 -1.5914
18279TIP3   OH276327   4.606   1.431   0.115  0.3627  0.0123  0.1494
18279TIP3    H176328   4.603   1.336   0.123 -1.4524 -0.0473 -0.7479
18279TIP3    H276329   4.520   1.455   0.081  1.4137  1.8127 -1.4664
18280TIP3   OH276330   2.734   1.921   3.347  0.2867 -0.0933  0.3696
18280TIP3    H176331   2.824   1.938   3.375  0.4225 -1.6046  0.9259
18280TIP3    H276332   2.739   1.840   3.296 -0.7495 -0.1873  0.3919
18281TIP3   OH276333   6.046   1.827  12.175 -0.4031  0.3848 -0.1098
18281TIP3    H176334   6.030   1.743  12.217  0.0745  1.1641  1.7036
18281TIP3    H276335   6.104   1.874  12.235  2.9183  0.4410 -2.9785
18282TIP3   OH276336   5.877   5.039   3.033 -0.0338 -0.2032  0.3858
18282TIP3    H176337   5.819   5.081   2.969  1.9783  0.0405 -1.4132
18282TIP3    H276338   5.871   4.945   3.013 -1.0275 -0.3504  1.3129
18283TIP3   OH276339   4.400   3.727   6.557 -0.6053 -0.4011 -0.1063
18283TIP3    H176340   4.329   3.787   6.581 -0.5584 -0.5582  0.4432
18283TIP3    H276341   4.420   3.680   6.639 -1.1982 -1.7482 -0.6970
18284TIP3   OH276342   0.944   0.754   3.138  0.2018 -0.1611 -0.3787
18284TIP3    H176343   1.016   0.725   3.193 -0.5857 -0.9619  0.2608
18284TIP3    H276344   0.868   0.706   3.170 -0.2147 -1.0095 -2.4423
18285TIP3   OH276345   4.889   0.417  14.163 -0.3658 -0.7496  0.0204
18285TIP3    H176346   4.870   0.511  14.164  0.8183 -0.4973  0.8963
18285TIP3    H276347   4.975   0.411  14.122 -0.7556 -1.5383 -0.7113
18286TIP3   OH276348   4.185   5.901   6.435 -0.0459  0.1912  0.1396
18286TIP3    H176349   4.129   5.960   6.486 -2.4010 -0.1696 -1.8504
18286TIP3    H276350   4.268   5.947   6.427 -1.1355  2.2901  0.4011
18287TIP3   OH276351   2.995   1.245   1.850 -0.3202 -0.4688 -0.4728
18287TIP3    H176352   3.062   1.182   1.874  2.4615  2.7139  1.0185
18287TIP3    H276353   3.016   1.270   1.760 -0.4668 -0.5400 -0.5281
18288TIP3   OH276354   0.791   6.373   3.166 -0.2842 -0.0725 -0.2935
18288TIP3    H176355   0.861   6.317   3.200 -0.7959 -0.4050  0.2377
18288TIP3    H276356   0.835   6.456   3.146  0.1893 -0.1334  0.4300
18289TIP3   OH276357   4.442   0.504  13.857 -0.3892 -0.2118 -0.1758
18289TIP3    H176358   4.455   0.596  13.836 -0.9239 -0.2181 -0.5680
18289TIP3    H276359   4.519   0.480  13.908 -0.1444  0.3954 -0.2453
18290TIP3   OH276360   0.943   5.533  10.833 -0.0246  0.5156  0.4302
18290TIP3    H176361   0.859   5.568  10.803 -0.2387 -1.4073 -1.4288
18290TIP3    H276362   0.923   5.446  10.866  0.8382  1.1382  2.8005
18291TIP3   OH276363   4.563   0.873  16.718 -0.2354 -0.2149  0.3715
18291TIP3    H176364   4.477   0.834  16.700 -0.8643 -0.3158  3.1529
18291TIP3    H276365   4.618   0.846  16.645 -1.9500 -2.2047 -0.2585
18292TIP3   OH276366   0.133   0.719   2.798  0.3443 -0.1388 -0.0417
18292TIP3    H176367   0.215   0.702   2.845  0.1761  1.1011  0.7296
18292TIP3    H276368   0.108   0.807   2.825 -1.4004 -0.6076 -0.0592
18293TIP3   OH276369   4.037   5.937  14.105  0.4475  0.1462  0.2016
18293TIP3    H176370   3.970   5.880  14.142 -0.0047  0.3805 -0.2473
18293TIP3    H276371   3.994   5.982  14.033  0.9262  0.7265  0.2637
18294TIP3   OH276372   3.007   0.934  11.103 -0.2950  0.5788  0.6137
18294TIP3    H176373   2.971   0.865  11.046 -2.0361  1.3511  0.7420
18294TIP3    H276374   2.999   1.014  11.052  1.7013  0.7479  0.4797
18295TIP3   OH276375   0.938   3.223  14.575  0.4225 -0.3251  0.3780
18295TIP3    H176376   0.953   3.264  14.490  0.8730  1.1957  1.1473
18295TIP3    H276377   0.891   3.289  14.626  0.1950 -1.1858  1.3216
18296TIP3   OH276378   2.779   3.148  14.255 -0.0645  0.1437  0.0684
18296TIP3    H176379   2.696   3.157  14.302 -0.1070  2.3853 -0.3668
18296TIP3    H276380   2.845   3.146  14.325 -0.2219  2.2305  0.3281
18297TIP3   OH276381   6.154   1.166   5.057 -0.7980 -0.5932  0.1698
18297TIP3    H176382   6.109   1.250   5.064 -2.2100 -1.4168  1.6015
18297TIP3    H276383   6.223   1.171   5.124 -1.0272 -0.6542  0.4127
18298TIP3   OH276384   5.378   5.711   5.565  0.6434  0.0201 -0.2969
18298TIP3    H176385   5.433   5.727   5.489  2.0623 -0.1539  0.6460
18298TIP3    H276386   5.392   5.787   5.621 -0.6947  0.3391 -0.3671
18299TIP3   OH276387   5.032   2.766   1.716  0.1659 -0.1672  0.6522
18299TIP3    H176388   5.035   2.675   1.686  0.6010 -0.2557  0.9514
18299TIP3    H276389   4.940   2.781   1.736  0.2331 -0.8725  1.5731
18300TIP3   OH276390   0.277   6.111   3.228  0.0582 -0.1698 -0.2990
18300TIP3    H176391   0.220   6.088   3.301  1.0906  2.8492  1.6121
18300TIP3    H276392   0.255   6.201   3.207  3.2610  0.7614 -0.2410
18301TIP3   OH276393   3.264   6.330  14.786  0.5264  0.3740  0.2331
18301TIP3    H176394   3.309   6.266  14.841  0.1466 -1.3825 -1.3760
18301TIP3    H276395   3.269   6.412  14.835  2.5548 -0.4863  1.5992
18302TIP3   OH276396   3.493   5.454  15.881 -0.0326 -0.3416 -0.1635
18302TIP3    H176397   3.472   5.538  15.921 -1.5833 -0.2179 -1.1759
18302TIP3    H276398   3.466   5.389  15.946 -1.0933 -0.1135 -0.3734
18303TIP3   OH276399   3.825   1.647  13.698  0.4011  0.3760 -0.0269
18303TIP3    H176400   3.905   1.657  13.749  0.4680  0.3597 -0.1282
18303TIP3    H276401   3.831   1.558  13.661  0.4434  0.4568 -0.2176
18304TIP3   OH276402   1.617   2.681   1.887 -0.2865  0.3661 -0.5786
18304TIP3    H176403   1.536   2.652   1.928  0.1427 -0.2471 -0.1454
18304TIP3    H276404   1.612   2.648   1.798 -0.5093  0.3267 -0.5515
18305TIP3   OH276405   4.245   2.099  16.684 -0.4426 -0.4948  0.0631
18305TIP3    H176406   4.286   2.018  16.715  0.6793 -0.1178 -0.4218
18305TIP3    H276407   4.243   2.156  16.760  0.3272 -0.3597 -0.0163
18306TIP3   OH276408   4.115   4.791  16.114 -0.2311  0.6620  0.4581
18306TIP3    H176409   4.160   4.865  16.154 -0.5048  0.9280  0.2814
18306TIP3    H276410   4.028   4.826  16.091 -0.4251  0.2362  0.5438
18307TIP3   OH276411   6.316   3.534  11.821  0.8265 -0.0814 -0.4265
18307TIP3    H176412   6.227   3.527  11.855  1.3696 -0.9996  0.8479
18307TIP3    H276413   6.304   3.565  11.731 -0.7632 -0.0571 -0.2393
18308TIP3   OH276414   4.187   4.597  16.798 -0.1329  0.2476 -0.0755
18308TIP3    H176415   4.256   4.538  16.828 -1.2682 -1.0770  0.0452
18308TIP3    H276416   4.210   4.681  16.836  0.7386 -0.4459  1.0167
18309TIP3   OH276417   0.514   3.235   3.365  0.7709  0.1062 -0.5256
18309TIP3    H176418   0.592   3.240   3.311  1.6038 -0.5374  0.5910
18309TIP3    H276419   0.486   3.327   3.375  0.9885  0.2832 -1.4533
18310TIP3   OH276420   6.702   5.984  14.106  0.4820  0.2054 -0.4296
18310TIP3    H176421   6.670   5.905  14.063 -0.1504 -0.0482  0.4863
18310TIP3    H276422   6.699   6.051  14.037  1.4001 -0.6347 -1.3211
18311TIP3   OH276423   3.279   6.098  11.492 -0.0309  0.2012  0.2040
18311TIP3    H176424   3.255   6.145  11.572  0.4017  0.6343  0.0853
18311TIP3    H276425   3.251   6.008  11.508  0.1709  0.2539  0.8968
18312TIP3   OH276426   2.426   6.155   0.519 -0.5139  0.4655 -0.0799
18312TIP3    H176427   2.378   6.130   0.598 -0.0977 -1.6961 -0.4574
18312TIP3    H276428   2.518   6.138   0.540 -0.3516  0.3176 -0.8666
18313TIP3   OH276429   6.608   3.337  12.678 -0.1479 -0.2555  0.0672
18313TIP3    H176430   6.572   3.424  12.694 -0.9950 -0.4115 -0.8449
18313TIP3    H276431   6.555   3.303  12.605  0.7028 -1.2088 -0.1228
18314TIP3   OH276432   1.289   1.038  12.823  0.0794 -0.7007 -0.2626
18314TIP3    H176433   1.243   0.954  12.811 -1.4246  0.0599 -0.0699
18314TIP3    H276434   1.289   1.052  12.918  0.6664 -0.6598 -0.2662
18315TIP3   OH276435   1.442   0.616  15.180  0.0981 -0.3756  0.7882
18315TIP3    H176436   1.362   0.567  15.199 -0.0215 -0.8383 -0.7654
18315TIP3    H276437   1.504   0.588  15.248 -0.2011 -2.1472  0.3826
18316TIP3   OH276438   4.953   0.804   5.829 -0.2251 -0.4638 -0.4018
18316TIP3    H176439   4.990   0.848   5.752  0.1026 -0.6105 -0.3292
18316TIP3    H276440   4.980   0.859   5.902  0.3075 -0.8594 -0.2957
18317TIP3   OH276441   0.561   1.971   2.331 -0.2506  0.1751  0.0764
18317TIP3    H176442   0.534   1.932   2.414  2.4446 -1.2639  0.3902
18317TIP3    H276443   0.588   1.897   2.277  2.6495  1.3596 -0.2635
18318TIP3   OH276444   5.009   2.622   1.311 -0.3326  0.4798  0.3488
18318TIP3    H176445   5.038   2.655   1.226 -0.7175  1.7638  0.6899
18318TIP3    H276446   5.091   2.602   1.358 -0.1148 -2.4157 -1.0724
18319TIP3   OH276447   4.207   2.836   6.136  0.4166 -0.2711 -0.0482
18319TIP3    H176448   4.172   2.783   6.207 -0.6372 -1.1486 -1.1708
18319TIP3    H276449   4.173   2.924   6.154  1.0140 -0.2594  1.0720
18320TIP3   OH276450   0.075   4.165   5.910  0.3838 -0.7233 -0.1330
18320TIP3    H176451   0.101   4.074   5.917 -1.4270 -1.2697  0.0328
18320TIP3    H276452   0.031   4.171   5.825 -0.1610 -0.1982  0.1755
18321TIP3   OH276453   4.059   5.363   6.292 -0.5323 -0.3396  0.5704
18321TIP3    H176454   4.026   5.275   6.308 -0.9971  0.1871  2.7880
18321TIP3    H276455   4.020   5.417   6.361  0.9773  1.3074  0.2196
18322TIP3   OH276456   6.375   4.851   1.060 -0.1384 -0.0026  0.1410
18322TIP3    H176457   6.466   4.823   1.065  0.3642  1.6288  1.2031
18322TIP3    H276458   6.376   4.940   1.095 -2.1529  0.0367  0.2129
18323TIP3   OH276459   5.350   1.024   6.550 -0.2290 -0.5767 -0.3883
18323TIP3    H176460   5.298   1.100   6.524  0.6059  0.2190  0.1797
18323TIP3    H276461   5.438   1.044   6.517 -0.0022 -1.2848 -0.2139
18324TIP3   OH276462   2.821   5.755  16.424  0.0685 -0.8272  0.4605
18324TIP3    H176463   2.763   5.782  16.495  0.1874  1.4903 -0.2682
18324TIP3    H276464   2.898   5.811  16.433  1.9498 -3.3009  0.9264
18325TIP3   OH276465   1.389   0.307  15.011  0.4832  0.3606 -0.3261
18325TIP3    H176466   1.347   0.230  15.051  0.4970  0.3443 -0.3433
18325TIP3    H276467   1.454   0.270  14.951  0.5157  0.3860 -0.3061
18326TIP3   OH276468   5.429   1.643  14.610 -0.2642 -0.3037 -0.0274
18326TIP3    H176469   5.468   1.568  14.655 -1.0373 -1.1445 -0.6966
18326TIP3    H276470   5.416   1.612  14.520  0.6840  1.1170 -0.6808
18327TIP3   OH276471   2.513   1.200  17.158 -0.6385  0.3570 -0.1023
18327TIP3    H176472   2.585   1.263  17.170 -0.3813  0.2210 -0.9214
18327TIP3    H276473   2.434   1.254  17.162 -0.6398  0.2829  2.6485
18328TIP3   OH276474   3.460   0.740  13.730  0.1879  0.5337 -0.2734
18328TIP3    H176475   3.549   0.773  13.724 -0.1598  1.5006 -0.3026
18328TIP3    H276476   3.411   0.791  13.666 -0.5552  0.6185  0.3443
18329TIP3   OH276477   2.010   4.100   3.964  0.0529 -0.3311  0.1627
18329TIP3    H176478   2.056   4.056   4.036  1.2852  1.4652  0.5486
18329TIP3    H276479   2.076   4.108   3.895 -0.7569 -0.9077 -0.6998
18330TIP3   OH276480   0.087   4.879   5.727 -0.3934 -0.2022 -0.3976
18330TIP3    H176481   0.061   4.948   5.788 -0.3457 -2.2829  2.1609
18330TIP3    H276482   0.005   4.835   5.704 -0.3631  0.3234 -1.5765
18331TIP3   OH276483   0.735   3.918  15.154  0.0639 -0.0571  0.5788
18331TIP3    H176484   0.728   3.986  15.220  0.7349 -2.3165  3.1762
18331TIP3    H276485   0.815   3.870  15.176 -0.5953 -1.9552 -0.8043
18332TIP3   OH276486   2.830   0.022  14.192 -0.2380 -0.1514  0.2988
18332TIP3    H176487   2.887   0.078  14.140  0.4228 -1.0135  0.0834
18332TIP3    H276488   2.774   0.084  14.240  0.0106  0.6744 -0.4422
18333TIP3   OH276489   6.161   0.529   1.631  0.3382  0.3114 -0.4282
18333TIP3    H176490   6.186   0.437   1.621  0.5773  0.3330 -0.0312
18333TIP3    H276491   6.079   0.536   1.583 -1.0989 -0.7486  1.6854
18334TIP3   OH276492   5.889   1.136  11.497  0.0792 -0.0598  0.5832
18334TIP3    H176493   5.836   1.206  11.458  0.3858  1.1463  2.2300
18334TIP3    H276494   5.918   1.084  11.422 -1.9905  0.2461 -0.5072
18335TIP3   OH276495   6.655   5.880  17.346  0.3970 -0.2108 -0.6084
18335TIP3    H176496   6.682   5.836  17.427 -1.7421 -1.8774 -0.6974
18335TIP3    H276497   6.646   5.972  17.370  2.0976 -0.2824  0.3994
18336TIP3   OH276498   2.421   0.537  14.537 -0.7176 -0.2328  0.1672
18336TIP3    H176499   2.343   0.583  14.567 -0.9899 -0.3034 -0.4236
18336TIP3    H276500   2.412   0.449  14.574 -0.8951 -0.2302  0.1320
18337TIP3   OH276501   4.155   1.698  14.208  0.5586  0.4642  0.7886
18337TIP3    H176502   4.072   1.705  14.160  0.7140  1.4491  0.6309
18337TIP3    H276503   4.128   1.688  14.299  0.2310 -3.2859  0.4010
18338TIP3   OH276504   4.346   0.990  12.663 -0.4421  0.1275  0.2881
18338TIP3    H176505   4.430   0.952  12.639 -0.5703 -0.1665  0.3091
18338TIP3    H276506   4.305   1.013  12.579 -0.8301 -0.7736  0.2251
18339TIP3   OH276507   5.973   0.630   6.103 -0.2400 -0.5737 -0.5403
18339TIP3    H176508   5.984   0.537   6.084 -0.2782 -0.5221 -0.8204
18339TIP3    H276509   6.016   0.643   6.187 -2.4331 -1.3610  0.7798
18340TIP3   OH276510   0.874   5.263  12.357  0.1827 -0.3195 -0.0015
18340TIP3    H176511   0.820   5.226  12.288  0.3129  0.2718 -0.4339
18340TIP3    H276512   0.923   5.189  12.392 -0.6056 -0.7946  0.1313
18341TIP3   OH276513   2.797   4.129  13.183 -0.0554 -0.0677 -0.6668
18341TIP3    H176514   2.862   4.191  13.151  0.3026 -1.2259 -2.2976
18341TIP3    H276515   2.848   4.053  13.211 -0.6143 -0.3902 -0.4998
18342TIP3   OH276516   2.172   0.518   2.802 -0.2987 -0.0086 -0.2655
18342TIP3    H176517   2.245   0.578   2.785 -0.4117  0.4251  0.6885
18342TIP3    H276518   2.210   0.431   2.793  1.3825  0.0713  3.6760
18343TIP3   OH276519   5.392   4.689  14.814  0.3217 -0.1877 -0.3130
18343TIP3    H176520   5.376   4.781  14.793  1.1371 -0.5064 -2.6329
18343TIP3    H276521   5.482   4.688  14.848  1.1199 -0.3242 -2.2882
18344TIP3   OH276522   6.060   3.596   3.630  0.3206  0.1184  0.1772
18344TIP3    H176523   6.031   3.646   3.554 -0.2198 -0.9521 -0.3570
18344TIP3    H276524   5.980   3.582   3.681  0.0835 -1.7423 -0.6299
18345TIP3   OH276525   1.320   2.356   0.619 -0.0835  0.0425 -0.3996
18345TIP3    H176526   1.337   2.450   0.622 -0.8949  0.1740  0.7283
18345TIP3    H276527   1.250   2.342   0.683  1.8566 -1.7124  1.5317
18346TIP3   OH276528   2.688   2.643  13.765  0.7978 -0.4018  0.2264
18346TIP3    H176529   2.735   2.663  13.684  2.3745  0.8377  1.3843
18346TIP3    H276530   2.612   2.592  13.737 -0.2164  2.2393 -2.3128
18347TIP3   OH276531   4.483   3.556  11.645 -0.0231 -0.3323 -0.3620
18347TIP3    H176532   4.439   3.633  11.609  0.0661 -0.7512 -1.4315
18347TIP3    H276533   4.432   3.533  11.722 -1.4585 -0.5633 -1.3405
18348TIP3   OH276534   4.360   3.750   1.662  0.1493 -0.3512  0.0160
18348TIP3    H176535   4.437   3.710   1.622  0.1217 -1.3442  0.9221
18348TIP3    H276536   4.308   3.676   1.692 -1.2104  0.2991 -0.6427
18349TIP3   OH276537   6.780   2.148   4.769  0.4515 -0.2268 -0.1754
18349TIP3    H176538   6.779   2.200   4.850  0.0741 -0.7906  0.1860
18349TIP3    H276539   6.745   2.063   4.795  1.8414 -0.9504 -0.5647
18350TIP3   OH276540   2.758   1.122  11.259  0.2505  0.4368 -0.1473
18350TIP3    H176541   2.850   1.095  11.262 -0.5805 -2.9983 -0.6399
18350TIP3    H276542   2.735   1.116  11.166 -0.5572  0.9169  0.0128
18351TIP3   OH276543   1.562   0.171  14.874 -0.0993  0.3473 -0.1473
18351TIP3    H176544   1.632   0.183  14.938 -0.4752  0.9543  0.1551
18351TIP3    H276545   1.543   0.077  14.877  0.3373  0.2644  0.1513
18352TIP3   OH276546   4.190   2.989  13.741 -0.1713 -0.2132  0.3028
18352TIP3    H176547   4.283   2.968  13.744 -0.4900 -1.8163 -0.0401
18352TIP3    H276548   4.148   2.908  13.712 -1.5212  0.9920 -1.2956
18353TIP3   OH276549   4.565   1.989   3.356 -0.3428  0.1294  0.2866
18353TIP3    H176550   4.515   2.045   3.415  1.6626  2.3318  0.0240
18353TIP3    H276551   4.654   1.991   3.391 -0.0283 -2.2974 -0.2160
18354TIP3   OH276552   2.559   5.995  15.343 -0.0988 -0.5174 -0.3571
18354TIP3    H176553   2.599   6.049  15.275 -0.6763 -0.8747 -0.9934
18354TIP3    H276554   2.612   5.915  15.345  0.1920 -0.3202 -0.0643
18355TIP3   OH276555   3.881   3.554   5.855 -0.0421 -0.0728  0.0169
18355TIP3    H176556   3.809   3.493   5.870  0.8727 -1.2624 -0.2779
18355TIP3    H276557   3.866   3.624   5.918 -1.7102 -0.0381 -0.3629
18356TIP3   OH276558   2.987   4.338   0.105 -0.0316  0.2736 -0.3935
18356TIP3    H176559   3.031   4.422   0.087 -0.8627  0.9263  0.5096
18356TIP3    H276560   2.925   4.358   0.174  2.3626 -1.8720  2.6585
18357TIP3   OH276561   2.821   5.520  12.470 -0.5172  0.0418 -0.0445
18357TIP3    H176562   2.818   5.472  12.552  0.4637  1.0866  0.6260
18357TIP3    H276563   2.793   5.456  12.404 -1.2552 -0.8280  1.0746
18358TIP3   OH276564   2.058   4.760   3.545 -0.1839 -0.0422  0.4677
18358TIP3    H176565   2.089   4.850   3.550 -0.8174  0.1769  0.5843
18358TIP3    H276566   2.138   4.707   3.544  0.3004  0.5960 -1.9949
18359TIP3   OH276567   0.549   0.335   6.829 -0.6512  0.0260 -0.5044
18359TIP3    H176568   0.557   0.394   6.754 -0.1351  1.8483  0.8946
18359TIP3    H276569   0.638   0.303   6.843 -0.2919  1.3974  0.5827
18360TIP3   OH276570   5.501   3.917  17.443 -0.1170  0.3068 -0.2246
18360TIP3    H176571   5.584   3.959  17.422 -0.6077  0.5441 -1.7872
18360TIP3    H276572   5.525   3.845  17.502  1.0655  0.9603  0.1160
18361TIP3   OH276573   4.013   1.806   2.959 -0.0688  0.0728 -0.3213
18361TIP3    H176574   4.065   1.728   2.982  1.5042  0.9818 -0.6034
18361TIP3    H276575   4.059   1.842   2.883 -1.8925  0.2340 -1.3911
18362TIP3   OH276576   4.994   1.643   3.426 -0.2282  0.3650 -0.4967
18362TIP3    H176577   5.016   1.554   3.398  0.2449 -0.0349  1.0388
18362TIP3    H276578   4.917   1.666   3.374  0.5577 -0.3230 -2.0559
18363TIP3   OH276579   5.470   5.869   3.148  0.2796 -0.3020  0.1805
18363TIP3    H176580   5.402   5.934   3.161  1.7538  1.8429 -1.9496
18363TIP3    H276581   5.474   5.821   3.231 -2.7496  0.4255  0.8660
18364TIP3   OH276582   0.865   2.793  13.707  0.2316 -0.0982 -0.8145
18364TIP3    H176583   0.793   2.731  13.696 -0.4063  0.2314  1.0651
18364TIP3    H276584   0.941   2.749  13.669 -0.2892 -1.8519  0.0607
18365TIP3   OH276585   2.495   2.006  16.909 -0.0180 -0.4137 -0.4327
18365TIP3    H176586   2.458   2.045  16.988  0.9008  2.5066 -1.3391
18365TIP3    H276587   2.430   1.941  16.881 -2.1370  1.1312  0.6529
18366TIP3   OH276588   6.758   5.768   0.419  0.1062 -0.1694 -0.0966
18366TIP3    H176589   6.791   5.735   0.336 -0.1509  1.3735 -0.8533
18366TIP3    H276590   6.663   5.774   0.406 -0.0014 -0.4546  0.5147
18367TIP3   OH276591   4.495   2.433  12.305 -0.3097 -0.1618 -0.0086
18367TIP3    H176592   4.470   2.510  12.355  1.0373 -0.5474  1.3512
18367TIP3    H276593   4.413   2.397  12.272 -0.9083  2.1868 -1.2249
18368TIP3   OH276594   6.088   1.793   1.043  0.8827  0.4628  0.4449
18368TIP3    H176595   6.026   1.720   1.042  0.8695  0.4718 -0.8268
18368TIP3    H276596   6.152   1.770   1.110 -0.3878  0.3707  1.6633
18369TIP3   OH276597   5.229   3.298   4.591 -0.1278  0.4220 -0.3250
18369TIP3    H176598   5.145   3.342   4.587 -0.2568  0.0985 -1.3299
18369TIP3    H276599   5.222   3.226   4.528  0.3777 -0.5165  0.6579
18370TIP3   OH276600   2.234   6.207  14.300  0.4282 -0.0834 -0.3715
18370TIP3    H176601   2.186   6.175  14.376  0.9172  1.5041  0.6331
18370TIP3    H276602   2.326   6.196  14.323  0.6063  1.6839 -0.1297
18371TIP3   OH276603   5.966   5.506  17.214 -0.5961  0.0270 -0.1156
18371TIP3    H176604   5.906   5.579  17.226 -0.3316  0.0047  1.5124
18371TIP3    H276605   5.941   5.468  17.130 -2.4643  0.3885  0.2459
18372TIP3   OH276606   0.754   1.853   1.448  0.1006 -0.3285 -0.2086
18372TIP3    H176607   0.800   1.855   1.364 -0.8536 -1.6715 -0.7944
18372TIP3    H276608   0.717   1.765   1.453 -1.3349  0.3019  0.8229
18373TIP3   OH276609   4.578   6.256   6.448 -0.8503  0.7459  0.3499
18373TIP3    H176610   4.581   6.351   6.465  0.4700  0.8728 -0.4184
18373TIP3    H276611   4.660   6.223   6.485  0.1769  0.4091 -2.0482
18374TIP3   OH276612   4.639   5.836  17.406 -0.1068 -0.2000  0.2602
18374TIP3    H176613   4.729   5.834  17.373  0.2541 -0.0932  1.2082
18374TIP3    H276614   4.634   5.763  17.468 -0.3951  0.3610  0.9050
18375TIP3   OH276615   2.819   2.413  16.661 -0.4310  0.4655 -0.0077
18375TIP3    H176616   2.754   2.359  16.706 -0.7524 -0.3388 -1.3855
18375TIP3    H276617   2.772   2.495  16.643 -0.7840  0.2236 -0.2085
18376TIP3   OH276618   0.381   1.572  14.769  0.4108  0.1867 -0.7020
18376TIP3    H176619   0.294   1.537  14.792 -0.6162  1.9426 -1.7143
18376TIP3    H276620   0.438   1.495  14.770 -1.4281 -1.2649 -1.3100
18377TIP3   OH276621   6.224   4.554  11.749 -0.1287  0.4801  0.0969
18377TIP3    H176622   6.316   4.576  11.764 -0.2344  0.2473  1.1891
18377TIP3    H276623   6.224   4.510  11.663  1.0834 -1.1731  0.8738
18378TIP3   OH276624   6.456   5.263  14.002 -0.3818 -0.0242 -0.0626
18378TIP3    H176625   6.550   5.273  14.019  0.0255 -1.2659 -1.4133
18378TIP3    H276626   6.417   5.344  14.035  0.9403 -0.1530  2.0014
18379TIP3   OH276627   0.982   4.198  14.847 -0.3088  0.6404 -0.1894
18379TIP3    H176628   1.044   4.140  14.804 -1.9159  0.8532 -2.9987
18379TIP3    H276629   0.916   4.140  14.884 -2.1409  0.5128 -3.3548
18380TIP3   OH276630   6.458   3.361   6.314 -0.1151 -0.5909  0.2618
18380TIP3    H176631   6.369   3.337   6.288  0.0939 -1.7863  0.6191
18380TIP3    H276632   6.481   3.299   6.383  1.2005 -0.6417 -0.1949
18381TIP3   OH276633   0.496   5.807   0.281 -0.6177 -0.0979 -0.0583
18381TIP3    H176634   0.508   5.797   0.186 -0.3239 -2.1502  0.1459
18381TIP3    H276635   0.582   5.785   0.317 -0.3832  1.8414  0.6661
18382TIP3   OH276636   2.967   5.668   0.692 -0.4455  0.8212  0.5658
18382TIP3    H176637   3.039   5.627   0.741  0.6404  0.7183 -1.0335
18382TIP3    H276638   2.962   5.757   0.727 -0.0905  0.5769  1.2538
18383TIP3   OH276639   6.222   4.438   0.795  0.7995  1.0380 -0.1831
18383TIP3    H176640   6.177   4.523   0.798  0.4321  1.0196 -2.5999
18383TIP3    H276641   6.311   4.457   0.824 -0.1409  1.4837  2.7223
18384TIP3   OH276642   2.370   3.911  13.106 -0.3853  0.3581 -0.6377
18384TIP3    H176643   2.329   3.831  13.074  2.5817 -0.9165 -1.5963
18384TIP3    H276644   2.386   3.963  13.027 -1.6672  1.6364 -0.0942
18385TIP3   OH276645   1.512   2.390   4.918  0.0245  0.4309  0.4034
18385TIP3    H176646   1.560   2.432   4.846 -0.1793  0.0806  0.0625
18385TIP3    H276647   1.537   2.298   4.913 -1.6943 -0.0313 -0.6285
18386TIP3   OH276648   6.297   1.306  12.155 -0.0128  0.2033 -0.0004
18386TIP3    H176649   6.372   1.342  12.203 -1.4484  1.2291  1.5833
18386TIP3    H276650   6.222   1.324  12.211 -1.5049 -0.5353 -1.6740
18387TIP3   OH276651   0.544   2.227   3.386 -0.1604  0.0077  0.3804
18387TIP3    H176652   0.531   2.169   3.462 -0.5581 -0.5663 -0.1183
18387TIP3    H276653   0.483   2.300   3.401  0.3266  0.2997  1.0011
18388TIP3   OH276654   2.100   0.671   5.705  0.5301  0.3283  0.1493
18388TIP3    H176655   2.090   0.751   5.757  0.7267  0.2887  0.2473
18388TIP3    H276656   2.133   0.703   5.620 -2.2879  0.6944 -0.9064
18389TIP3   OH276657   3.942   2.200  11.368 -0.3123 -0.2812  0.2480
18389TIP3    H176658   3.887   2.152  11.430  0.8965 -0.9060  0.8725
18389TIP3    H276659   3.957   2.138  11.297  1.1987 -0.8674  1.0258
18390TIP3   OH276660   2.696   4.327   5.922 -0.8950 -0.4989  0.2577
18390TIP3    H176661   2.639   4.285   5.986  0.6798 -0.8293  1.5179
18390TIP3    H276662   2.768   4.363   5.974  0.3394 -0.5894 -1.3024
18391TIP3   OH276663   4.676   5.743  14.295  0.2488  0.1439  0.2036
18391TIP3    H176664   4.717   5.742  14.381  0.8499 -0.9689 -0.0780
18391TIP3    H276665   4.681   5.834  14.267  0.7551  0.3719  1.0158
18392TIP3   OH276666   4.694   1.612   1.430  0.2897  0.1697 -0.3461
18392TIP3    H176667   4.605   1.602   1.464  1.0777 -0.1247  1.8242
18392TIP3    H276668   4.688   1.590   1.337 -1.6659 -1.1267  0.0395
18393TIP3   OH276669   0.731   0.965   1.984 -0.6470 -0.0614 -0.3586
18393TIP3    H176670   0.819   0.927   1.982 -1.1610 -1.3452  0.2637
18393TIP3    H276671   0.711   0.984   1.893 -0.5629 -1.7925 -0.7548
18394TIP3   OH276672   6.269   4.390  11.210 -0.2962 -0.3664  0.1582
18394TIP3    H176673   6.192   4.444  11.231 -1.2475 -1.8984  0.8305
18394TIP3    H276674   6.247   4.348  11.127  0.6297  0.5913 -0.5892
18395TIP3   OH276675   3.678   0.950   4.920  0.2389 -0.8921  0.2631
18395TIP3    H176676   3.691   1.035   4.878 -1.9329 -1.5290 -1.9337
18395TIP3    H276677   3.726   0.889   4.865 -2.7647 -1.7663 -1.5587
18396TIP3   OH276678   2.410   1.470  14.418  0.3499  0.5985 -0.2373
18396TIP3    H176679   2.413   1.386  14.463 -1.8225  0.1420 -0.7918
18396TIP3    H276680   2.415   1.535  14.487  0.2296 -0.0280  0.3705
18397TIP3   OH276681   3.103   5.033  16.967 -0.1860 -0.6285 -0.5743
18397TIP3    H176682   3.104   4.938  16.953  2.4715 -0.6354 -0.8130
18397TIP3    H276683   3.118   5.070  16.880 -1.6421  0.0942 -0.5643
18398TIP3   OH276684   5.214   4.892  11.711 -0.0158  0.3631 -0.2087
18398TIP3    H176685   5.233   4.799  11.729 -0.2865  0.4292  0.4643
18398TIP3    H276686   5.204   4.896  11.616  2.3025  0.1347 -0.5158
18399TIP3   OH276687   0.901   6.042  16.259  0.2971  0.1668 -0.2710
18399TIP3    H176688   0.882   6.121  16.209  0.5214 -0.8122 -1.9779
18399TIP3    H276689   0.887   6.068  16.350  0.0391  2.0654 -0.7979
18400TIP3   OH276690   6.441   5.899  10.595  0.6871 -0.5439 -0.3045
18400TIP3    H176691   6.435   5.804  10.590 -0.5743 -0.4201 -1.6333
18400TIP3    H276692   6.350   5.929  10.594  1.0823  0.7078 -0.4998
18401TIP3   OH276693   1.903   0.459  12.979  0.2615  0.4649  0.3617
18401TIP3    H176694   1.931   0.457  13.071  3.5691  1.3673 -0.5169
18401TIP3    H276695   1.981   0.435  12.929 -2.0676 -2.6022 -2.2185
18402TIP3   OH276696   4.760   5.705   1.132  0.1175  0.0549  0.6479
18402TIP3    H176697   4.673   5.665   1.131  0.0777  0.0857 -0.9739
18402TIP3    H276698   4.799   5.678   1.048  1.5741  0.2463  1.2376
18403TIP3   OH276699   5.255   1.889  11.254 -0.2127 -0.2436  0.0346
18403TIP3    H176700   5.346   1.917  11.269  0.2563 -0.8064 -1.5519
18403TIP3    H276701   5.231   1.930  11.171 -0.4809 -2.1573 -0.8919
18404TIP3   OH276702   0.211   4.562   3.473 -0.2952  0.2184  0.0759
18404TIP3    H176703   0.142   4.581   3.537  0.5536  0.5312  0.9303
18404TIP3    H276704   0.290   4.550   3.526  0.6621  1.5418 -0.9898
18405TIP3   OH276705   4.588   3.092  11.045  0.2473  0.0139 -0.0038
18405TIP3    H176706   4.504   3.057  11.014  0.3263 -0.9998  0.8845
18405TIP3    H276707   4.635   3.115  10.965 -0.8166  0.4599 -0.5190
18406TIP3   OH276708   3.382   5.694   1.695  0.5020  0.7668  0.6831
18406TIP3    H176709   3.463   5.646   1.713  0.5042  0.0292 -1.1019
18406TIP3    H276710   3.316   5.626   1.681 -0.0793  1.3273  0.6288
18407TIP3   OH276711   6.730   1.287   4.653  0.5007  0.2019  0.0999
18407TIP3    H176712   6.658   1.333   4.611 -1.6214 -2.4116  0.6248
18407TIP3    H276713   6.765   1.229   4.585  0.6779 -0.0961  0.4391
18408TIP3   OH276714   0.163   4.615  13.917  0.1039  0.9339 -0.3664
18408TIP3    H176715   0.099   4.558  13.959  0.8325  0.0860 -0.3887
18408TIP3    H276716   0.189   4.569  13.837 -0.2739  1.9127 -1.0694
18409TIP3   OH276717   5.005   1.834  14.814  0.1016  0.6603  0.3867
18409TIP3    H176718   5.004   1.798  14.903  2.0594 -0.4341  0.0194
18409TIP3    H276719   5.064   1.777  14.765 -2.1144  0.2669 -2.0749
18410TIP3   OH276720   5.207   2.266   2.775 -0.6163 -0.7066 -0.1577
18410TIP3    H176721   5.125   2.303   2.742 -1.2765 -1.7389  0.2880
18410TIP3    H276722   5.231   2.323   2.848 -1.9106 -1.4182  0.8703
18411TIP3   OH276723   4.523   5.339   4.124 -0.7476  0.6181  0.1664
18411TIP3    H176724   4.499   5.432   4.120 -0.6943  0.5719 -1.9823
18411TIP3    H276725   4.605   5.338   4.173 -0.4798  1.7591 -0.2172
18412TIP3   OH276726   2.297   0.916  14.674 -0.4916 -0.0061 -0.6287
18412TIP3    H176727   2.219   0.864  14.655  0.0132 -1.2097  0.4182
18412TIP3    H276728   2.344   0.920  14.590 -1.3030  0.1059 -1.0907
18413TIP3   OH276729   5.178   0.308   6.354 -0.1108 -0.5693  0.6854
18413TIP3    H176730   5.246   0.250   6.389 -0.7272 -0.6252  1.8301
18413TIP3    H276731   5.119   0.249   6.305 -2.1711 -1.4818  3.9254
18414TIP3   OH276732   6.371   5.763  15.219 -0.3604 -0.3959 -0.5297
18414TIP3    H176733   6.392   5.856  15.231 -4.0006  0.3001  2.0738
18414TIP3    H276734   6.293   5.763  15.163 -2.0014 -1.5716  1.6076
18415TIP3   OH276735   2.832   6.320   1.973 -0.6058  0.0433 -0.6709
18415TIP3    H176736   2.746   6.282   1.952 -0.7405  0.5567 -1.0624
18415TIP3    H276737   2.823   6.348   2.064 -0.6825 -0.3719 -0.5484
18416TIP3   OH276738   3.193   5.226   1.719 -0.6605 -0.2098 -0.4485
18416TIP3    H176739   3.099   5.233   1.734 -0.4825  0.4659  0.4383
18416TIP3    H276740   3.215   5.303   1.666 -0.4964  0.0192 -0.0515
18417TIP3   OH276741   4.592   5.106  17.228  0.0221 -0.0243  0.6617
18417TIP3    H176742   4.607   5.123  17.321 -0.6051  0.8269  0.6202
18417TIP3    H276743   4.570   5.192  17.192  0.5937 -0.2924 -0.3413
18418TIP3   OH276744   3.437   4.850  14.330 -0.2107  0.0985 -0.6649
18418TIP3    H176745   3.343   4.845  14.346 -0.2815  3.2715  0.6220
18418TIP3    H276746   3.466   4.926  14.380  3.2471 -1.2914 -0.3022
18419TIP3   OH276747   5.251   5.004   2.862 -0.3649 -0.0742  0.9051
18419TIP3    H176748   5.227   4.912   2.848  1.8709 -0.3827 -1.7960
18419TIP3    H276749   5.344   5.008   2.839 -0.7194  3.1056 -0.5328
18420TIP3   OH276750   4.291   5.517   2.304  0.0475 -0.2717 -0.2622
18420TIP3    H176751   4.296   5.423   2.318 -0.5698 -0.3159 -0.2865
18420TIP3    H276752   4.248   5.550   2.383 -0.3897 -0.1026 -0.5703
18421TIP3   OH276753   2.533   0.474  13.213  0.7470 -0.2032  0.2704
18421TIP3    H176754   2.443   0.478  13.181  0.3672  1.5756  1.3970
18421TIP3    H276755   2.587   0.503  13.140  0.3850 -0.9615 -0.3063
18422TIP3   OH276756   0.607   4.127   4.148  0.3819 -0.0067  0.3552
18422TIP3    H176757   0.572   4.051   4.194 -0.3372 -0.5036 -0.9666
18422TIP3    H276758   0.638   4.092   4.065 -0.9400  1.2947 -0.7293
18423TIP3   OH276759   4.049   2.141   0.848  0.0881 -0.8830 -0.1068
18423TIP3    H176760   4.105   2.116   0.922  0.4346 -0.1207 -0.1008
18423TIP3    H276761   3.970   2.177   0.888  0.1008 -0.8537 -0.1080
18424TIP3   OH276762   2.443   3.831   0.561 -0.0594 -0.0856 -0.3033
18424TIP3    H176763   2.371   3.775   0.592  0.3476 -1.1904 -1.2620
18424TIP3    H276764   2.522   3.781   0.581  0.5164  1.3696  1.2656
18425TIP3   OH276765   2.021   1.008  16.867  0.1631 -0.4064 -0.2971
18425TIP3    H176766   2.003   1.102  16.858  0.7602 -0.2519  0.0612
18425TIP3    H276767   2.089   1.003  16.935  0.9104 -1.0151 -1.0705
18426TIP3   OH276768   0.749   0.671  13.188 -0.4077 -0.0592 -0.5018
18426TIP3    H176769   0.830   0.699  13.146 -0.1730  0.1189  0.0630
18426TIP3    H276770   0.752   0.575  13.184 -0.0978 -0.0592 -0.3608
18427TIP3   OH276771   6.244   0.796  14.298 -0.3755  0.0404 -0.2399
18427TIP3    H176772   6.213   0.764  14.213  0.0105 -3.9439  0.9261
18427TIP3    H276773   6.339   0.799  14.290 -0.3540 -0.0333 -0.0112
18428TIP3   OH276774   1.066   5.274  14.645 -0.4683  0.0611 -0.2350
18428TIP3    H176775   0.992   5.222  14.676 -2.3885  1.2259 -2.4651
18428TIP3    H276776   1.118   5.214  14.592 -1.6431 -0.0597 -1.2871
18429TIP3   OH276777   1.292   2.119  13.128  0.0657 -0.4348 -0.4643
18429TIP3    H176778   1.294   2.077  13.215  2.6109 -0.2817 -0.3950
18429TIP3    H276779   1.345   2.197  13.138 -1.6823  0.9642 -1.5701
18430TIP3   OH276780   4.300   0.322   1.069  0.4648  0.0852 -0.0966
18430TIP3    H176781   4.321   0.234   1.102  1.0247  0.3902  0.3979
18430TIP3    H276782   4.336   0.324   0.981  0.1331 -0.3009 -0.2426
18431TIP3   OH276783   6.717   5.632   1.501 -0.3567  0.0044  0.1928
18431TIP3    H176784   6.797   5.610   1.454  0.1753  1.3544  0.4006
18431TIP3    H276785   6.687   5.714   1.461 -0.0630  1.0282  1.9484
18432TIP3   OH276786   5.750   1.375   2.418  0.1608  0.1792 -0.4050
18432TIP3    H176787   5.745   1.440   2.348  0.3362 -0.9648 -1.5158
18432TIP3    H276788   5.833   1.395   2.462 -0.0458  1.0358 -0.3755
18433TIP3   OH276789   4.885   2.742   5.294 -0.0450  0.3606 -0.1304
18433TIP3    H176790   4.882   2.769   5.202  1.7309 -0.2535 -0.4030
18433TIP3    H276791   4.899   2.824   5.342  1.0543  0.4580 -0.5899
18434TIP3   OH276792   2.134   0.006  14.515 -0.0658 -0.6912 -0.7959
18434TIP3    H176793   2.106   0.058  14.590 -1.1744 -1.9151 -0.3328
18434TIP3    H276794   2.128  -0.085  14.544  1.5208 -1.1376 -1.6943
18435TIP3   OH276795   4.281   5.618   1.036  0.3687 -0.1155 -0.9852
18435TIP3    H176796   4.311   5.686   0.975  2.5129 -1.5287 -1.6127
18435TIP3    H276797   4.305   5.536   0.994  0.1582 -1.1909  0.9076
18436TIP3   OH276798   3.015   3.447  15.684  0.2381 -0.4782 -0.0884
18436TIP3    H176799   3.026   3.529  15.733 -0.1980 -0.5276  0.0969
18436TIP3    H276800   2.958   3.394  15.739  1.2563 -1.2818  0.2339
18437TIP3   OH276801   4.625   3.582   2.887  0.1482  0.3134  0.1345
18437TIP3    H176802   4.707   3.596   2.933 -0.9032 -0.5125  2.4092
18437TIP3    H276803   4.584   3.669   2.883  0.4607  0.4684  0.3015
18438TIP3   OH276804   2.175   0.383   1.797 -0.2296 -0.2548 -0.1759
18438TIP3    H176805   2.267   0.359   1.811  0.0021 -0.9073 -2.4350
18438TIP3    H276806   2.129   0.299   1.795 -0.3121 -0.1983 -2.3991
18439TIP3   OH276807   0.741   0.323   6.399 -0.3683 -0.6058  0.1018
18439TIP3    H176808   0.655   0.355   6.429 -0.0421 -1.2409  1.8669
18439TIP3    H276809   0.731   0.228   6.396  0.0970 -0.6436 -0.3152
18440TIP3   OH276810   3.592   0.147  12.958 -0.5321 -0.0709  0.1973
18440TIP3    H176811   3.652   0.210  12.918 -1.0994  0.2848 -0.1022
18440TIP3    H276812   3.647   0.070  12.977  0.0078  0.2355 -0.1009
18441TIP3   OH276813   0.724   6.139  12.674 -0.5113 -0.1277  0.3642
18441TIP3    H176814   0.795   6.187  12.631  0.7894 -1.0774  1.3580
18441TIP3    H276815   0.702   6.069  12.613 -1.1470  0.6234 -0.2868
18442TIP3   OH276816   3.688   4.368  14.888 -0.2093  0.5371  0.2219
18442TIP3    H176817   3.699   4.292  14.831 -0.2407  0.9434 -0.3473
18442TIP3    H276818   3.763   4.367  14.946  0.6960  0.9888 -0.8876
18443TIP3   OH276819   6.161   0.207  11.137  0.3081 -0.1675  0.5932
18443TIP3    H176820   6.233   0.147  11.117  2.0918  1.9819  0.1850
18443TIP3    H276821   6.132   0.239  11.051 -0.0584  0.1841  0.8443
18444TIP3   OH276822   5.546   3.282  14.325 -0.2430  0.4696 -0.0806
18444TIP3    H176823   5.587   3.209  14.373  1.2407  0.8753 -0.6955
18444TIP3    H276824   5.452   3.263  14.330 -0.0143 -0.4978  1.3587
18445TIP3   OH276825   0.478   0.289  16.687 -0.3343 -0.0629  0.1480
18445TIP3    H176826   0.442   0.303  16.599  0.6314 -2.2184 -0.6542
18445TIP3    H276827   0.451   0.367  16.736  0.6825  2.1865 -2.5426
18446TIP3   OH276828   3.329   5.380  12.958 -0.4754  0.7360  0.6382
18446TIP3    H176829   3.356   5.472  12.956 -1.5436  1.0647 -1.5367
18446TIP3    H276830   3.381   5.341  13.028  2.9604  2.1171 -0.8927
18447TIP3   OH276831   5.607   0.017  16.460 -0.6002 -0.5504 -0.1030
18447TIP3    H176832   5.566   0.023  16.373  1.0738 -1.5579 -1.0250
18447TIP3    H276833   5.657  -0.064  16.457  2.2192  1.0293  0.5572
18448TIP3   OH276834   5.537   6.398  11.785  0.0938 -0.2428  0.0250
18448TIP3    H176835   5.611   6.458  11.781  1.0479 -1.3379  0.5605
18448TIP3    H276836   5.575   6.315  11.815 -0.9261 -1.4920 -1.8961
18449TIP3   OH276837   2.743   4.140  12.475 -0.1221  0.1881 -0.7117
18449TIP3    H176838   2.654   4.131  12.509  0.0913  2.5527  0.7672
18449TIP3    H276839   2.755   4.235  12.464  2.6842  0.1230  0.6747
18450TIP3   OH276840   2.082   4.614  11.242 -0.1514  0.0901  0.3852
18450TIP3    H176841   2.086   4.659  11.158  1.1111 -0.1879  0.2767
18450TIP3    H276842   2.098   4.522  11.220  1.4683  0.1916  1.0521
18451TIP3   OH276843   2.458   4.895  16.331  1.0032  0.5442 -0.3891
18451TIP3    H176844   2.375   4.870  16.291  0.2716  1.9551  0.1706
18451TIP3    H276845   2.525   4.867  16.268  0.0460  0.4366 -1.3851
18452TIP3   OH276846   5.075   5.164   2.539  0.2058 -0.0033  0.7688
18452TIP3    H176847   5.095   5.231   2.605 -0.1076  0.0353  0.8245
18452TIP3    H276848   5.074   5.212   2.456 -1.6078  0.3737  0.9791
18453TIP3   OH276849   6.273   1.947   0.053 -0.3119 -0.6978  0.5865
18453TIP3    H176850   6.193   1.958   0.104 -0.8160 -0.1784 -0.2938
18453TIP3    H276851   6.343   1.976   0.111 -0.6288 -2.0730  1.7250
18454TIP3   OH276852   3.928   1.701   4.538  0.1783  0.4274 -0.0514
18454TIP3    H176853   3.981   1.737   4.466 -0.5612 -0.2795 -0.9804
18454TIP3    H276854   3.878   1.776   4.571  0.8863  0.8618  0.0764
18455TIP3   OH276855   2.501   3.307   3.478  0.3876 -0.2923 -0.3603
18455TIP3    H176856   2.433   3.243   3.498 -0.4133  0.3230 -1.0193
18455TIP3    H276857   2.494   3.321   3.384  0.1372  1.2011 -0.1474
18456TIP3   OH276858   3.107   4.547   5.209  0.2042  0.0008 -0.2911
18456TIP3    H176859   3.110   4.525   5.302  1.6679  1.4076  0.0242
18456TIP3    H276860   3.155   4.629   5.201  0.0945 -0.0678 -2.2907
18457TIP3   OH276861   0.778   0.742  17.106  0.1307  0.6155  0.4167
18457TIP3    H176862   0.870   0.713  17.109  0.3448  1.1995 -0.2236
18457TIP3    H276863   0.730   0.673  17.151  0.3449 -1.8768 -2.7576
18458TIP3   OH276864   2.008   2.948   3.682 -0.2752 -1.1739 -0.1552
18458TIP3    H176865   2.043   3.036   3.695 -1.4942 -0.5098 -1.0857
18458TIP3    H276866   2.061   2.892   3.738  2.1901 -0.2501 -1.4128
18459TIP3   OH276867   6.605   5.473  14.843  0.2650 -0.8238 -0.0574
18459TIP3    H176868   6.657   5.543  14.882  0.9746 -1.3700  0.0070
18459TIP3    H276869   6.538   5.518  14.792 -1.0415 -0.0599  2.1633
18460TIP3   OH276870   1.071   4.208   4.334 -0.4424  0.0359  0.1729
18460TIP3    H176871   1.052   4.238   4.423  1.0641  0.3631  0.4031
18460TIP3    H276872   0.991   4.228   4.285 -0.7228  1.3207  1.0973
18461TIP3   OH276873   0.624   3.794  16.363  0.1535  0.1865 -0.3934
18461TIP3    H176874   0.716   3.769  16.353 -0.9254 -4.3251 -1.4386
18461TIP3    H276875   0.600   3.831  16.278  0.9551  1.4816 -0.0834
18462TIP3   OH276876   5.671   3.767   2.080 -0.2254 -0.1904 -0.4310
18462TIP3    H176877   5.649   3.766   1.987 -2.1806 -0.5148 -0.0074
18462TIP3    H276878   5.723   3.846   2.091  1.5109 -1.0154 -2.0710
18463TIP3   OH276879   3.618   4.177   2.132  0.4373 -0.4179 -0.5072
18463TIP3    H176880   3.635   4.270   2.146  1.2419 -0.5626 -0.5027
18463TIP3    H276881   3.695   4.133   2.165 -0.2568 -1.1457  0.1887
18464TIP3   OH276882   4.372   0.336   5.009 -0.7267  0.2931  0.5513
18464TIP3    H176883   4.369   0.301   4.920  1.0438 -1.4923  1.1281
18464TIP3    H276884   4.464   0.353   5.026 -0.9550  0.0590  2.2283
18465TIP3   OH276885   3.764   6.479   4.543  0.8538  0.1966  0.3241
18465TIP3    H176886   3.771   6.574   4.551 -1.1342  0.3834  0.4792
18465TIP3    H276887   3.679   6.458   4.583  1.4549 -1.7039  0.6938
18466TIP3   OH276888   1.192   6.449   6.429  0.2953  0.4827  0.4167
18466TIP3    H176889   1.232   6.528   6.466 -0.4330  0.5205  1.1373
18466TIP3    H276890   1.250   6.378   6.457 -0.1124  0.5402  1.4465
18467TIP3   OH276891   2.577   4.759   0.341 -0.2314 -0.3132  0.4147
18467TIP3    H176892   2.594   4.808   0.422  0.7447  0.3494 -0.1762
18467TIP3    H276893   2.537   4.822   0.282  1.6816  0.0210 -0.6040
18468TIP3   OH276894   5.613   2.759  14.947 -0.0227  0.4798 -0.4314
18468TIP3    H176895   5.695   2.792  14.910  0.5625  1.5966  1.7175
18468TIP3    H276896   5.612   2.791  15.037 -1.0164 -2.7038  0.8116
18469TIP3   OH276897   5.582   6.610  14.816 -0.3266  0.6092  0.2479
18469TIP3    H176898   5.532   6.530  14.834  1.2463  0.1588  3.3342
18469TIP3    H276899   5.519   6.681  14.828 -0.9818 -0.0619  0.8687
18470TIP3   OH276900   6.400   6.221  12.242 -0.4014 -0.3441 -0.0170
18470TIP3    H176901   6.329   6.190  12.299  0.0167  0.6750  1.1059
18470TIP3    H276902   6.451   6.280  12.298  1.1800 -0.8434 -0.8779
18471TIP3   OH276903   6.187   4.011  12.531 -0.5519  0.1553 -0.3825
18471TIP3    H176904   6.267   4.061  12.513 -0.5038 -0.1193 -0.9549
18471TIP3    H276905   6.180   3.949  12.458 -0.2336 -1.1602  0.6739
18472TIP3   OH276906   4.742   4.536  12.317  0.1198 -0.7443  0.0977
18472TIP3    H176907   4.679   4.464  12.315 -1.7415  0.8008  0.1491
18472TIP3    H276908   4.739   4.569  12.406  1.1556 -0.7242  0.1459
18473TIP3   OH276909   4.438   6.375   0.724 -0.1608 -0.3309  0.4412
18473TIP3    H176910   4.525   6.341   0.745 -0.7789 -0.9242  2.1571
18473TIP3    H276911   4.421   6.344   0.635  1.3607 -0.2163  0.0819
18474TIP3   OH276912   3.771   2.959   5.904 -0.1301 -0.1247  0.0436
18474TIP3    H176913   3.769   2.870   5.868 -2.3019  0.2845 -1.0187
18474TIP3    H276914   3.859   2.990   5.885  0.3186 -1.6633 -0.5538
18475TIP3   OH276915   2.137   5.258  15.142 -0.0409 -0.3441  0.4363
18475TIP3    H176916   2.162   5.234  15.231 -0.4645 -1.1030  0.3647
18475TIP3    H276917   2.215   5.299  15.105 -0.0661  0.5883  1.3660
18476TIP3   OH276918   2.108   3.621   3.675 -1.0006 -0.1662 -0.4603
18476TIP3    H176919   2.063   3.699   3.708  0.5910  0.5815  0.0369
18476TIP3    H276920   2.102   3.557   3.746  1.8124  1.2007  1.1901
18477TIP3   OH276921   5.354   2.042  13.634 -0.2114  0.0589  0.1264
18477TIP3    H176922   5.342   2.033  13.728 -0.9858 -1.1309 -0.0746
18477TIP3    H276923   5.408   1.967  13.609 -0.4223  0.0887 -0.4427
18478TIP3   OH276924   1.658   3.487   4.324 -0.1558 -0.4179 -0.2863
18478TIP3    H176925   1.692   3.574   4.303  0.1127 -0.3436  0.4255
18478TIP3    H276926   1.713   3.427   4.273  1.3613 -0.3289  1.1489
18479TIP3   OH276927   0.043   5.667   4.459  0.1469 -0.2738  0.3821
18479TIP3    H176928   0.079   5.643   4.374 -0.4710  1.0975 -0.2864
18479TIP3    H276929   0.079   5.753   4.478  0.4734 -0.6551  1.6452
18480TIP3   OH276930   1.505   3.558  13.328  0.1739 -0.2646  0.8501
18480TIP3    H176931   1.540   3.469  13.328  0.9770  0.0330 -0.0385
18480TIP3    H276932   1.476   3.572  13.238  0.2342  0.4332  0.9359
18481TIP3   OH276933   1.656   0.072  13.102 -0.4697 -0.5169 -0.1341
18481TIP3    H176934   1.667   0.161  13.067 -0.1691 -1.4155 -2.5186
18481TIP3    H276935   1.571   0.044  13.068 -0.1481 -1.4485 -0.1811
18482TIP3   OH276936   6.005   4.085  13.956  0.9099 -0.1572 -0.1510
18482TIP3    H176937   6.083   4.099  14.010 -0.0099  4.1105  0.4385
18482TIP3    H276938   5.934   4.071  14.019  0.7289 -1.0593 -0.5455
18483TIP3   OH276939   3.276   0.906  16.726  0.0247  0.5498 -0.3468
18483TIP3    H176940   3.276   0.812  16.740 -1.2722  0.8664  2.6284
18483TIP3    H276941   3.352   0.923  16.670  1.4312 -2.0530  0.6314
18484TIP3   OH276942   5.804   2.890   6.854  0.3653 -0.1121 -0.0401
18484TIP3    H176943   5.779   2.821   6.793  1.4184  0.8268 -1.6007
18484TIP3    H276944   5.725   2.945   6.861  1.1411  1.6419 -3.2573
18485TIP3   OH276945   0.921   5.229  12.648 -0.1325 -0.4584  0.0112
18485TIP3    H176946   0.876   5.173  12.711 -0.8708  0.9360  0.7881
18485TIP3    H276947   0.985   5.172  12.606  0.1767 -1.5208  1.8168
18486TIP3   OH276948   3.219   6.053   2.400  0.2895  0.1828 -0.9623
18486TIP3    H176949   3.297   6.028   2.352  0.9182 -1.1220  0.6574
18486TIP3    H276950   3.251   6.107   2.472 -0.5254  1.2068 -1.3371
18487TIP3   OH276951   5.269   0.276  16.967  0.3107 -0.6289 -0.0952
18487TIP3    H176952   5.353   0.256  16.926 -0.4435 -0.2852 -1.8940
18487TIP3    H276953   5.234   0.349  16.917 -1.6708 -1.6469 -0.2976
18488TIP3   OH276954   2.715   0.373   5.271 -0.6672  0.6612 -0.7632
18488TIP3    H176955   2.709   0.403   5.181  0.3248  2.1558 -0.3622
18488TIP3    H276956   2.688   0.448   5.324  1.9913  0.9914  0.2826
18489TIP3   OH276957   2.178   1.132   3.675 -0.2398 -0.0251  0.2914
18489TIP3    H176958   2.096   1.095   3.707 -0.3897  2.0356  2.6640
18489TIP3    H276959   2.240   1.060   3.679 -1.6580 -1.3467 -0.5157
18490TIP3   OH276960   3.585   0.629  16.566  0.2161 -0.2686 -0.3426
18490TIP3    H176961   3.625   0.626  16.479  0.0128 -0.0055 -0.4460
18490TIP3    H276962   3.543   0.544  16.576 -1.2057  0.3016 -1.1993
18491TIP3   OH276963   5.447   1.564  14.348 -0.7619  0.4104  0.1932
18491TIP3    H176964   5.541   1.577  14.336 -0.5689  0.2024  1.3852
18491TIP3    H276965   5.430   1.478  14.311 -0.3817  0.2101  0.4803
18492TIP3   OH276966   0.504   3.029  11.826 -0.5357 -0.6174 -0.5062
18492TIP3    H176967   0.467   3.057  11.910  0.1418 -0.6828 -0.1745
18492TIP3    H276968   0.487   2.934  11.823  2.5311 -1.3583  1.2548
18493TIP3   OH276969   6.427   0.437   0.587  0.4220  0.1999 -0.0530
18493TIP3    H176970   6.377   0.444   0.669 -1.9699 -1.5570 -1.2483
18493TIP3    H276971   6.481   0.359   0.600 -1.3109 -1.1712 -0.7442
18494TIP3   OH276972   0.645   3.579  11.636 -0.2734 -0.0625  0.0511
18494TIP3    H176973   0.610   3.634  11.565 -0.7432 -1.1584 -0.5991
18494TIP3    H276974   0.568   3.535  11.672 -0.0826  0.7176  1.4871
18495TIP3   OH276975   0.507   6.016   6.110  0.2052 -0.3606 -0.2860
18495TIP3    H176976   0.460   6.076   6.168  1.2339 -0.0169  0.2068
18495TIP3    H276977   0.510   5.933   6.159 -2.2640 -1.2605 -1.4439
18496TIP3   OH276978   3.374   0.282  15.555  0.5604  0.4303  0.4807
18496TIP3    H176979   3.373   0.224  15.479 -0.0074  1.2152 -0.1293
18496TIP3    H276980   3.306   0.247  15.613  0.2882  0.4321  0.1626
18497TIP3   OH276981   1.854   2.801   6.108 -0.0766  1.0704 -0.0812
18497TIP3    H176982   1.915   2.847   6.166 -0.2507  0.9008  0.2398
18497TIP3    H276983   1.768   2.834   6.132 -0.4865 -1.0775  1.8088
18498TIP3   OH276984   4.518   4.712  16.977 -0.3419  0.2541 -0.1480
18498TIP3    H176985   4.436   4.760  16.974 -0.6352 -0.2679 -0.4582
18498TIP3    H276986   4.553   4.718  16.888  0.8635  2.0305  0.3951
18499TIP3   OH276987   2.297   0.106  16.221 -0.7370  0.1886  0.1697
18499TIP3    H176988   2.294   0.101  16.317  1.7445  1.4686  0.4064
18499TIP3    H276989   2.299   0.015  16.192  0.3814 -0.2452  1.4879
18500TIP3   OH276990   5.987   0.395   3.340  0.5098  0.8627  0.2462
18500TIP3    H176991   6.004   0.308   3.305 -2.0616 -0.5415  2.0779
18500TIP3    H276992   6.069   0.422   3.382  1.1390 -1.0386  0.3122
18501TIP3   OH276993   1.678   2.616  14.494 -0.9564  0.4039  0.2885
18501TIP3    H176994   1.753   2.675  14.507  0.0662 -0.8581  0.3992
18501TIP3    H276995   1.712   2.530  14.519 -2.5231 -0.1737  0.5130
18502TIP3   OH276996   3.264   5.289   1.126  0.0145  0.8737  0.0239
18502TIP3    H176997   3.318   5.213   1.145  1.5283  1.5424 -1.3498
18502TIP3    H276998   3.203   5.260   1.059 -1.0871  0.2497  1.2389
18503TIP3   OH276999   3.933   3.912  13.540 -0.0129  0.0106  0.9851
18503TIP3    H177000   3.998   3.868  13.486 -0.5001  2.0101 -1.4264
18503TIP3    H277001   3.977   3.927  13.624  0.7869 -3.1913  1.2850
18504TIP3   OH277002   5.388   6.564   5.018  0.0955  0.0383 -0.0016
18504TIP3    H177003   5.293   6.580   5.013  0.2037  0.5278 -0.8327
18504TIP3    H277004   5.396   6.473   5.045 -0.6196  0.0105  0.1289
18505TIP3   OH277005   4.585   0.253   2.642  0.5008  0.1556  0.0613
18505TIP3    H177006   4.491   0.249   2.661  0.3604  0.1254 -0.6015
18505TIP3    H277007   4.613   0.161   2.641  0.1278  0.0199 -1.6155
18506TIP3   OH277008   6.000   2.359   0.575  0.3412 -0.3713 -0.3685
18506TIP3    H177009   5.940   2.363   0.650  0.1046 -0.4201 -0.5535
18506TIP3    H277010   6.028   2.450   0.562  0.8002 -0.4380  0.1106
18507TIP3   OH277011   1.859   1.759   1.253 -0.3819 -0.1356 -0.3507
18507TIP3    H177012   1.862   1.829   1.189  0.7861  0.6023  0.4666
18507TIP3    H277013   1.766   1.737   1.261 -0.8755  1.8662 -0.0467
18508TIP3   OH277014   3.466   4.356   1.603  0.7001 -1.0669  0.1794
18508TIP3    H177015   3.482   4.355   1.697 -1.6511  0.8306  0.7049
18508TIP3    H277016   3.432   4.269   1.583 -1.6748 -0.5862  1.7523
18509TIP3   OH277017   5.230   6.532   2.554 -0.1247  0.5493 -1.0963
18509TIP3    H177018   5.143   6.573   2.551  0.5332  2.1707  0.3400
18509TIP3    H277019   5.245   6.515   2.647  0.8204 -0.3362 -1.4014
18510TIP3   OH277020   3.391   5.728   0.184  0.1679 -0.1493  0.7740
18510TIP3    H177021   3.485   5.742   0.187  0.3795 -1.5175  1.5961
18510TIP3    H277022   3.381   5.633   0.180 -1.1774 -0.0282  0.6571
18511TIP3   OH277023   2.487   4.916   5.026 -0.2492  0.2817 -0.1452
18511TIP3    H177024   2.575   4.878   5.030 -0.1130  0.6944  1.1007
18511TIP3    H277025   2.479   4.947   4.936  0.3712 -0.9243 -0.6474
18512TIP3   OH277026   6.526   1.837   5.039 -0.8316 -0.1811 -0.2672
18512TIP3    H177027   6.512   1.743   5.037 -2.1297 -0.0553  0.7528
18512TIP3    H277028   6.539   1.862   4.948  2.3719 -1.6717 -0.3222
18513TIP3   OH277029   6.690   5.493  15.597  0.5715 -0.1782 -0.1954
18513TIP3    H177030   6.670   5.504  15.504  0.3862 -0.0899 -0.1443
18513TIP3    H277031   6.763   5.431  15.599  1.4989  0.8652 -0.4709
18514TIP3   OH277032   5.125   4.318   0.735 -0.3449 -0.1951  0.2770
18514TIP3    H177033   5.093   4.371   0.662 -0.2751  0.2719  0.5873
18514TIP3    H277034   5.057   4.251   0.748 -1.3320  0.9193  1.0832
18515TIP3   OH277035   2.535   0.719  14.359 -0.2593  0.5578  0.1439
18515TIP3    H177036   2.505   0.661  14.430  1.1211 -1.5187 -0.8523
18515TIP3    H277037   2.592   0.782  14.402  1.6882 -1.5147  0.8171
18516TIP3   OH277038   4.172   0.744   5.245  0.7052  0.1053  0.3976
18516TIP3    H177039   4.128   0.763   5.162 -0.1428 -0.6906  0.6460
18516TIP3    H277040   4.235   0.815   5.255 -1.2457  1.9166  0.5327
18517TIP3   OH277041   3.230   5.779   3.381  0.4968 -0.1587 -0.0754
18517TIP3    H177042   3.203   5.808   3.294  0.8908  1.7953  0.4084
18517TIP3    H277043   3.208   5.686   3.383 -1.9691  0.3179 -1.3103
18518TIP3   OH277044   3.056   6.055  13.770 -0.0506 -0.2380  0.3016
18518TIP3    H177045   3.091   6.136  13.734  1.2327 -1.4719 -1.3897
18518TIP3    H277046   2.980   6.035  13.715  0.1419 -0.6022  0.1620
18519TIP3   OH277047   1.435   5.594   4.821  0.1500  0.1058 -0.1746
18519TIP3    H177048   1.350   5.633   4.841 -1.3062 -2.1048 -1.5371
18519TIP3    H277049   1.467   5.561   4.905 -0.0142  1.4711  0.4503
18520TIP3   OH277050   1.053   1.307   4.017  0.3179  0.0131  0.5364
18520TIP3    H177051   1.118   1.363   3.976  0.0835  0.1558  0.3563
18520TIP3    H277052   1.101   1.228   4.041  0.1718 -0.7092 -1.3515
18521TIP3   OH277053   6.441   0.739   2.831 -0.4750  0.1965  0.1776
18521TIP3    H177054   6.428   0.831   2.810  0.9206  0.2295 -0.6419
18521TIP3    H277055   6.431   0.735   2.927 -0.3938  1.2088  0.2414
18522TIP3   OH277056   3.467   6.048   3.869  0.0949 -0.6439 -0.2123
18522TIP3    H177057   3.480   6.118   3.805  0.3215 -2.5769 -2.3862
18522TIP3    H277058   3.371   6.038   3.874 -0.0660  1.0488  1.6311
18523TIP3   OH277059   3.076   1.702   4.586  0.2489  0.4480 -0.0857
18523TIP3    H177060   3.110   1.776   4.536  2.0512  0.8022  1.5664
18523TIP3    H277061   3.085   1.627   4.528 -0.3829  1.2764 -1.3015
18524TIP3   OH277062   6.255   2.894  11.102  0.3819 -0.2106  0.2057
18524TIP3    H177063   6.286   2.883  11.192  0.1177  1.6321  0.5788
18524TIP3    H277064   6.244   2.989  11.093  2.3247 -0.1317 -2.4443
18525TIP3   OH277065   2.047   6.005   5.920 -0.3458  0.4330  0.1077
18525TIP3    H177066   2.038   6.100   5.914  1.5094  0.6347 -0.0724
18525TIP3    H277067   2.135   5.992   5.955 -1.0024 -1.2102  1.2582
18526TIP3   OH277068   3.015   5.940  14.434 -0.1214  0.0370 -0.5861
18526TIP3    H177069   3.070   6.016  14.417 -0.1424 -0.0552 -1.0646
18526TIP3    H277070   3.007   5.896  14.349  0.0251 -0.5897 -0.2805
18527TIP3   OH277071   5.786   0.626  14.276 -0.3495  0.1997 -0.5582
18527TIP3    H177072   5.821   0.611  14.188 -0.3485 -2.4682 -0.1857
18527TIP3    H277073   5.693   0.644  14.262 -0.2644  0.2211 -1.1278
18528TIP3   OH277074   2.079   2.273   6.679  0.2807 -0.2127  0.2308
18528TIP3    H177075   2.046   2.352   6.636 -1.2210 -0.1603  1.3706
18528TIP3    H277076   2.140   2.306   6.745  2.2058 -0.2640 -1.4373
18529TIP3   OH277077   0.110   6.213   4.383  0.2286 -0.8354 -0.4642
18529TIP3    H177078   0.091   6.300   4.418 -1.8762 -1.6859  0.6758
18529TIP3    H277079   0.167   6.230   4.307 -1.0922  1.6093 -1.0199
18530TIP3   OH277080   5.932   5.512   0.433 -0.3936 -0.3821 -0.2338
18530TIP3    H177081   5.869   5.583   0.443  2.0251  1.6517  1.8801
18530TIP3    H277082   5.916   5.455   0.508  0.8650  0.7365  0.9475
18531TIP3   OH277083   4.868   0.607  15.174 -0.1988 -0.6435  0.6760
18531TIP3    H177084   4.840   0.560  15.095 -0.1299  4.0226 -2.5591
18531TIP3    H277085   4.963   0.597  15.175 -0.1775 -0.5991 -0.0291
18532TIP3   OH277086   4.306   1.000  17.321  0.1759 -0.1346  0.3215
18532TIP3    H177087   4.229   1.056  17.322  0.7490  0.6744  1.5169
18532TIP3    H277088   4.316   0.975  17.229  0.9746  3.2854 -0.6488
18533TIP3   OH277089   2.845   2.055   5.793  0.1906 -0.3882 -0.5082
18533TIP3    H177090   2.815   2.145   5.782  0.3765 -0.3417 -0.6498
18533TIP3    H277091   2.931   2.064   5.835 -0.0700 -0.5257  0.0656
18534TIP3   OH277092   2.646   1.198   6.239 -0.4512  0.0545 -0.5403
18534TIP3    H177093   2.693   1.276   6.268  0.4820 -0.8762  0.5801
18534TIP3    H277094   2.589   1.176   6.313 -0.7933 -0.2533 -0.8908
18535TIP3   OH277095   4.583   4.860   6.446  0.0054  0.3447 -0.1349
18535TIP3    H177096   4.641   4.935   6.454  0.9331 -0.4513  0.8619
18535TIP3    H277097   4.619   4.795   6.506 -0.0354 -1.3824 -1.8748
18536TIP3   OH277098   3.883   1.836  11.657  0.1064  0.0359  0.2327
18536TIP3    H177099   3.824   1.827  11.582  0.6691 -0.0576 -0.2117
18536TIP3    H277100   3.969   1.851  11.617  0.2158  1.2428  0.8741
18537TIP3   OH277101   3.531   2.228   2.762  0.0257  0.1370  0.3906
18537TIP3    H177102   3.595   2.270   2.819  0.6621 -1.0684  0.5903
18537TIP3    H277103   3.532   2.280   2.682  0.4071  0.7992  0.8213
18538TIP3   OH277104   1.653   0.066  11.951  0.0565 -0.2679 -0.9888
18538TIP3    H177105   1.558   0.078  11.945 -0.0130 -0.4050 -0.2909
18538TIP3    H277106   1.675   0.092  12.041  0.4846 -1.5003 -0.7147
18539TIP3   OH277107   0.153   0.631  16.023 -0.4037  0.3377  0.2499
18539TIP3    H177108   0.095   0.580  15.966 -0.2870 -0.6040  0.9597
18539TIP3    H277109   0.239   0.590  16.014 -0.5918 -0.4914  1.8725
18540TIP3   OH277110   5.980   3.759  13.988 -0.1420  0.3439 -0.1221
18540TIP3    H177111   5.948   3.760  14.078  1.9558 -1.4923  0.7329
18540TIP3    H277112   6.013   3.848  13.973 -0.3129  0.6068  1.0090
18541TIP3   OH277113   5.274   3.503   1.388 -0.2153 -0.2254  0.1665
18541TIP3    H177114   5.341   3.560   1.350 -0.5427  0.5887  0.7745
18541TIP3    H277115   5.313   3.416   1.385 -0.3114 -0.2546 -2.1981
18542TIP3   OH277116   1.013   2.858  14.250  0.1612 -0.0008 -0.3700
18542TIP3    H177117   0.936   2.874  14.196  0.5531  0.4870 -0.8029
18542TIP3    H277118   1.081   2.914  14.212 -0.2345  2.4675  2.2021
18543TIP3   OH277119   6.592   4.570  11.066 -0.0027  0.4110  0.2709
18543TIP3    H177120   6.676   4.614  11.080 -0.1676  1.0123 -0.5041
18543TIP3    H277121   6.579   4.516  11.144  2.4355 -1.9230 -0.8055
18544TIP3   OH277122   4.340   3.844   0.922 -0.4884  0.8023  0.2634
18544TIP3    H177123   4.363   3.917   0.865 -0.2830  1.5754  1.3231
18544TIP3    H277124   4.421   3.825   0.970 -0.8917  0.7216  0.9122
18545TIP3   OH277125   6.426   5.803   0.588 -0.0763 -0.4955 -0.2623
18545TIP3    H177126   6.499   5.831   0.643  0.1683 -0.6447 -0.5054
18545TIP3    H277127   6.427   5.863   0.514 -0.3250 -0.3757 -0.1716
18546TIP3   OH277128   2.393   1.238  14.544  0.1444  0.0456 -0.2476
18546TIP3    H177129   2.420   1.153  14.509 -0.2032  0.4713 -1.5876
18546TIP3    H277130   2.329   1.217  14.612  0.2070 -0.7642 -0.4359
18547TIP3   OH277131   5.576   2.920  17.219  0.2463  0.5418 -0.8184
18547TIP3    H177132   5.483   2.942  17.205 -0.2838 -0.9570  0.1504
18547TIP3    H277133   5.601   2.873  17.139 -0.0979  0.1297 -0.6870
18548TIP3   OH277134   6.317   0.147  15.910  0.3457  0.4515 -0.4029
18548TIP3    H177135   6.327   0.182  15.822  0.8817 -0.3372 -0.6696
18548TIP3    H277136   6.282   0.220  15.961  1.6220  1.4522 -0.8846
18549TIP3   OH277137   6.245   1.405  16.590  0.0008  0.5938  0.8232
18549TIP3    H177138   6.166   1.365  16.629  1.0568 -2.0342  0.5063
18549TIP3    H277139   6.232   1.396  16.496  0.2668  1.0414  0.7432
18550TIP3   OH277140   1.608   6.365   5.257  0.1984  0.1769 -0.2449
18550TIP3    H177141   1.534   6.416   5.225  0.6296  0.2999 -1.0585
18550TIP3    H277142   1.685   6.420   5.242  0.4227  0.2800  1.0867
18551TIP3   OH277143   5.156   4.589  14.917 -0.0983 -0.2033 -0.4441
18551TIP3    H177144   5.229   4.647  14.895 -0.8137  0.3933 -1.2901
18551TIP3    H277145   5.198   4.509  14.950  0.9082  0.5857  0.2393
18552TIP3   OH277146   0.275   0.329   6.091 -0.8293 -0.1161  0.3237
18552TIP3    H177147   0.279   0.382   6.012 -2.5013 -0.0626  0.2555
18552TIP3    H277148   0.182   0.312   6.105 -0.7089  0.8743  2.9342
18553TIP3   OH277149   5.948   2.911  17.475  0.1394 -0.2809  0.6072
18553TIP3    H177150   5.963   2.893  17.568 -0.6052  1.0482  1.0085
18553TIP3    H277151   5.870   2.965  17.473  1.5924  1.9373 -0.5599
18554TIP3   OH277152   2.417   3.275   0.046  0.3490  0.6383 -0.0827
18554TIP3    H177153   2.333   3.244   0.079  0.7478 -1.5683 -0.9838
18554TIP3    H277154   2.443   3.345   0.106 -0.3532 -1.1876  2.4900
18555TIP3   OH277155   0.236   5.566   6.656  0.7253 -0.4068 -0.4299
18555TIP3    H177156   0.175   5.636   6.635 -0.9078 -1.4126  0.6651
18555TIP3    H277157   0.321   5.597   6.624 -0.4915  0.6419 -2.8863
18556TIP3   OH277158   3.546   5.121  14.547  0.3680  0.7841  0.3693
18556TIP3    H177159   3.557   5.087  14.636  0.9357 -2.7030 -0.8582
18556TIP3    H277160   3.634   5.149  14.520  0.7787 -0.7120  0.0553
18557TIP3   OH277161   2.084   3.271  17.287 -0.0734  0.7651 -0.6498
18557TIP3    H177162   2.081   3.189  17.336 -2.1776 -0.1850 -2.2246
18557TIP3    H277163   1.997   3.310  17.299  0.1612  1.6673 -1.7065
18558TIP3   OH277164   5.036   3.395   0.852  0.6557 -0.1878  0.2473
18558TIP3    H177165   5.116   3.347   0.874  0.3891  0.0200  1.7896
18558TIP3    H277166   5.057   3.486   0.872  0.2369 -0.0487  0.0616
18559TIP3   OH277167   1.856   2.218   0.548  0.1765 -0.1571 -0.6548
18559TIP3    H177168   1.798   2.291   0.569  0.0053 -0.3878 -0.3069
18559TIP3    H277169   1.882   2.183   0.634 -0.4164 -1.0314 -0.8217
18560TIP3   OH277170   4.442   4.332  14.494 -0.3227  0.1971 -0.1980
18560TIP3    H177171   4.429   4.244  14.529 -1.6823  0.0909 -0.9153
18560TIP3    H277172   4.357   4.375  14.504  0.4266  1.5713  0.4923
18561TIP3   OH277173   0.412   0.279   1.938  0.1958  0.1547  0.1455
18561TIP3    H177174   0.421   0.195   1.983  0.3702  0.0587 -0.0665
18561TIP3    H277175   0.487   0.330   1.968  0.2039  0.1601  0.1163
18562TIP3   OH277176   5.902   6.524   0.725 -0.1776  0.0849 -0.0571
18562TIP3    H177177   5.901   6.605   0.775  0.0469 -1.1806  2.0843
18562TIP3    H277178   5.961   6.542   0.652 -1.4604  2.3656 -0.6236
18563TIP3   OH277179   3.609   3.381  13.386 -0.1658  0.6722  0.1051
18563TIP3    H177180   3.534   3.330  13.356  0.4034  0.1093 -0.3748
18563TIP3    H277181   3.666   3.388  13.310  0.7337  0.2419  0.7183
18564TIP3   OH277182   2.503   4.209   2.492  0.2822 -0.2923 -0.2855
18564TIP3    H177183   2.580   4.266   2.488  0.9214 -1.1515 -0.7306
18564TIP3    H277184   2.525   4.136   2.433 -0.3190 -1.2090  0.5992
18565TIP3   OH277185   2.148   5.382   1.689 -0.5388  0.2779 -0.3260
18565TIP3    H177186   2.169   5.293   1.719 -0.2305 -0.9754 -3.7910
18565TIP3    H277187   2.232   5.420   1.665 -0.9365  0.2869 -1.7817
18566TIP3   OH277188   4.626   3.249  16.759  0.2581  0.0829  0.3036
18566TIP3    H177189   4.586   3.221  16.677  0.4350 -0.0350  0.2571
18566TIP3    H277190   4.552   3.276  16.814  0.0494 -0.7932  0.4724
18567TIP3   OH277191   5.048   2.679  16.827 -0.3747 -0.2872 -0.6750
18567TIP3    H177192   5.099   2.747  16.784 -0.4019 -0.1423 -0.4818
18567TIP3    H277193   5.019   2.621  16.756  2.3366 -1.9414 -0.5911
18568TIP3   OH277194   3.991   1.931  13.170 -0.6986  0.4157  0.3873
18568TIP3    H177195   4.085   1.929  13.154 -0.9536 -0.4788 -1.2640
18568TIP3    H277196   3.983   1.938  13.265  1.0502 -2.4724  0.8600
18569TIP3   OH277197   0.679   5.316   5.096 -0.0151 -0.4873 -0.3433
18569TIP3    H177198   0.716   5.362   5.171 -0.9898  0.4443 -0.4069
18569TIP3    H277199   0.695   5.374   5.021  2.1263 -1.9895 -1.1566
18570TIP3   OH277200   3.993   1.186  15.704 -0.1153 -0.3605 -0.6981
18570TIP3    H177201   3.914   1.132  15.705 -0.9062  0.7234  1.1954
18570TIP3    H277202   3.964   1.271  15.670 -0.1470  0.4787  1.2857
18571TIP3   OH277203   5.992   2.921   3.180 -0.1584  0.0136  0.0123
18571TIP3    H177204   5.945   2.894   3.259 -0.3196  2.2910  0.7540
18571TIP3    H277205   6.033   3.004   3.203  2.0517 -0.5593 -1.4700
18572TIP3   OH277206   3.375   4.492   6.429  0.2026 -0.7538  0.3249
18572TIP3    H177207   3.456   4.540   6.414  0.3909 -0.6534  1.5391
18572TIP3    H277208   3.384   4.412   6.376 -0.5516  0.9174 -2.5121
18573TIP3   OH277209   1.142   3.065  12.262 -0.1084  0.1928  0.0156
18573TIP3    H177210   1.203   3.139  12.253  1.0289 -0.8774 -1.9073
18573TIP3    H277211   1.094   3.064  12.180 -1.3724 -0.1725  0.7382
18574TIP3   OH277212   4.028   3.626   3.192 -0.1337  0.0017 -0.0121
18574TIP3    H177213   4.114   3.585   3.202 -0.5043 -0.7284  0.1776
18574TIP3    H277214   3.968   3.569   3.240 -1.1103 -0.7379 -2.0037
18575TIP3   OH277215   3.229   6.491  16.566  0.5175 -0.1604  0.0228
18575TIP3    H177216   3.185   6.572  16.538  0.9143 -0.3973 -1.3412
18575TIP3    H277217   3.287   6.519  16.637  0.0683  0.6092  0.0988
18576TIP3   OH277218   6.336   5.831  11.700  0.2480  0.2725 -0.0429
18576TIP3    H177219   6.256   5.883  11.702 -1.1358 -1.7413 -0.4620
18576TIP3    H277220   6.368   5.834  11.791 -0.0477  1.4111  0.0434
18577TIP3   OH277221   1.444   2.199   1.701 -0.0072 -0.1968  0.0620
18577TIP3    H177222   1.502   2.180   1.627 -1.4919 -2.6388 -0.5865
18577TIP3    H277223   1.472   2.285   1.731  3.4821 -0.9235 -0.6278
18578TIP3   OH277224   4.871   4.657  13.732 -0.8465 -0.6391  0.0252
18578TIP3    H177225   4.833   4.722  13.791 -0.1576 -0.6883  0.5438
18578TIP3    H277226   4.898   4.585  13.790  0.4175 -0.4186 -0.2657
18579TIP3   OH277227   1.621   4.607  16.179 -0.4508  0.3562 -0.1263
18579TIP3    H177228   1.561   4.657  16.235  3.1284  1.0914  3.5630
18579TIP3    H277229   1.644   4.668  16.109 -0.5119  1.7959  1.0557
18580TIP3   OH277230   4.531   4.680   0.338 -0.0577  0.3959  0.2742
18580TIP3    H177231   4.500   4.739   0.407  0.4656 -1.3971  2.1509
18580TIP3    H277232   4.456   4.624   0.319 -0.2663  1.0155 -0.8296
18581TIP3   OH277233   5.383   4.229  13.478  0.0214 -0.0980  0.0279
18581TIP3    H177234   5.303   4.198  13.435 -0.3074  1.0746 -0.2427
18581TIP3    H277235   5.450   4.227  13.410 -0.1622  0.4165 -0.1722
18582TIP3   OH277236   5.549   5.326  14.692  0.2391 -0.4564 -0.5161
18582TIP3    H177237   5.617   5.306  14.627 -1.1239 -1.4519 -1.6818
18582TIP3    H277238   5.484   5.257  14.682 -1.5692  1.1342 -0.2887
18583TIP3   OH277239   4.694   0.424  13.926  0.3125  0.5086 -0.2805
18583TIP3    H177240   4.782   0.401  13.897 -0.0129  0.0267 -0.8917
18583TIP3    H277241   4.708   0.492  13.992  1.1263  0.6229 -0.5623
18584TIP3   OH277242   3.416   3.367   4.838  0.9228  0.2314  0.0607
18584TIP3    H177243   3.470   3.345   4.914  0.5487 -0.2441  0.1965
18584TIP3    H277244   3.327   3.344   4.864  1.0427 -2.2189 -1.3052
18585TIP3   OH277245   2.830   0.097   0.515 -0.1309 -0.6240  0.1744
18585TIP3    H177246   2.828   0.191   0.536  2.5533 -0.9235  2.3783
18585TIP3    H277247   2.922   0.079   0.496 -1.1144 -2.1636 -4.2059
18586TIP3   OH277248   3.725   0.957  11.644 -0.0347  0.6885 -0.2396
18586TIP3    H177249   3.696   1.045  11.618 -0.8982  0.5198  0.1101
18586TIP3    H277250   3.644   0.907  11.653  0.2668  0.5400  2.0392
18587TIP3   OH277251   1.538   0.636  10.172 -0.3919 -0.2914  0.0379
18587TIP3    H177252   1.587   0.596  10.244  0.6751  0.9140  0.0028
18587TIP3    H277253   1.481   0.700  10.215 -0.9199 -0.6790 -0.0634
18588TIP3   OH277254   2.352   0.439  16.428  0.1745  0.0747  0.0906
18588TIP3    H177255   2.346   0.502  16.356 -0.5577  0.5918  0.5887
18588TIP3    H277256   2.418   0.477  16.487  0.4591 -0.1285 -0.0969
18589TIP3   OH277257   2.288   6.359   0.240  0.0174  0.1361  0.5418
18589TIP3    H177258   2.324   6.367   0.151  2.0252  0.5654  1.3395
18589TIP3    H277259   2.359   6.388   0.297 -1.7633  1.4190  2.2434
18590TIP3   OH277260   6.680   4.114   0.474 -0.1077 -0.4852  0.2517
18590TIP3    H177261   6.689   4.094   0.381  0.1972 -2.3192  0.6385
18590TIP3    H277262   6.643   4.035   0.512  1.0644 -0.2880  1.9209
18591TIP3   OH277263   1.087   1.919  11.951  0.4175  0.1021  0.5759
18591TIP3    H177264   1.117   1.898  12.040  0.9896  0.9311  0.5953
18591TIP3    H277265   1.165   1.907  11.897  0.4357  0.9059  0.4044
18592TIP3   OH277266   4.881   2.054   1.704  0.0341  0.2402 -0.1120
18592TIP3    H177267   4.954   2.050   1.765 -1.5449 -1.8558  1.8296
18592TIP3    H277268   4.900   1.987   1.638 -0.8204 -1.6050  1.3935
18593TIP3   OH277269   6.117   6.156   0.529  0.2259 -0.6829 -0.1161
18593TIP3    H177270   6.154   6.068   0.527  0.8607 -0.4240  0.3246
18593TIP3    H277271   6.108   6.176   0.622 -0.0417 -0.3305 -0.2179
18594TIP3   OH277272   5.497   0.502   3.743 -0.3757 -0.0265  0.2472
18594TIP3    H177273   5.534   0.418   3.768 -1.6366 -0.5485  0.4514
18594TIP3    H277274   5.573   0.559   3.730  0.5388 -1.4227 -0.7675
18595TIP3   OH277275   4.984   1.598   0.608 -0.1078 -0.0642 -0.2755
18595TIP3    H177276   5.065   1.647   0.596  0.1017 -0.1708  0.6050
18595TIP3    H277277   4.929   1.623   0.534  0.0793  1.3103  0.0234
18596TIP3   OH277278   6.402   0.405  11.088 -0.3468  0.2850  0.8161
18596TIP3    H177279   6.412   0.500  11.082  0.2169  0.1955  0.1504
18596TIP3    H277280   6.348   0.391  11.166 -1.7678  1.2323  0.0430
18597TIP3   OH277281   3.149   1.898   6.638 -0.3634  0.2893 -0.5375
18597TIP3    H177282   3.134   1.942   6.554 -0.6260  0.6446 -0.3096
18597TIP3    H277283   3.183   1.967   6.695  0.6638 -0.1517 -0.5959
18598TIP3   OH277284   5.569   6.425   4.686 -0.0370 -0.0884 -0.1814
18598TIP3    H177285   5.517   6.505   4.681  1.1870  0.6983 -1.0541
18598TIP3    H277286   5.516   6.365   4.738 -1.8551  0.5986 -1.1457
18599TIP3   OH277287   3.768   2.998   4.468  0.0763 -0.0342 -0.3279
18599TIP3    H177288   3.779   3.091   4.450  0.0763  0.0122 -0.0935
18599TIP3    H277289   3.713   2.966   4.397  0.5652  0.0214 -0.7368
18600TIP3   OH277290   0.058   0.748  13.679  0.2872  0.3195 -1.0863
18600TIP3    H177291   0.091   0.662  13.651 -1.2589  0.1385 -2.5217
18600TIP3    H277292   0.026   0.734  13.768  0.1667 -0.5756 -1.2607
18601TIP3   OH277293   4.531   6.038  14.512  0.3049  0.5531 -0.0953
18601TIP3    H177294   4.532   6.083  14.596 -3.6743 -2.9016  2.1649
18601TIP3    H277295   4.450   6.066  14.470  0.0494 -0.9882 -0.7121
18602TIP3   OH277296   6.425   5.469   3.654  0.0841 -0.6255  0.5036
18602TIP3    H177297   6.488   5.483   3.583 -0.6355  0.5681  0.0675
18602TIP3    H277298   6.417   5.374   3.661 -0.9824 -0.8328 -2.1114
18603TIP3   OH277299   5.525   6.541  14.031 -0.1642 -0.0630 -0.1401
18603TIP3    H177300   5.595   6.504  13.978 -0.0242 -0.6691  0.4496
18603TIP3    H277301   5.540   6.635  14.029  0.7424 -0.1906  0.0773
18604TIP3   OH277302   1.698   6.597   4.029  0.4729  0.0134 -0.3459
18604TIP3    H177303   1.740   6.586   3.944 -0.2791 -1.5933 -0.5470
18604TIP3    H277304   1.607   6.573   4.014  0.7896 -2.6677  1.3725
18605TIP3   OH277305   6.434   6.341  13.486 -0.2453  0.4134  0.2411
18605TIP3    H177306   6.484   6.299  13.416 -0.9526  0.4243 -0.2808
18605TIP3    H277307   6.497   6.352  13.558  0.2611 -0.3968 -0.0696
18606TIP3   OH277308   3.469   0.152   3.100  0.8305 -0.4740 -0.1979
18606TIP3    H177309   3.473   0.113   3.013 -1.7147  0.2224 -0.6985
18606TIP3    H277310   3.537   0.220   3.099  0.9002 -0.5447 -1.6073
18607TIP3   OH277311   2.739   4.278  12.818 -0.2656 -0.1788  0.6103
18607TIP3    H177312   2.725   4.183  12.817 -0.4936 -0.2031 -2.3453
18607TIP3    H277313   2.686   4.311  12.746  0.0202  2.2057  1.3913
18608TIP3   OH277314   3.920   0.430   1.639 -0.1032 -0.1353 -0.0256
18608TIP3    H177315   3.895   0.355   1.693 -0.2732 -0.4352 -0.5085
18608TIP3    H277316   3.838   0.480   1.628  0.2323  0.7398  1.2179
18609TIP3   OH277317   3.126   5.240  14.119  0.2431 -0.2081 -0.2901
18609TIP3    H177318   3.154   5.292  14.043 -0.9475  0.0839 -0.5471
18609TIP3    H277319   3.046   5.283  14.150  1.5329  0.6161  2.1218
18610TIP3   OH277320   5.784   2.756  12.235  0.4696 -0.1581 -0.1126
18610TIP3    H177321   5.825   2.803  12.163 -0.5460  1.2205  0.1765
18610TIP3    H277322   5.749   2.676  12.194  1.5968 -0.3510 -0.7402
18611TIP3   OH277323   3.060   6.518  17.345  0.3639 -0.5824  0.6094
18611TIP3    H177324   3.004   6.469  17.286 -0.5561  0.3752  0.6651
18611TIP3    H277325   3.132   6.458  17.366  0.1286 -1.3135 -0.6039
18612TIP3   OH277326   0.901   5.445   2.715  0.0100 -0.0888 -0.0367
18612TIP3    H177327   0.821   5.437   2.767  0.1706  1.2233  0.4585
18612TIP3    H277328   0.875   5.498   2.639  0.0694 -0.9184 -0.6408
18613TIP3   OH277329   0.549   6.260  13.851  0.2410  0.3835  0.0025
18613TIP3    H177330   0.603   6.208  13.791  1.1026 -1.4198  2.1883
18613TIP3    H277331   0.464   6.216  13.851  0.1144  0.6290 -0.2091
18614TIP3   OH277332   0.286   0.407  12.230 -0.3081  0.5013 -0.0365
18614TIP3    H177333   0.286   0.315  12.202 -0.1442  1.0351 -1.9587
18614TIP3    H277334   0.379   0.428  12.245 -0.2845  0.5251 -0.2159
18615TIP3   OH277335   3.406   2.706   0.104  0.2160 -0.6165  0.0031
18615TIP3    H177336   3.392   2.797   0.078 -0.1074 -0.3882  0.9470
18615TIP3    H277337   3.373   2.654   0.031 -1.3611 -0.0072  0.2558
18616TIP3   OH277338   1.890   1.476  14.126 -0.1919 -0.5317  0.0158
18616TIP3    H177339   1.905   1.469  14.220  0.5848  0.1559 -0.0467
18616TIP3    H277340   1.894   1.570  14.108  0.9046 -0.7329 -0.8920
18617TIP3   OH277341   0.382   2.805  14.423  0.1566 -0.0721  0.3519
18617TIP3    H177342   0.456   2.745  14.430 -0.9811 -1.7017 -0.7473
18617TIP3    H277343   0.306   2.748  14.411 -1.0187  1.5905 -0.5996
18618TIP3   OH277344   5.412   0.593   0.949  0.7709 -0.1095 -0.0454
18618TIP3    H177345   5.463   0.646   1.010 -0.2790  0.7607  0.1234
18618TIP3    H277346   5.378   0.656   0.885 -0.2755 -0.6034 -0.0064
18619TIP3   OH277347   3.731   1.894   4.624 -0.1774 -0.4280  0.0781
18619TIP3    H177348   3.780   1.972   4.647  2.7848 -2.0418 -0.2237
18619TIP3    H277349   3.671   1.881   4.697 -0.2020  1.6562  0.4888
18620TIP3   OH277350   1.429   2.265  17.418  0.2037 -0.2653  0.1595
18620TIP3    H177351   1.423   2.286  17.511  1.0237 -0.6567  0.3071
18620TIP3    H277352   1.519   2.289  17.394 -0.3170  0.8133 -0.7810
18621TIP3   OH277353   6.458   4.208  16.167  0.1682 -0.2998 -0.0935
18621TIP3    H177354   6.454   4.301  16.142 -1.2833 -0.4530 -0.5088
18621TIP3    H277355   6.413   4.203  16.251 -2.0911 -0.9731 -1.2658
18622TIP3   OH277356   4.756   5.918   1.588  0.2496 -0.2659 -0.4241
18622TIP3    H177357   4.717   6.004   1.601 -0.1029 -0.5359  0.4254
18622TIP3    H277358   4.727   5.890   1.502  1.1180  0.8397 -1.1040
18623TIP3   OH277359   3.905   2.517  10.981 -0.7087  0.1629  0.3856
18623TIP3    H177360   3.861   2.434  10.999  0.5612 -0.6751 -0.2119
18623TIP3    H277361   3.996   2.503  11.008 -0.6476  1.6585  1.0676
18624TIP3   OH277362   4.064   2.483   4.471 -0.2048 -0.1175  0.0398
18624TIP3    H177363   4.029   2.565   4.436  1.8122  1.6864  1.9725
18624TIP3    H277364   4.097   2.436   4.394  0.0075  1.5994 -0.9677
18625TIP3   OH277365   6.521   0.230   0.961  0.1106  0.4121  0.4124
18625TIP3    H177366   6.527   0.324   0.973  1.4113  0.1943  1.8008
18625TIP3    H277367   6.435   0.207   0.995 -0.5326  1.1644 -0.6480
18626TIP3   OH277368   0.870   4.562  16.617 -0.0338 -1.1273 -0.1988
18626TIP3    H177369   0.947   4.508  16.602 -1.1440 -2.7430 -0.3287
18626TIP3    H277370   0.832   4.528  16.698  0.3404  0.8510  0.8819
18627TIP3   OH277371   6.658   2.011  16.536  0.1058 -0.3735 -0.1938
18627TIP3    H177372   6.594   2.082  16.528 -1.6307 -1.8886 -0.3662
18627TIP3    H277373   6.702   2.008  16.451 -0.2103  0.1255 -0.3770
18628TIP3   OH277374   1.496   0.180   5.494  0.2905  0.1055  0.6814
18628TIP3    H177375   1.433   0.149   5.429 -0.9603  4.5258 -0.5648
18628TIP3    H277376   1.581   0.174   5.451 -0.2154  0.5612 -0.4310
18629TIP3   OH277377   5.459   5.327   0.955  0.4376  0.1814  0.0459
18629TIP3    H177378   5.442   5.421   0.949 -0.4853  0.1756  1.8234
18629TIP3    H277379   5.482   5.301   0.866  1.9738  2.3038 -0.2481
18630TIP3   OH277380   0.348   5.659   5.671 -0.0203 -0.7433 -0.0633
18630TIP3    H177381   0.261   5.631   5.701 -0.1862 -1.7479 -1.3912
18630TIP3    H277382   0.375   5.590   5.610  0.7065  0.7399 -1.4783
18631TIP3   OH277383   3.211   6.708   1.430  0.0869 -0.3290 -0.4821
18631TIP3    H177384   3.303   6.716   1.404  0.2677 -1.5795 -0.2576
18631TIP3    H277385   3.208   6.744   1.518  0.4354 -0.6212 -0.3512
18632TIP3   OH277386   1.011   6.686  13.272 -0.5566  0.6944  0.4488
18632TIP3    H177387   0.978   6.732  13.349 -0.4533 -0.9412  1.5269
18632TIP3    H277388   1.006   6.593  13.295  0.6190  0.2030 -1.0595
18633TIP3   OH277389   6.269   2.466   4.775  0.2641 -0.3498 -0.1238
18633TIP3    H177390   6.188   2.500   4.815  0.3652  0.7344 -0.7978
18633TIP3    H277391   6.239   2.409   4.705  0.0884 -1.2811  0.6932
18634TIP3   OH277392   1.617   2.416   4.449 -0.7347  0.3947  0.0956
18634TIP3    H177393   1.611   2.416   4.544 -2.3663  0.4048  0.0191
18634TIP3    H277394   1.537   2.373   4.420  0.3523 -0.7995 -1.2651
18635TIP3   OH277395   4.595   5.832  12.383  0.3212  0.8621 -0.7365
18635TIP3    H177396   4.625   5.752  12.426 -0.0333  0.2176 -1.6643
18635TIP3    H277397   4.642   5.902  12.429  2.8180 -0.0568 -1.7266
18636TIP3   OH277398   5.337   5.999  12.232  0.2585 -0.1989  0.1533
18636TIP3    H177399   5.327   5.990  12.327 -1.5559 -0.7831 -0.0520
18636TIP3    H277400   5.269   6.061  12.206  0.2021 -0.6617 -0.8652
18637TIP3   OH277401   1.638   3.884  13.615 -0.2136 -0.1037  0.6110
18637TIP3    H177402   1.650   3.881  13.710  1.0138  1.7954  0.5734
18637TIP3    H277403   1.603   3.972  13.598  0.2916 -0.1381 -0.7353
18638TIP3   OH277404   1.782   0.961  16.556 -0.3362  0.5661  0.0171
18638TIP3    H177405   1.692   0.949  16.524  1.2237 -1.6858 -4.3306
18638TIP3    H277406   1.815   1.037  16.509  0.8384 -0.3355 -0.6753
18639TIP3   OH277407   5.110   0.543   6.425  0.0077 -0.9885  0.5260
18639TIP3    H177408   5.064   0.527   6.508  0.2059 -1.0719  0.6199
18639TIP3    H277409   5.141   0.457   6.398 -0.1618 -0.9806  0.3010
18640TIP3   OH277410   4.216   3.777  15.397 -0.1702  0.8357  0.5235
18640TIP3    H177411   4.154   3.709  15.424  1.5374 -1.4296 -0.8033
18640TIP3    H277412   4.194   3.793  15.305 -0.4479  2.0211  0.7818
18641TIP3   OH277413   6.109   1.384   5.725 -0.8276  0.3166 -0.2924
18641TIP3    H177414   6.121   1.436   5.804  2.4651 -0.7474  0.0590
18641TIP3    H277415   6.085   1.447   5.658  1.0981  2.0676  0.5581
18642TIP3   OH277416   4.833   6.475   2.529  0.0526  0.1684  0.6314
18642TIP3    H177417   4.914   6.438   2.565 -0.9041 -0.5332  2.2006
18642TIP3    H277418   4.833   6.566   2.557 -0.2616 -0.1518  1.7505
18643TIP3   OH277419   6.213   5.134  11.297 -0.0242  0.1182 -0.0634
18643TIP3    H177420   6.135   5.161  11.248  1.3238  1.1736 -1.7509
18643TIP3    H277421   6.271   5.095  11.231  1.4557  0.6325  0.8704
18644TIP3   OH277422   4.815   0.543   4.515  0.1488 -0.1030 -0.5660
18644TIP3    H177423   4.829   0.571   4.606 -1.6448 -0.1923 -0.2143
18644TIP3    H277424   4.854   0.613   4.463  2.1223 -0.5395  0.2266
18645TIP3   OH277425   1.562   3.528  11.490  0.6365  0.1440 -0.0626
18645TIP3    H177426   1.468   3.510  11.486  0.0488  2.8594 -0.3784
18645TIP3    H277427   1.591   3.523  11.399  0.7948 -0.5517  0.0187
18646TIP3   OH277428   3.175   3.849  13.901 -0.3132  0.0310  0.4119
18646TIP3    H177429   3.108   3.915  13.921 -2.9812 -1.6959 -2.0015
18646TIP3    H277430   3.226   3.887  13.830 -0.3880  0.3892  0.5499
18647TIP3   OH277431   0.666   5.461   4.846 -0.3397  0.1540 -0.2039
18647TIP3    H177432   0.576   5.491   4.856 -0.4558  0.4589 -1.9570
18647TIP3    H277433   0.670   5.423   4.759  1.3102  0.4530 -0.2948
18648TIP3   OH277434   0.791   6.743   3.368 -0.1072 -0.3810  0.6489
18648TIP3    H177435   0.724   6.702   3.423 -0.8372  0.5258  0.4620
18648TIP3    H277436   0.805   6.829   3.407  1.7050 -0.9153  1.2828
18649TIP3   OH277437   2.042   3.144  15.836  0.3581  0.0819  0.3907
18649TIP3    H177438   2.019   3.053  15.819  1.2495  0.0767 -0.9006
18649TIP3    H277439   2.100   3.140  15.913  0.6664 -0.4856  0.1330
18650TIP3   OH277440   0.076   6.694  13.186 -0.1195 -0.0420  0.3328
18650TIP3    H177441  -0.001   6.730  13.230 -0.1684  1.9554 -1.2475
18650TIP3    H277442   0.117   6.770  13.142  2.1023 -1.2389  0.1727
18651TIP3   OH277443   5.497   6.542   2.880 -0.2835 -0.0892 -0.4831
18651TIP3    H177444   5.536   6.468   2.833 -1.8891 -1.7773  0.6805
18651TIP3    H277445   5.488   6.510   2.970 -0.1134  1.9238  0.2892
18652TIP3   OH277446   6.037   2.080   0.934 -0.2999 -0.9562  0.2480
18652TIP3    H177447   6.078   1.996   0.953 -0.8225 -1.3277 -0.2282
18652TIP3    H277448   6.048   2.131   1.014 -0.0580 -1.5090  0.5714
18653TIP3   OH277449   4.816   0.161  15.738 -0.1054  0.3038 -0.4018
18653TIP3    H177450   4.894   0.146  15.791  0.0838 -0.6102 -0.9291
18653TIP3    H277451   4.782   0.245  15.769  1.0091  0.6452 -0.0805
18654TIP3   OH277452   1.546   6.506   4.696 -0.1784 -0.5464 -0.3435
18654TIP3    H177453   1.623   6.507   4.638  2.5516 -0.8589  2.9444
18654TIP3    H277454   1.503   6.590   4.680  1.2923  0.0013 -1.7646
18655TIP3   OH277455   5.042   3.517   2.394  0.2215  0.0545 -0.1043
18655TIP3    H177456   4.992   3.555   2.466  0.1508 -0.0600 -0.0926
18655TIP3    H277457   4.981   3.457   2.351 -0.0021  0.7517 -0.7810
18656TIP3   OH277458   4.497   6.619   0.464 -0.5609  0.1207 -0.1273
18656TIP3    H177459   4.524   6.708   0.441 -0.9188  0.1991 -0.2404
18656TIP3    H277460   4.541   6.601   0.547 -1.8416  1.0298  0.7742
18657TIP3   OH277461   6.342   4.772   4.823  0.0925  0.5007  0.1466
18657TIP3    H177462   6.318   4.769   4.730 -0.7040 -0.7874  0.3620
18657TIP3    H277463   6.262   4.803   4.867 -0.5900 -1.7345  0.6563
18658TIP3   OH277464   4.232   2.328   1.263  0.2413 -0.1985  0.5646
18658TIP3    H177465   4.189   2.297   1.342 -0.1898 -0.4405  0.2366
18658TIP3    H277466   4.281   2.252   1.230  0.8040  0.0326  0.8542
18659TIP3   OH277467   2.461   2.948   6.240 -0.1184 -0.3369 -0.1110
18659TIP3    H177468   2.480   3.042   6.232  0.1112 -0.1847  1.8105
18659TIP3    H277469   2.484   2.927   6.330 -0.2735 -2.2376 -0.4864
18660TIP3   OH277470   6.592   5.363  10.991 -0.0288 -0.4561  0.7386
18660TIP3    H177471   6.540   5.338  10.915 -1.3686 -0.3373  1.5809
18660TIP3    H277472   6.671   5.309  10.985  1.4242  1.7444 -2.4090
18661TIP3   OH277473   4.605   1.516   1.793 -0.4396  0.1087  0.0134
18661TIP3    H177474   4.550   1.594   1.804  0.2948  1.0715 -2.3637
18661TIP3    H277475   4.549   1.454   1.748 -0.8188 -0.5259  1.3208
18662TIP3   OH277476   0.433   1.021   2.282  0.6013  1.0800 -0.1228
18662TIP3    H177477   0.410   1.039   2.190  1.4079  0.1647 -0.5218
18662TIP3    H277478   0.493   0.946   2.277  0.1715  0.6339  1.2067
18663TIP3   OH277479   0.991   2.125  11.282  0.0669  0.2570 -0.1371
18663TIP3    H177480   1.057   2.140  11.215  0.7148 -1.6077  0.0506
18663TIP3    H277481   1.041   2.106  11.361 -0.6998  1.6732  0.7390
18664TIP3   OH277482   3.236   6.124   4.283 -0.0355  0.4899  0.0160
18664TIP3    H177483   3.241   6.218   4.269  0.1258  0.4876  0.0619
18664TIP3    H277484   3.273   6.110   4.370 -1.5874  0.5669  0.7267
18665TIP3   OH277485   5.315   2.684   4.195 -0.7038 -0.1051  0.4595
18665TIP3    H177486   5.259   2.657   4.269  0.0635  1.0055  1.4929
18665TIP3    H277487   5.368   2.755   4.231  1.8103 -1.4829 -0.2978
18666TIP3   OH277488   4.216   1.996  15.129 -0.1823 -0.1395  0.3631
18666TIP3    H177489   4.285   1.934  15.106  2.2282  2.6646 -0.6900
18666TIP3    H277490   4.247   2.038  15.209 -2.5234 -1.2277  1.9662
18667TIP3   OH277491   4.761   6.722  11.253  0.0728  0.5058 -0.6105
18667TIP3    H177492   4.815   6.694  11.179 -1.0235  1.0908 -1.6744
18667TIP3    H277493   4.741   6.814  11.235  0.6705  0.9792  0.9889
18668TIP3   OH277494   2.372   1.966  12.115  0.0068 -0.0056  0.2861
18668TIP3    H177495   2.309   1.946  12.184 -1.4852 -0.6072 -1.1870
18668TIP3    H277496   2.413   2.048  12.143 -1.6887  0.5926  1.1275
18669TIP3   OH277497   4.643   4.192  16.969  0.0736 -0.4342 -0.0650
18669TIP3    H177498   4.573   4.149  16.921  0.9449 -1.4892 -0.4191
18669TIP3    H277499   4.601   4.268  17.010 -0.9502 -0.1967 -1.4905
18670TIP3   OH277500   2.505   2.603  15.482  0.6642  0.4017 -0.1644
18670TIP3    H177501   2.472   2.626  15.570  0.1974 -0.5349 -0.0869
18670TIP3    H277502   2.573   2.668  15.465  0.9287  0.4562  0.9933
18671TIP3   OH277503   2.662   4.425  15.246 -0.1449 -0.2043  0.1112
18671TIP3    H177504   2.696   4.338  15.265  0.9547  0.5401  1.7964
18671TIP3    H277505   2.716   4.456  15.173 -0.1947 -0.7354 -0.1511
18672TIP3   OH277506   3.973   4.493   3.823 -0.1869  0.1719  0.5805
18672TIP3    H177507   4.009   4.447   3.747  1.1493 -0.3510  1.4920
18672TIP3    H277508   4.036   4.476   3.893  0.1688  3.0538  1.0760
18673TIP3   OH277509   0.980   1.302  14.173  0.4326  0.6277 -0.4170
18673TIP3    H177510   1.048   1.242  14.203 -0.2494  0.1375  0.1991
18673TIP3    H277511   1.027   1.381  14.146  1.3268 -0.1201 -1.0878
18674TIP3   OH277512   2.667   4.995   5.748  0.1158  0.0526  0.2219
18674TIP3    H177513   2.704   5.073   5.706 -0.2814  0.3214  0.3685
18674TIP3    H277514   2.690   5.005   5.841 -1.7443  1.0688  0.6139
18675TIP3   OH277515   5.897   6.167   5.376 -0.7029 -0.2352 -0.0946
18675TIP3    H177516   5.961   6.195   5.311 -2.1116  2.1422 -0.5778
18675TIP3    H277517   5.942   6.099   5.427  0.7135 -1.6824 -3.0180
18676TIP3   OH277518   5.962   4.230   6.611 -0.2705 -0.6025 -0.5155
18676TIP3    H177519   6.009   4.260   6.533 -0.3163  0.8134 -0.0445
18676TIP3    H277520   5.870   4.255   6.594  0.0886  2.2885  1.0459
18677TIP3   OH277521   6.339   0.113  14.905  0.4094 -0.1672  0.4449
18677TIP3    H177522   6.405   0.115  14.835 -2.2839  0.2298 -2.2665
18677TIP3    H277523   6.342   0.201  14.943 -0.2930  0.7389 -1.4735
18678TIP3   OH277524   5.755   3.323  13.558  0.0623  0.0834  0.1370
18678TIP3    H177525   5.834   3.377  13.565  0.1347 -0.2344  2.6356
18678TIP3    H277526   5.699   3.354  13.629 -0.5049 -2.1273  0.7289
18679TIP3   OH277527   5.894   0.547  15.963  0.1908 -0.5182  0.1258
18679TIP3    H177528   5.846   0.628  15.944 -0.7505 -1.3705 -1.3409
18679TIP3    H277529   5.851   0.511  16.041 -0.5822 -0.5019 -0.2791
18680TIP3   OH277530   3.445   1.581  13.798  0.2001 -0.1700 -0.2078
18680TIP3    H177531   3.497   1.503  13.776  0.0025 -0.3468 -0.0557
18680TIP3    H277532   3.507   1.639  13.843  0.8370  0.5587 -1.9215
18681TIP3   OH277533   3.520   0.147   5.800  0.0335  0.0654  0.0800
18681TIP3    H177534   3.439   0.177   5.758  0.3685  2.0674  0.7575
18681TIP3    H277535   3.590   0.183   5.745  0.4805 -1.1126 -0.1403
18682TIP3   OH277536   0.150   5.555  13.308 -0.0904 -0.1371  0.1643
18682TIP3    H177537   0.086   5.586  13.243 -0.0419  1.7145  0.9192
18682TIP3    H277538   0.138   5.615  13.382  0.8573 -1.2940  1.2866
18683TIP3   OH277539   3.154   4.713  15.710  0.1126 -0.2529  0.7213
18683TIP3    H177540   3.183   4.791  15.757  1.3952 -0.9445  1.1300
18683TIP3    H277541   3.076   4.741  15.663 -0.4603  0.8097  2.2334
18684TIP3   OH277542   0.448   0.051   5.787 -0.5743  0.1941  0.0196
18684TIP3    H177543   0.377   0.034   5.848  0.4888  0.0182  1.2428
18684TIP3    H277544   0.488  -0.035   5.771  0.0683  0.4479  0.2342
18685TIP3   OH277545   1.432   6.204  11.924 -0.0218 -0.1071 -0.1489
18685TIP3    H177546   1.350   6.225  11.968 -0.1016 -0.5255 -0.1002
18685TIP3    H277547   1.499   6.251  11.975 -0.2829  0.7338 -0.5483
18686TIP3   OH277548   5.496   4.113  10.548  0.4436 -0.3547 -0.3386
18686TIP3    H177549   5.581   4.069  10.550  0.4094 -0.4746 -1.1120
18686TIP3    H277550   5.432   4.044  10.566  0.3520 -0.7588 -2.0319
18687TIP3   OH277551   5.316   3.409  11.312 -0.6712 -0.1259  0.1678
18687TIP3    H177552   5.265   3.433  11.234 -2.5154 -0.6291  1.1665
18687TIP3    H277553   5.256   3.424  11.385  0.3626 -1.5111  1.3487
18688TIP3   OH277554   0.427   0.785   3.278  0.4980  0.1100  0.4660
18688TIP3    H177555   0.370   0.729   3.330  0.0689 -0.4289 -0.5663
18688TIP3    H277556   0.504   0.730   3.259  0.2024 -0.0528 -0.3082
18689TIP3   OH277557   0.951   3.618   2.726  0.6788  0.4471  0.4984
18689TIP3    H177558   0.984   3.529   2.736  1.4074  0.7292  0.7231
18689TIP3    H277559   0.994   3.651   2.647 -0.9478  0.0232 -0.6112
18690TIP3   OH277560   4.889   0.076   0.083 -0.0770  0.5750 -0.0401
18690TIP3    H177561   4.892   0.166   0.115 -0.4805  1.5140 -2.3981
18690TIP3    H277562   4.967   0.069   0.027  1.0132 -1.2126  1.5914
18691TIP3   OH277563   2.405   2.671   3.692 -0.0430 -0.2148  1.1479
18691TIP3    H177564   2.469   2.620   3.642 -0.9911 -2.7618  2.3833
18691TIP3    H277565   2.446   2.685   3.777  0.2806  1.3607  0.7738
18692TIP3   OH277566   0.964   2.737  12.990  0.1248 -0.3308  0.0228
18692TIP3    H177567   0.917   2.671  12.939  3.2149 -0.6718 -2.7406
18692TIP3    H277568   0.963   2.815  12.935  2.7866 -0.4234 -0.3014
18693TIP3   OH277569   6.285   2.427  14.520 -0.1850  0.0945 -0.0865
18693TIP3    H177570   6.275   2.510  14.474 -1.3153 -1.8743 -3.8500
18693TIP3    H277571   6.312   2.365  14.452  0.4579 -2.6852  2.4734
18694TIP3   OH277572   3.448   3.676  15.655 -0.1460 -0.5196 -0.0899
18694TIP3    H177573   3.457   3.582  15.671  1.3145 -0.3056  0.5095
18694TIP3    H277574   3.526   3.715  15.694 -0.2918  0.8605 -1.0806
18695TIP3   OH277575   4.363   5.877   2.301 -0.2963  0.3625  0.5579
18695TIP3    H177576   4.381   5.783   2.299  1.6820  0.6405  2.0246
18695TIP3    H277577   4.439   5.916   2.256 -1.4778  1.2619 -0.7573
18696TIP3   OH277578   0.651   3.421  16.109  0.4433  0.1206 -0.0792
18696TIP3    H177579   0.615   3.509  16.098 -0.9581 -0.5491 -1.1721
18696TIP3    H277580   0.745   3.431  16.092  0.2902  1.3874 -0.2340
18697TIP3   OH277581   4.336   0.048   4.285  0.0446 -0.2485 -0.7610
18697TIP3    H177582   4.311   0.078   4.197  0.2956  0.1113 -0.7105
18697TIP3    H277583   4.311  -0.044   4.287 -0.2048 -0.1890 -1.1199
18698TIP3   OH277584   5.255   0.706  14.657  0.0416  0.2773  0.1684
18698TIP3    H177585   5.217   0.631  14.612 -1.3817  2.1419 -1.9798
18698TIP3    H277586   5.334   0.727  14.608 -1.2275  1.9898 -1.2867
18699TIP3   OH277587   5.790   4.533   6.032 -0.0900 -0.1521  0.1773
18699TIP3    H177588   5.806   4.440   6.046 -1.3977 -0.6976 -1.5620
18699TIP3    H277589   5.868   4.564   5.986 -0.3419 -0.8134 -0.7339
18700TIP3   OH277590   6.617   1.098  16.815  0.4903 -0.3251 -0.0615
18700TIP3    H177591   6.710   1.080  16.828  0.7371  1.4806  1.0255
18700TIP3    H277592   6.616   1.175  16.758 -0.3960 -0.8690 -0.8150
18701TIP3   OH277593   5.640   5.680  15.535 -0.1776  0.2470 -0.2250
18701TIP3    H177594   5.640   5.769  15.502  2.0018  0.3279 -0.1314
18701TIP3    H277595   5.705   5.680  15.605 -2.1416 -0.7699  1.7395
18702TIP3   OH277596   1.845   5.746  14.647 -0.3815  0.2869  0.2319
18702TIP3    H177597   1.837   5.840  14.659 -0.8919  0.4135 -1.0564
18702TIP3    H277598   1.764   5.719  14.605 -0.5472 -0.8533  1.1960
18703TIP3   OH277599   5.822   6.587  17.160  0.5206 -0.0665  0.5313
18703TIP3    H177600   5.854   6.654  17.221 -1.3341 -1.7712  3.6469
18703TIP3    H277601   5.892   6.523  17.155  0.3915 -0.2997  1.5602
18704TIP3   OH277602   3.505   1.973   0.988  0.5510 -0.3027 -0.3225
18704TIP3    H177603   3.497   1.923   1.069 -0.6097  0.5103  0.0824
18704TIP3    H277604   3.496   2.064   1.014  2.9422  0.2174 -1.0081
18705TIP3   OH277605   4.107   6.285   5.666 -1.0248 -0.0590 -0.3611
18705TIP3    H177606   4.134   6.371   5.635 -0.4183 -0.2382 -0.3494
18705TIP3    H277607   4.055   6.303   5.745 -0.2074  0.2649  0.1175
18706TIP3   OH277608   5.034   4.622  16.564 -0.2061  0.1159  0.4807
18706TIP3    H177609   4.979   4.653  16.637 -2.4598 -2.1066 -0.1069
18706TIP3    H277610   5.112   4.677  16.567 -0.4843  0.5447  4.1622
18707TIP3   OH277611   2.677   1.398   0.458  0.3099  0.4411 -0.0366
18707TIP3    H177612   2.626   1.324   0.491  0.8536  0.4157  0.7681
18707TIP3    H277613   2.738   1.359   0.396 -0.3738  0.4206 -0.7154
18708TIP3   OH277614   5.711   2.203   4.696  0.0112  0.1428 -0.4242
18708TIP3    H177615   5.619   2.179   4.706 -0.5115  1.8260 -0.8957
18708TIP3    H277616   5.716   2.246   4.610  1.2043  0.2812 -0.3105
18709TIP3   OH277617   0.368   6.772  14.932  0.1229  0.2593 -0.1959
18709TIP3    H177618   0.443   6.801  14.984  0.7082  0.1767 -0.9664
18709TIP3    H277619   0.329   6.701  14.983  0.2600  0.6514  0.4562
18710TIP3   OH277620   2.747   1.374  12.055  0.2390 -0.5323 -0.1720
18710TIP3    H177621   2.733   1.282  12.075  0.2884 -0.8630 -1.5682
18710TIP3    H277622   2.778   1.375  11.964  0.0444  0.8728 -0.2496
18711TIP3   OH277623   6.117   3.363   1.870 -0.1151  0.5590 -0.2445
18711TIP3    H177624   6.040   3.326   1.913  0.4821  3.0409  3.4411
18711TIP3    H277625   6.082   3.422   1.803 -1.2696 -0.3442 -0.4673
18712TIP3   OH277626   3.448   4.456  13.072  0.6174  0.0881 -0.1192
18712TIP3    H177627   3.381   4.413  13.019  0.8005 -0.0045 -0.2781
18712TIP3    H277628   3.408   4.539  13.098  0.6436  0.2742 -0.6652
18713TIP3   OH277629   2.500   4.814  11.449 -0.2634 -0.2078 -0.4385
18713TIP3    H177630   2.495   4.718  11.450 -0.0566 -0.2195 -0.3496
18713TIP3    H277631   2.593   4.832  11.459 -0.1150 -0.0171 -1.8866
18714TIP3   OH277632   2.179   5.456  17.353 -0.8717 -0.3092 -0.2143
18714TIP3    H177633   2.249   5.501  17.401 -1.1710 -0.5541  0.4556
18714TIP3    H277634   2.112   5.523  17.340 -1.2898 -0.5239  0.7282
18715TIP3   OH277635   6.491   1.713   3.692 -0.4981  0.1142  0.6639
18715TIP3    H177636   6.586   1.701   3.687 -0.3125  1.7977 -0.5076
18715TIP3    H277637   6.459   1.685   3.607 -1.3054 -1.9951  1.5891
18716TIP3   OH277638   5.467   3.834   0.857  0.7222 -0.0251 -0.2691
18716TIP3    H177639   5.549   3.849   0.903  0.5188  0.6554 -0.1161
18716TIP3    H277640   5.475   3.746   0.820  1.4798  0.0083 -0.1839
18717TIP3   OH277641   6.733   4.510  17.469 -0.3967 -0.6242 -0.3772
18717TIP3    H177642   6.700   4.484  17.383 -0.6919 -0.7657 -0.2219
18717TIP3    H277643   6.659   4.497  17.528  0.4130 -2.5589  0.2912
18718TIP3   OH277644   6.735   0.643   0.756 -0.4469  0.1213 -0.0957
18718TIP3    H177645   6.770   0.583   0.821  0.4786 -1.0968 -1.6428
18718TIP3    H277646   6.757   0.603   0.672 -1.4060  1.7345 -1.1764
18719TIP3   OH277647   6.537   4.476  14.919 -0.6319  0.0002  0.1292
18719TIP3    H177648   6.605   4.433  14.971  0.5366  1.4087 -0.1746
18719TIP3    H277649   6.476   4.511  14.984 -0.6327 -0.5682  0.4395
18720TIP3   OH277650   3.927   0.046   1.306 -0.1724  0.2637  0.2713
18720TIP3    H177651   3.950  -0.046   1.310  0.6717  0.4865  0.7978
18720TIP3    H277652   3.905   0.061   1.214 -0.6461 -0.5267  0.2449
18721TIP3   OH277653   0.891   5.780  16.620 -0.1570  0.5073 -0.0056
18721TIP3    H177654   0.967   5.770  16.677  0.0766  0.5629 -0.3096
18721TIP3    H277655   0.842   5.852  16.660  0.1771  0.7680 -0.0641
18722TIP3   OH277656   2.315   5.033   3.790  0.0202  0.0677  0.0785
18722TIP3    H177657   2.366   4.983   3.854 -0.7315 -0.2598  0.4257
18722TIP3    H277658   2.315   4.979   3.711 -1.7906 -1.0882  0.8086
18723TIP3   OH277659   4.970   0.694  12.371 -0.1352 -0.2606 -0.1450
18723TIP3    H177660   4.973   0.607  12.410 -1.7280  0.1451  1.0176
18723TIP3    H277661   4.936   0.680  12.283  2.3059 -1.0568 -1.0433
18724TIP3   OH277662   2.413   6.331  10.743 -0.6019  0.5801 -1.1673
18724TIP3    H177663   2.464   6.253  10.719  0.0205 -0.7390  3.5811
18724TIP3    H277664   2.322   6.305  10.730 -0.3863 -0.8360 -0.0083
18725TIP3   OH277665   4.683   1.327  17.381 -0.0424 -0.3574 -0.4642
18725TIP3    H177666   4.619   1.339  17.450 -0.0664 -0.1927 -0.5137
18725TIP3    H277667   4.670   1.237  17.351 -0.8527 -0.0437 -1.0818
18726TIP3   OH277668   5.282   3.990   1.016 -0.2538 -0.6857  0.4668
18726TIP3    H177669   5.357   3.966   0.962 -0.7749 -1.2002 -0.0409
18726TIP3    H277670   5.304   4.077   1.051 -0.2661  0.0689 -1.2725
18727TIP3   OH277671   3.216   5.944  12.985  0.0048  0.4562  0.3707
18727TIP3    H177672   3.146   5.888  13.019  1.4829 -0.5829  1.9439
18727TIP3    H277673   3.215   5.930  12.891 -1.0705 -0.5392  0.5042
18728TIP3   OH277674   0.564   2.181   2.534  0.2082 -0.3290  0.9610
18728TIP3    H177675   0.565   2.131   2.452  1.9674  1.3448 -0.1356
18728TIP3    H277676   0.656   2.182   2.562 -0.3655 -0.9122  3.0374
18729TIP3   OH277677   6.117   3.671   6.222  0.0564 -0.4498  0.0543
18729TIP3    H177678   6.122   3.766   6.208  0.9139 -0.7264 -1.7116
18729TIP3    H277679   6.084   3.662   6.312 -1.6372  1.5079 -0.3025
18730TIP3   OH277680   3.690   4.899  13.970  0.1591 -0.3382  0.6818
18730TIP3    H177681   3.595   4.888  13.978  0.1066 -0.6226 -0.2362
18730TIP3    H277682   3.727   4.832  14.027 -0.1894 -0.6265  0.5724
18731TIP3   OH277683   0.473   4.836   0.681  0.5299  0.0714 -0.4875
18731TIP3    H177684   0.564   4.843   0.653  0.5554  0.1561 -0.3833
18731TIP3    H277685   0.448   4.925   0.707  0.4676  0.0183 -0.3625
18732TIP3   OH277686   3.454   2.178   1.615  0.1825 -0.2975 -0.0160
18732TIP3    H177687   3.525   2.192   1.678 -0.0050  0.7584 -0.0230
18732TIP3    H277688   3.374   2.188   1.667  0.0323 -1.0641 -0.0937
18733TIP3   OH277689   3.689   5.705  14.450  0.3041 -0.4378 -0.2966
18733TIP3    H177690   3.750   5.677  14.381 -0.1976 -1.0179 -0.5169
18733TIP3    H277691   3.737   5.772  14.498  1.7963 -2.0378  0.5991
18734TIP3   OH277692   1.939   0.390   2.154 -0.1244  0.7111  0.3430
18734TIP3    H177693   1.967   0.336   2.227  3.0977 -0.1650 -1.3677
18734TIP3    H277694   1.875   0.336   2.107  2.6020 -1.6013 -1.0177
18735TIP3   OH277695   5.116   3.089   2.404 -0.0325  0.3334 -0.3973
18735TIP3    H177696   5.093   3.159   2.465 -0.3413  0.1137 -0.2595
18735TIP3    H277697   5.117   3.132   2.318 -2.8039  0.0146 -0.6740
18736TIP3   OH277698   5.008   3.488   6.341 -0.3193 -0.2218  0.3913
18736TIP3    H177699   5.041   3.562   6.393 -0.7944  0.8000 -0.7324
18736TIP3    H277700   4.939   3.450   6.395 -0.5260  0.5643  0.6898
18737TIP3   OH277701   1.668   3.751  17.465 -0.5283 -0.0685  0.7777
18737TIP3    H177702   1.612   3.691  17.515 -1.1673 -2.2129 -2.1841
18737TIP3    H277703   1.757   3.733  17.497 -0.9527 -0.8910  1.5492
18738TIP3   OH277704   4.660   0.406   0.640 -0.5053  0.9813 -0.1707
18738TIP3    H177705   4.627   0.372   0.557  1.3851  2.0079 -1.4303
18738TIP3    H277706   4.676   0.499   0.624  0.7488  1.0203  1.0412
18739TIP3   OH277707   1.332   4.150  16.423  0.0479  0.1174 -0.3328
18739TIP3    H177708   1.404   4.094  16.392  0.3617 -0.1280  0.7867
18739TIP3    H277709   1.283   4.172  16.344  0.1762 -1.3833 -0.8695
18740TIP3   OH277710   1.048   5.956  13.092  0.2382 -0.2846 -0.0424
18740TIP3    H177711   1.044   5.995  13.179 -0.1300 -0.0545 -0.1568
18740TIP3    H277712   1.139   5.928  13.082  0.8201  1.5757 -0.3962
18741TIP3   OH277713   2.262   0.077   0.040 -0.0587  0.0688  0.3477
18741TIP3    H177714   2.237   0.169   0.045 -0.3733  0.0104 -0.0333
18741TIP3    H277715   2.331   0.075  -0.026 -1.0764 -0.1594 -0.7442
18742TIP3   OH277716   6.311   4.773  12.419 -0.1619 -0.6255  0.7704
18742TIP3    H177717   6.324   4.813  12.333  0.6655  0.2593  1.2728
18742TIP3    H277718   6.361   4.830  12.479 -0.5383 -1.3449  1.7969
18743TIP3   OH277719   0.094   2.537   3.288 -0.2104  0.3143  0.5666
18743TIP3    H177720   0.157   2.605   3.263  1.0726 -1.4825 -1.3983
18743TIP3    H277721   0.146   2.473   3.337 -0.6543 -0.7662 -0.3312
18744TIP3   OH277722   1.071   1.840  11.165  0.0603 -0.5808 -0.8800
18744TIP3    H177723   1.018   1.857  11.243  1.8949 -0.9171  0.5014
18744TIP3    H277724   1.100   1.926  11.136  1.1763 -0.5754  0.1669
18745TIP3   OH277725   3.455   1.832  12.587 -0.5281 -0.2858 -0.3187
18745TIP3    H177726   3.408   1.873  12.660 -0.1795 -0.5374  0.0532
18745TIP3    H277727   3.424   1.878  12.509 -1.3896 -0.4424 -0.0815
18746TIP3   OH277728   3.729   4.617   3.770  0.1466  0.4491 -0.4548
18746TIP3    H177729   3.771   4.685   3.717  0.0087 -0.5231 -1.8701
18746TIP3    H277730   3.799   4.555   3.791  0.0234  0.3821 -0.2351
18747TIP3   OH277731   1.720   5.185  15.328 -0.0902  0.4226 -0.1095
18747TIP3    H177732   1.724   5.268  15.280 -1.3983  0.1683 -0.6924
18747TIP3    H277733   1.687   5.122  15.264 -1.7117  0.0281  1.0712
18748TIP3   OH277734   2.761   0.233  17.121 -0.4900 -0.0745  0.3229
18748TIP3    H177735   2.770   0.321  17.084  0.1554 -0.3722 -0.2530
18748TIP3    H277736   2.815   0.235  17.200 -0.8079  0.1658  0.5375
18749TIP3   OH277737   2.019   5.911   5.044 -0.4359  0.7446 -0.1947
18749TIP3    H177738   2.069   5.857   4.982 -0.4098  0.1098  0.3625
18749TIP3    H277739   2.028   6.000   5.011  0.0900  0.4921 -0.7587
18750TIP3   OH277740   5.632   4.957  12.867 -0.1253 -0.3506  0.3161
18750TIP3    H177741   5.569   4.903  12.821 -1.2876  0.2042  1.2199
18750TIP3    H277742   5.716   4.936  12.826 -0.8952 -1.0275 -0.9722
18751TIP3   OH277743   4.222   0.688   5.912  0.0728  0.2823 -0.8171
18751TIP3    H177744   4.317   0.687   5.908  0.0969 -0.5559 -0.3028
18751TIP3    H277745   4.198   0.780   5.901  0.7417  0.1642 -5.1726
18752TIP3   OH277746   5.117   5.634  11.664  0.4381 -0.1528 -0.8118
18752TIP3    H177747   5.167   5.708  11.697 -0.0010 -0.7353  1.2716
18752TIP3    H277748   5.160   5.557  11.700  0.2819 -0.8933 -2.1206
18753TIP3   OH277749   1.308   4.548  13.534  0.8898 -0.3038 -0.1835
18753TIP3    H177750   1.381   4.608  13.518 -0.0669  0.6676 -1.0629
18753TIP3    H277751   1.242   4.572  13.469 -1.0871  0.2994  1.9149
18754TIP3   OH277752   5.629   4.432  12.234 -0.1516 -0.0701 -0.4793
18754TIP3    H177753   5.579   4.395  12.161  0.2466  0.6967 -1.1535
18754TIP3    H277754   5.712   4.384  12.233 -0.6257 -0.9491  0.2872
18755TIP3   OH277755   2.159   1.898   3.526  0.3029  0.8318 -0.3577
18755TIP3    H177756   2.110   1.895   3.444  1.5828  2.2223 -1.2111
18755TIP3    H277757   2.208   1.980   3.523  2.5010 -0.3440  0.5382
18756TIP3   OH277758   5.386   4.100  14.804  0.5372 -0.6994  0.4747
18756TIP3    H177759   5.454   4.113  14.738  0.3759  0.5144  0.5382
18756TIP3    H277760   5.355   4.188  14.825  0.1591 -1.1166  1.7251
18757TIP3   OH277761   2.748   2.207  13.253 -0.1377 -0.2064 -0.6210
18757TIP3    H177762   2.729   2.250  13.170 -1.6098  0.3235 -0.0301
18757TIP3    H277763   2.742   2.113  13.234 -3.1072 -0.1159 -0.6107
18758TIP3   OH277764   4.783   2.926   2.263  0.1154 -0.2826 -0.3964
18758TIP3    H177765   4.689   2.937   2.266  0.0287 -1.0549  2.1243
18758TIP3    H277766   4.806   2.933   2.170 -2.4317 -0.3777 -1.0860
18759TIP3   OH277767   4.839   1.899   6.064 -0.5262 -1.1745 -0.1968
18759TIP3    H177768   4.842   1.992   6.088  0.5729 -1.5620  1.3471
18759TIP3    H277769   4.757   1.889   6.016 -0.5832  0.6257 -0.5424
18760TIP3   OH277770   5.190   6.327   2.157  0.8596 -0.0829 -0.1001
18760TIP3    H177771   5.129   6.395   2.184  1.5541  1.9649 -3.1430
18760TIP3    H277772   5.134   6.254   2.128  0.0593 -0.0660  1.3225
18761TIP3   OH277773   5.601   4.306  16.467  0.2146  0.4496  1.0051
18761TIP3    H177774   5.559   4.266  16.391  2.7525 -0.1646 -0.1652
18761TIP3    H277775   5.561   4.262  16.542 -0.2086 -1.1296 -0.0979
18762TIP3   OH277776   3.652   5.752  11.562  0.1172 -0.2742 -0.4823
18762TIP3    H177777   3.693   5.699  11.631 -1.0841 -1.4615 -0.6188
18762TIP3    H277778   3.710   5.743  11.487  0.2317 -0.9367 -0.3208
18763TIP3   OH277779   6.567   3.013   5.800 -0.2240 -0.6703 -0.2995
18763TIP3    H177780   6.622   2.981   5.871  0.2750  0.0674 -0.3420
18763TIP3    H277781   6.542   3.101   5.827 -0.9747 -0.8104 -0.5170
18764TIP3   OH277782   3.391   3.006   1.789 -0.3671  0.2229 -0.1061
18764TIP3    H177783   3.315   3.064   1.798 -1.4752 -0.9123 -1.6785
18764TIP3    H277784   3.377   2.961   1.705 -0.3458 -3.4253  1.6742
18765TIP3   OH277785   0.819   2.674  16.439 -0.3762 -0.3248 -0.1432
18765TIP3    H177786   0.803   2.676  16.345  3.1082  0.6366 -0.8815
18765TIP3    H277787   0.878   2.749  16.455 -0.7641 -0.5224  2.7854
18766TIP3   OH277788   4.383   4.168  15.938  0.2046  0.3604 -0.0372
18766TIP3    H177789   4.330   4.244  15.965 -1.2675  0.1789 -2.1719
18766TIP3    H277790   4.384   4.172  15.843  1.7869 -1.2266 -0.1400
18767TIP3   OH277791   2.488   2.711  15.978  0.3259  0.0999  0.4359
18767TIP3    H177792   2.532   2.734  15.896  0.5754  0.6601  0.7205
18767TIP3    H277793   2.402   2.753  15.971  0.1129 -0.3653  0.2034
18768TIP3   OH277794   1.428   2.070   1.926 -0.0046 -0.2802  0.0912
18768TIP3    H177795   1.444   2.113   1.842 -1.4347 -1.7764 -1.0212
18768TIP3    H277796   1.502   2.095   1.980  1.8542 -0.5695 -2.1478
18769TIP3   OH277797   6.309   3.340  15.762 -0.0517 -0.0957  0.4174
18769TIP3    H177798   6.292   3.284  15.838  1.7621  1.9561  2.4885
18769TIP3    H277799   6.234   3.399  15.758  0.4134  0.5984  1.4529
18770TIP3   OH277800   6.175   1.489  16.860  0.5335  0.1559 -0.0294
18770TIP3    H177801   6.218   1.488  16.775 -0.1961 -0.4170 -0.3993
18770TIP3    H277802   6.146   1.399  16.874 -0.1839  0.4425  0.3929
18771TIP3   OH277803   6.112   0.149   2.365 -0.0106 -0.2094 -0.4298
18771TIP3    H177804   6.129   0.110   2.451 -1.7993 -2.7404 -1.1088
18771TIP3    H277805   6.082   0.238   2.386  1.4844 -0.0579  1.3885
18772TIP3   OH277806   1.156   1.819  15.177  0.0076  0.3733 -0.4553
18772TIP3    H177807   1.101   1.740  15.172  0.6213 -0.0390 -0.7160
18772TIP3    H277808   1.095   1.891  15.157 -1.0502  0.2106  1.7813
18773TIP3   OH277809   3.445   0.332   6.043  0.2898  0.2986  0.6191
18773TIP3    H177810   3.485   0.410   6.003 -1.1831  1.3676  1.1616
18773TIP3    H277811   3.454   0.346   6.137  0.4815 -0.4521  0.7193
18774TIP3   OH277812   6.327   2.527   1.782  0.1086  0.0465  0.2021
18774TIP3    H177813   6.262   2.537   1.851 -1.5783  0.9498 -1.4262
18774TIP3    H277814   6.351   2.617   1.759  0.3896 -0.2280 -0.6151
18775TIP3   OH277815   6.302   3.995   5.085 -0.5752  0.1312  0.1702
18775TIP3    H177816   6.217   3.967   5.119  0.0665 -1.4381  0.5581
18775TIP3    H277817   6.298   3.976   4.992 -1.1648  1.4522 -0.0993
18776TIP3   OH277818   3.673   0.347   4.949 -0.2012  0.3717  0.3629
18776TIP3    H177819   3.619   0.385   4.880  0.4527 -0.2385 -0.5082
18776TIP3    H277820   3.640   0.257   4.958  0.8357 -0.1116 -0.4001
18777TIP3   OH277821   4.102   1.936   5.136 -0.4984  0.0963 -0.1715
18777TIP3    H177822   4.070   1.891   5.058 -1.9466  0.2569  0.2964
18777TIP3    H277823   4.168   1.877   5.173  0.4197  0.1508 -1.6466
18778TIP3   OH277824   2.670   0.834  12.389 -0.1462 -0.3513  0.0680
18778TIP3    H177825   2.587   0.830  12.436 -0.2823 -1.1651 -0.2324
18778TIP3    H277826   2.646   0.841  12.297  0.1201 -0.1855  0.0088
18779TIP3   OH277827   1.203   2.981   0.853  0.1972  0.0050 -0.1115
18779TIP3    H177828   1.146   2.983   0.776 -0.2170  1.6119  0.2147
18779TIP3    H277829   1.163   2.917   0.911  0.6067 -1.3659 -1.2644
18780TIP3   OH277830   6.268   5.032  17.020  0.2802  0.6149  0.3192
18780TIP3    H177831   6.233   5.115  16.988  0.6152  0.9254  0.7389
18780TIP3    H277832   6.320   4.997  16.948  2.0260  1.8925  0.8955
18781TIP3   OH277833   3.128   5.011   5.091  0.6182 -0.3280  0.0323
18781TIP3    H177834   3.158   5.067   5.019  1.0541  0.1066  0.5454
18781TIP3    H277835   3.156   4.923   5.065  0.1416 -0.2791 -0.6639
18782TIP3   OH277836   4.139   5.618   2.772  0.2327  0.1999  0.2892
18782TIP3    H177837   4.225   5.595   2.807  0.5501 -0.2505 -0.7658
18782TIP3    H277838   4.077   5.588   2.839  0.9093  1.3118  1.4680
18783TIP3   OH277839   0.153   3.783   0.938  0.2968 -0.6151  0.0722
18783TIP3    H177840   0.169   3.826   1.022 -0.6113  1.8552 -0.9465
18783TIP3    H277841   0.134   3.692   0.961 -1.2294  0.2689  2.6956
18784TIP3   OH277842   6.169   1.404   4.802  0.3764  0.2630  0.5111
18784TIP3    H177843   6.102   1.426   4.867 -0.8935 -0.1656 -0.6024
18784TIP3    H277844   6.244   1.374   4.853 -1.1902 -1.7790  1.7659
18785TIP3   OH277845   2.243   2.853  15.970 -0.1260 -0.0700 -0.3127
18785TIP3    H177846   2.197   2.924  16.015 -1.1300 -0.6465 -0.4001
18785TIP3    H277847   2.179   2.783  15.964  0.2360 -0.3110 -1.8961
18786TIP3   OH277848   2.645   4.822   4.745  0.6002 -0.0095  0.3706
18786TIP3    H177849   2.703   4.835   4.819  0.8532  0.6113  0.0736
18786TIP3    H277850   2.593   4.902   4.740  1.0187  0.2194 -0.4917
18787TIP3   OH277851   6.273   3.805   3.217 -0.0305 -0.1910  0.5429
18787TIP3    H177852   6.191   3.845   3.249 -0.7345  0.4177 -1.8297
18787TIP3    H277853   6.342   3.864   3.248 -0.7648  0.9516  0.0794
18788TIP3   OH277854   1.919   2.636   1.216  0.1160 -0.0583  0.1293
18788TIP3    H177855   1.881   2.704   1.160 -0.7507 -0.9167 -0.3591
18788TIP3    H277856   1.933   2.562   1.158  1.8586 -0.0550  0.4643
18789TIP3   OH277857   4.100   3.753   0.830 -0.0539 -0.0246  0.2670
18789TIP3    H177858   4.050   3.708   0.898  0.9914 -0.5694  0.6981
18789TIP3    H277859   4.190   3.756   0.864  0.0718  1.6937 -0.1018
18790TIP3   OH277860   6.602   0.043  11.250 -0.1457 -0.7835 -0.4173
18790TIP3    H177861   6.586  -0.021  11.320 -0.7750 -1.6397 -1.3001
18790TIP3    H277862   6.644  -0.008  11.180  0.5656  0.0727 -0.6300
18791TIP3   OH277863   0.439   2.203   2.943 -0.2932  0.3832 -0.2828
18791TIP3    H177864   0.524   2.191   2.985 -1.2690 -2.6628  1.1010
18791TIP3    H277865   0.376   2.167   3.005 -2.3977  0.6792 -2.1242
18792TIP3   OH277866   1.541   6.213   3.794 -0.0390 -0.4674  0.0281
18792TIP3    H177867   1.586   6.142   3.840  2.5483  0.8432 -0.3263
18792TIP3    H277868   1.553   6.194   3.701  0.5881  0.3499 -0.0706
18793TIP3   OH277869   3.678   1.413   1.743  0.3997  0.2335 -0.4497
18793TIP3    H177870   3.648   1.497   1.779  1.2273  0.6184 -0.6425
18793TIP3    H277871   3.753   1.389   1.797  0.5471 -0.0755 -0.7924
18794TIP3   OH277872   4.251   3.888  12.059 -0.2277  0.2059 -0.2995
18794TIP3    H177873   4.191   3.868  12.131  0.2589 -1.6546 -0.3768
18794TIP3    H277874   4.216   3.969  12.021 -3.2150 -1.2102 -0.8696
18795TIP3   OH277875   3.728   1.345   5.343  0.0846 -0.3662 -0.5362
18795TIP3    H177876   3.706   1.333   5.250 -0.0621  0.6475 -0.6428
18795TIP3    H277877   3.733   1.256   5.378  1.0181 -0.7981 -1.7181
18796TIP3   OH277878   4.013   4.886   0.804  0.1358 -0.0891  0.0916
18796TIP3    H177879   4.007   4.791   0.810  1.7873 -0.2860 -0.6417
18796TIP3    H277880   3.944   4.919   0.862  0.5086 -1.7318  1.5664
18797TIP3   OH277881   0.979   1.620   2.096 -0.1278  0.1546 -0.5722
18797TIP3    H177882   0.890   1.638   2.066 -0.5383  0.2184  0.6296
18797TIP3    H277883   0.973   1.534   2.137  0.3094  0.2623 -0.2773
18798TIP3   OH277884   2.520   0.844   6.136  0.3397  0.4900 -0.5681
18798TIP3    H177885   2.497   0.892   6.057 -1.4168 -0.7612 -0.8723
18798TIP3    H277886   2.475   0.890   6.207 -0.5703 -0.1331 -0.7306
18799TIP3   OH277887   4.719   0.889  17.214  0.3383 -0.0264 -0.2342
18799TIP3    H177888   4.756   0.802  17.198  0.6274  0.2151 -0.9139
18799TIP3    H277889   4.681   0.915  17.130  1.7186  1.1934 -0.5207
18800TIP3   OH277890   3.260   1.897   2.010 -0.2703  0.0985  0.0567
18800TIP3    H177891   3.232   1.917   1.920  0.7622  0.4466 -0.2064
18800TIP3    H277892   3.195   1.940   2.066 -0.5695  0.4160 -0.5244
18801TIP3   OH277893   2.025   5.690  17.305  0.1794 -0.1141  0.2905
18801TIP3    H177894   2.083   5.731  17.241 -0.5417 -0.1737 -0.4242
18801TIP3    H277895   1.983   5.763  17.350  0.6431 -0.0712  0.6571
18802TIP3   OH277896   4.210   3.010  16.456  0.3012  0.4081 -0.7870
18802TIP3    H177897   4.273   3.025  16.385 -0.5685  0.6443 -1.5254
18802TIP3    H277898   4.147   2.948  16.419  0.8736 -0.9601  0.4255
18803TIP3   OH277899   0.609   0.452  16.426 -0.6962 -0.4563  0.0016
18803TIP3    H177900   0.514   0.459  16.436 -0.7701 -0.0648 -0.8701
18803TIP3    H277901   0.639   0.543  16.418 -0.3420 -0.6112 -0.4858
18804TIP3   OH277902   4.586   0.090   0.407  0.7122 -0.0481 -0.2647
18804TIP3    H177903   4.567   0.153   0.476  2.9915 -0.0041  0.4123
18804TIP3    H277904   4.593   0.143   0.327 -2.1627 -0.1270 -0.6936
18805TIP3   OH277905   6.599   1.882  11.578 -0.0334  0.2475 -0.1258
18805TIP3    H177906   6.515   1.837  11.580 -0.6154  1.2960  1.4762
18805TIP3    H277907   6.612   1.906  11.486 -1.6144  0.2915 -0.3665
18806TIP3   OH277908   3.684   0.388  11.380  0.2977  0.1544  0.2079
18806TIP3    H177909   3.695   0.463  11.438  0.3492  1.2603 -1.1862
18806TIP3    H277910   3.708   0.421  11.293  0.1121 -1.4184 -0.4727
18807TIP3   OH277911   3.639   3.430   6.503 -0.1560  0.1624 -0.1741
18807TIP3    H177912   3.656   3.338   6.522 -1.8945 -0.4214 -1.2642
18807TIP3    H277913   3.709   3.456   6.443 -1.7896 -1.6282 -3.0580
18808TIP3   OH277914   6.094   1.318   3.598 -0.0121  0.0494 -0.6502
18808TIP3    H177915   6.102   1.230   3.562  0.5962  0.0880 -0.6256
18808TIP3    H277916   6.166   1.325   3.660 -0.0738  0.5542 -0.6281
18809TIP3   OH277917   1.287   4.344  13.710  0.8201  0.5609 -0.1174
18809TIP3    H177918   1.319   4.369  13.796 -1.3574  2.6341  0.1843
18809TIP3    H277919   1.306   4.420  13.654  2.7070 -0.9565 -1.6731
18810TIP3   OH277920   4.562   6.096   4.037 -0.1195  0.2373  0.0665
18810TIP3    H177921   4.600   6.013   4.068 -1.5194 -0.5772 -0.2940
18810TIP3    H277922   4.560   6.152   4.115 -1.8059 -1.0968  1.0686
18811TIP3   OH277923   5.094   3.434  15.388  0.1887 -0.0305 -0.1139
18811TIP3    H177924   5.102   3.396  15.301  1.6037  2.3938 -1.1623
18811TIP3    H277925   5.182   3.469  15.406 -0.7923  2.0549  0.9857
18812TIP3   OH277926   0.584   6.079   2.957 -0.2304 -0.3033 -0.1659
18812TIP3    H177927   0.550   6.155   2.911 -1.8889 -0.8551  0.0752
18812TIP3    H277928   0.618   6.021   2.889 -0.7442 -0.1920 -0.5168
18813TIP3   OH277929   2.563   4.014   3.138  0.1137  0.1253  0.5616
18813TIP3    H177930   2.567   3.926   3.101  0.6597  0.9599 -1.5372
18813TIP3    H277931   2.473   4.022   3.170 -0.3301 -0.7590 -0.3904
18814TIP3   OH277932   4.570   6.366  16.410 -0.3052 -0.1922 -0.0793
18814TIP3    H177933   4.501   6.417  16.452 -0.4365 -0.8471  0.4997
18814TIP3    H277934   4.529   6.283  16.386  0.3046 -0.6389  0.3910
18815TIP3   OH277935   5.619   0.030  10.876  0.2421  0.0754  0.1361
18815TIP3    H177936   5.639   0.009  10.785  2.2147 -0.2297  0.5853
18815TIP3    H277937   5.703   0.060  10.912 -0.6620  0.8518  1.6652
18816TIP3   OH277938   6.064   6.578   1.824 -0.3066  0.2280 -0.2105
18816TIP3    H177939   5.975   6.542   1.832  0.3268 -1.5437 -0.7030
18816TIP3    H277940   6.078   6.625   1.906 -0.6394 -1.9680  1.1857
18817TIP3   OH277941   6.527   6.137  14.816  0.0945 -0.1090 -0.0650
18817TIP3    H177942   6.576   6.180  14.886  0.3921 -0.4280 -0.0748
18817TIP3    H277943   6.438   6.128  14.850  0.1112  0.2026  0.0679
18818TIP3   OH277944   0.444   3.914   3.460  0.1986  0.3784 -0.1732
18818TIP3    H177945   0.413   3.955   3.379 -0.2904 -1.1400 -0.7922
18818TIP3    H277946   0.474   3.827   3.432 -1.6846 -0.8944  1.5184
18819TIP3   OH277947   3.707   0.900  16.070  0.0722  0.5648 -0.1325
18819TIP3    H177948   3.802   0.897  16.055  0.0177 -0.2933 -0.3697
18819TIP3    H277949   3.671   0.933  15.988  0.2164  1.6729  0.2359
18820TIP3   OH277950   0.679   3.683  15.530  0.3980 -0.4351  0.3179
18820TIP3    H177951   0.697   3.593  15.557  1.2386 -0.5439 -0.5535
18820TIP3    H277952   0.692   3.683  15.435  0.6087  0.6424  0.3306
18821TIP3   OH277953   3.111   5.908   4.958  0.4970  0.2598 -0.2420
18821TIP3    H177954   3.057   5.849   5.011  0.5932  0.2046 -0.2038
18821TIP3    H277955   3.149   5.969   5.021  1.9545 -0.8354  0.0039
18822TIP3   OH277956   4.668   0.466   6.696  0.2333  0.5107  0.0251
18822TIP3    H177957   4.744   0.523   6.695 -0.2370  1.1585  0.2988
18822TIP3    H277958   4.646   0.456   6.789  0.5540 -0.4633  0.0112
18823TIP3   OH277959   3.171   2.440  16.298 -0.0354  0.6885 -0.1279
18823TIP3    H177960   3.172   2.344  16.301 -0.2952  0.6671 -0.5120
18823TIP3    H277961   3.101   2.465  16.358  1.2721  0.7299  1.4248
18824TIP3   OH277962   1.445   4.088   4.034  0.5737 -0.1223 -0.0824
18824TIP3    H177963   1.376   4.148   4.059 -0.2635 -0.7157 -0.8928
18824TIP3    H277964   1.508   4.142   3.986  1.3354  0.6687  1.7209
18825TIP3   OH277965   4.568   1.953  14.873  0.0584 -0.2520  0.1410
18825TIP3    H177966   4.628   2.020  14.906  0.2120 -0.1824 -0.2719
18825TIP3    H277967   4.586   1.949  14.779 -0.1944 -0.6268  0.1072
18826TIP3   OH277968   5.942   5.858  14.794  0.2521 -0.4098  0.6767
18826TIP3    H177969   5.885   5.811  14.734 -0.1696 -2.3674  2.5147
18826TIP3    H277970   5.936   5.950  14.766  0.4194 -1.2588 -2.4753
18827TIP3   OH277971   3.789   3.224  11.894  0.0577 -0.0848  0.6024
18827TIP3    H177972   3.836   3.297  11.854 -1.1836  0.6958  0.5106
18827TIP3    H277973   3.702   3.259  11.913 -0.4828 -1.4675  0.8080
18828TIP3   OH277974   5.385   0.844  15.542 -0.6396  0.2312  0.4747
18828TIP3    H177975   5.385   0.836  15.638  2.3607 -0.5203  0.5027
18828TIP3    H277976   5.413   0.758  15.511  0.2483  1.0041 -0.9746
18829TIP3   OH277977   6.487   3.091   6.082  0.6600 -0.3595 -0.4171
18829TIP3    H177978   6.548   3.163   6.067 -1.5423  1.9991  1.0328
18829TIP3    H277979   6.516   3.050   6.163  0.5341  0.5768  0.1192
18830TIP3   OH277980   5.402   1.622  12.807  0.1334  0.3629  0.4698
18830TIP3    H177981   5.403   1.532  12.839 -0.0592 -0.0033 -0.5062
18830TIP3    H277982   5.346   1.669  12.868 -1.0154 -0.5255  0.1537
18831TIP3   OH277983   3.519   0.225  12.503 -0.5268 -0.1406 -0.1277
18831TIP3    H177984   3.427   0.202  12.495 -0.1791 -1.5716 -0.3079
18831TIP3    H277985   3.565   0.141  12.500  0.8479  0.6031 -0.9406
18832TIP3   OH277986   0.511   4.498  14.883 -0.1409 -0.3026 -0.3666
18832TIP3    H177987   0.429   4.533  14.848 -0.5104 -0.2624  0.5250
18832TIP3    H277988   0.532   4.424  14.826 -0.6939 -0.1947 -0.7108
18833TIP3   OH277989   4.072   0.637   1.535 -0.6624 -0.4793 -0.1099
18833TIP3    H177990   4.018   0.578   1.588 -1.6789  1.3785  1.0083
18833TIP3    H277991   4.044   0.725   1.560  1.2558  0.5224 -1.2477
18834TIP3   OH277992   2.951   6.343  11.974  0.1365  0.0163  0.4398
18834TIP3    H177993   2.890   6.270  11.966  0.2344  0.0363 -0.6002
18834TIP3    H277994   2.982   6.339  12.065  1.5371 -2.3727 -0.0520
18835TIP3   OH277995   6.614   3.873   4.758 -0.2575  0.2256 -0.1881
18835TIP3    H177996   6.592   3.785   4.791 -0.1765 -0.0426 -0.8406
18835TIP3    H277997   6.552   3.931   4.802 -1.7869 -0.4281 -1.3976
18836TIP3   OH277998   2.939   5.401   6.079  0.2065 -0.3500 -0.1381
18836TIP3    H177999   2.948   5.422   6.172  0.3635 -0.5106 -0.1149
18836TIP3    H278000   2.846   5.410   6.061  0.0688 -1.0025  0.2060
18837TIP3   OH278001   4.058   3.647   2.705 -0.0739  0.2621  0.5306
18837TIP3    H178002   3.985   3.665   2.764 -0.3668  0.5440  0.0896
18837TIP3    H278003   4.035   3.564   2.663  0.0071  0.1926  0.6259
18838TIP3   OH278004   5.779   1.375   1.322 -0.5470  0.0825 -0.0281
18838TIP3    H178005   5.773   1.321   1.243 -0.7661 -2.3579  1.5307
18838TIP3    H278006   5.690   1.409   1.335 -1.1349 -1.5348  0.4364
18839TIP3   OH278007   3.597   4.494  14.025  0.6690  0.4842 -0.2984
18839TIP3    H178008   3.516   4.459  14.061 -0.2516  1.8035 -0.9827
18839TIP3    H278009   3.602   4.583  14.060  1.7433  0.4829 -0.4123
18840TIP3   OH278010   1.412   2.367  14.297  0.3396 -0.0338 -0.3813
18840TIP3    H178011   1.372   2.291  14.338  1.1038  0.0976  0.6390
18840TIP3    H278012   1.339   2.417  14.260 -0.1871 -1.1329 -0.8674
18841TIP3   OH278013   1.324   5.732   3.890 -0.7235  0.2838  0.0855
18841TIP3    H178014   1.302   5.657   3.944 -1.0219 -0.2113 -0.7168
18841TIP3    H278015   1.253   5.739   3.827 -0.7636  1.3201  0.2247
18842TIP3   OH278016   2.616   5.596   1.672 -0.1669 -0.3018  0.5430
18842TIP3    H178017   2.624   5.615   1.578  3.1667 -3.2069  0.0677
18842TIP3    H278018   2.668   5.665   1.714 -1.6517  0.9995  0.3555
18843TIP3   OH278019   3.589   5.620   5.672 -0.2229  0.9023  0.4692
18843TIP3    H178020   3.685   5.620   5.676 -0.2065  0.2623  0.2382
18843TIP3    H278021   3.568   5.677   5.598 -0.0147  0.9086  0.4142
18844TIP3   OH278022   3.652   6.061  16.445 -0.0024 -0.0083 -0.3248
18844TIP3    H178023   3.643   6.023  16.532 -2.2050 -0.0531 -0.5187
18844TIP3    H278024   3.727   6.016  16.406  0.6115 -0.4471  1.2880
18845TIP3   OH278025   3.350   3.314  15.092  0.1701  0.1971  0.1283
18845TIP3    H178026   3.330   3.356  15.176  1.9508  3.0325 -0.7179
18845TIP3    H278027   3.295   3.236  15.091 -0.5344  0.4678  3.5506
18846TIP3   OH278028   6.515   2.706  12.010 -0.0820  0.0073  0.2114
18846TIP3    H178029   6.594   2.657  12.033 -0.8344 -1.8672 -0.9669
18846TIP3    H278030   6.526   2.791  12.052  0.5526 -1.6657  3.7421
18847TIP3   OH278031   2.336   0.506   3.060  0.6477 -0.4921  0.5927
18847TIP3    H178032   2.294   0.465   3.135 -0.0739 -0.5751  0.1588
18847TIP3    H278033   2.270   0.566   3.026  0.2832 -1.6969 -0.9846
18848TIP3   OH278034   5.128   6.750  17.433  0.0309 -1.0207 -0.6088
18848TIP3    H178035   5.210   6.706  17.412  0.1192 -1.6460  0.8859
18848TIP3    H278036   5.142   6.841  17.407  1.7845 -0.7761  0.9492
18849TIP3   OH278037   5.805   6.405   4.377 -0.2638 -0.4516  0.1419
18849TIP3    H178038   5.832   6.327   4.426 -0.4583 -1.1120 -0.7882
18849TIP3    H278039   5.877   6.467   4.389 -0.7526 -0.1835  2.1360
18850TIP3   OH278040   4.616   1.638  15.374  0.1396 -0.0100  0.1361
18850TIP3    H178041   4.558   1.616  15.301  3.7320  0.6127 -3.2432
18850TIP3    H278042   4.629   1.733  15.367  1.6893 -0.1576  0.6546
18851TIP3   OH278043   0.074   3.922   3.390 -0.1538 -0.5464 -0.2644
18851TIP3    H178044   0.088   3.863   3.316 -1.7893 -1.3419  0.0248
18851TIP3    H278045   0.150   3.907   3.447  0.4637 -0.8727 -1.1482
18852TIP3   OH278046   4.863   4.369  17.208  0.1171  0.2135  0.1191
18852TIP3    H178047   4.824   4.451  17.177 -0.2974 -0.4507 -1.2281
18852TIP3    H278048   4.806   4.341  17.279  0.2657  1.0950  0.5916
18853TIP3   OH278049   0.682   4.865  11.819  0.1943 -0.5449 -0.1655
18853TIP3    H178050   0.654   4.815  11.742  1.3514 -1.8916  0.2497
18853TIP3    H278051   0.728   4.940  11.783  2.0166 -1.9215 -0.8284
18854TIP3   OH278052   6.609   6.221  12.473  0.2876  0.1493  0.1679
18854TIP3    H178053   6.598   6.126  12.466  0.0833 -0.1458  3.1287
18854TIP3    H278054   6.704   6.235  12.464  0.2618 -0.2536 -0.8098
18855TIP3   OH278055   2.027   2.463   4.523  0.1934 -0.1777  0.7367
18855TIP3    H178056   1.971   2.389   4.546  0.6744 -0.9018 -0.3066
18855TIP3    H278057   2.110   2.445   4.568 -0.1107  0.4144  1.5393
18856TIP3   OH278058   4.458   3.217   2.300 -0.3645 -0.1821  0.2582
18856TIP3    H178059   4.494   3.144   2.351  1.5970 -0.3922 -1.3131
18856TIP3    H278060   4.478   3.295   2.352  1.0546 -0.4379  0.1195
18857TIP3   OH278061   0.275   0.837  15.653  0.9753  0.0501  0.6986
18857TIP3    H178062   0.258   0.925  15.685  0.7478  0.1438  0.3212
18857TIP3    H278063   0.332   0.850  15.577  0.2731 -0.0730  0.1422
18858TIP3   OH278064   0.986   5.936  16.973  0.3903  0.5601 -0.1674
18858TIP3    H178065   0.955   6.024  16.954  1.5863  1.0554  0.0314
18858TIP3    H278066   1.030   5.908  16.893  1.6406  0.9108  0.3719
18859TIP3   OH278067   5.721   1.500   0.526  0.3521  0.1142  0.1914
18859TIP3    H178068   5.635   1.460   0.520 -0.0766  1.1705 -1.1889
18859TIP3    H278069   5.777   1.444   0.473  0.5459 -0.5958  1.1225
18860TIP3   OH278070   1.904   3.618   2.070  0.3023  0.0320 -0.0380
18860TIP3    H178071   1.816   3.591   2.097  0.5413  0.1747  0.9022
18860TIP3    H278072   1.889   3.676   1.995 -0.4553  0.7123  0.6267
18861TIP3   OH278073   5.084   4.064  12.989  0.6062  0.1683 -0.0256
18861TIP3    H178074   5.023   4.008  13.037 -0.6750 -0.1179 -1.8734
18861TIP3    H278075   5.061   4.153  13.016  1.6071 -0.0703  1.7442
18862TIP3   OH278076   3.842   5.575   3.525 -0.4257 -0.1595 -0.4724
18862TIP3    H178077   3.877   5.651   3.478 -2.5696  1.9013  1.0956
18862TIP3    H278078   3.916   5.513   3.527  1.5081  1.9513 -1.5608
18863TIP3   OH278079   4.200   0.491   0.609 -0.4723 -0.7824 -0.5075
18863TIP3    H178080   4.131   0.539   0.654 -1.7145 -2.6830 -0.2722
18863TIP3    H278081   4.242   0.439   0.677  1.9033  1.0119 -0.4679
18864TIP3   OH278082   1.442   2.222   0.413  0.1668 -0.3229  0.1259
18864TIP3    H178083   1.384   2.269   0.353  1.1804 -0.0398 -0.6651
18864TIP3    H278084   1.425   2.260   0.499 -0.9999 -0.4381 -0.0426
18865TIP3   OH278085   4.065   5.781   0.209  0.1334  0.3237 -0.0175
18865TIP3    H178086   3.972   5.759   0.201  0.2687 -0.6569  0.9099
18865TIP3    H278087   4.106   5.738   0.134 -0.3276  1.9346 -1.2427
18866TIP3   OH278088   0.609   3.043   5.827 -0.5990 -0.3656  0.2080
18866TIP3    H178089   0.547   3.114   5.844 -0.4511 -0.0083 -0.7042
18866TIP3    H278090   0.686   3.066   5.879 -0.5152  0.2034 -0.1558
18867TIP3   OH278091   3.146   3.131   1.845  1.1427  0.2614  0.3480
18867TIP3    H178092   3.094   3.062   1.802  2.9008 -1.2329  0.5172
18867TIP3    H278093   3.091   3.209   1.838  0.1498 -0.5437 -2.1372
18868TIP3   OH278094   2.121   2.892  12.920  0.3467  0.2215 -0.2214
18868TIP3    H178095   2.136   2.831  12.847  2.9960  0.4352  0.0342
18868TIP3    H278096   2.086   2.971  12.879  1.5611  0.2477 -1.2528
18869TIP3   OH278097   4.547   1.760   3.684  1.1597 -0.6181  0.8091
18869TIP3    H178098   4.641   1.747   3.695  1.6712  0.4376 -1.6461
18869TIP3    H278099   4.522   1.698   3.615  0.4625  0.3646  0.1468
18870TIP3   OH278100   0.165   5.987   0.467 -0.4386 -0.4131 -1.1754
18870TIP3    H178101   0.170   6.057   0.402  0.1292  0.6676 -0.0118
18870TIP3    H278102   0.084   5.940   0.445 -0.9784  0.7745 -1.8199
18871TIP3   OH278103   0.669   2.866  14.872  0.5714  0.5520 -0.0318
18871TIP3    H178104   0.610   2.941  14.871  0.1884  0.2523 -0.7130
18871TIP3    H278105   0.682   2.844  14.779  0.1978 -0.5802  0.1642
18872TIP3   OH278106   2.102   2.289  16.044 -0.4197  0.5600 -0.0667
18872TIP3    H178107   2.093   2.380  16.073  1.1690  0.7045  0.0637
18872TIP3    H278108   2.164   2.250  16.107 -1.6511 -0.8448  0.3494
18873TIP3   OH278109   4.889   3.320   4.475 -0.4751 -0.5555  0.2680
18873TIP3    H178110   4.822   3.266   4.435  0.2258 -1.6115  0.4758
18873TIP3    H278111   4.957   3.328   4.408  0.1856 -1.3667  0.8322
18874TIP3   OH278112   4.384   4.267   0.780  0.0497 -0.1631  0.3115
18874TIP3    H178113   4.348   4.291   0.865  0.7635  0.8607  0.3543
18874TIP3    H278114   4.450   4.334   0.763 -1.4467  0.8501 -1.9707
18875TIP3   OH278115   6.705   4.954  11.441 -0.5077  0.0661  0.1589
18875TIP3    H178116   6.769   4.885  11.428  0.7943  1.2437  0.0561
18875TIP3    H278117   6.706   5.005  11.360 -0.2155  1.1679  0.8315
18876TIP3   OH278118   0.985   2.799  15.530  0.6053 -0.2225  0.5951
18876TIP3    H178119   0.999   2.722  15.584  0.5231  1.0991  2.6181
18876TIP3    H278120   0.890   2.812  15.531  0.7274  0.7396  1.5652
18877TIP3   OH278121   5.553   3.532  13.330 -0.0977  0.1198 -0.0552
18877TIP3    H178122   5.478   3.499  13.380  0.3008  0.8648  1.0882
18877TIP3    H278123   5.618   3.554  13.397  0.5191  1.0180 -0.9222
18878TIP3   OH278124   1.999   4.465   1.406 -0.2348 -0.0437 -0.2365
18878TIP3    H178125   1.960   4.530   1.347 -0.2501  1.0272  0.9041
18878TIP3    H278126   1.969   4.381   1.373 -1.2504  0.6002 -1.0097
18879TIP3   OH278127   2.774   1.877   2.500 -0.4510  0.7108 -0.2417
18879TIP3    H178128   2.769   1.901   2.593 -0.4008 -0.1319 -0.0096
18879TIP3    H278129   2.683   1.880   2.470 -0.6212 -0.1251  0.1418
18880TIP3   OH278130   3.435   3.816   0.527 -0.4963 -0.3871 -0.9074
18880TIP3    H178131   3.478   3.842   0.445  0.0115 -0.1721 -0.5782
18880TIP3    H278132   3.490   3.854   0.596  0.3304 -2.4028 -0.3862
18881TIP3   OH278133   3.053   1.784  15.377 -0.6276 -0.3955  0.2506
18881TIP3    H178134   3.028   1.725  15.306 -0.5886 -0.5482  0.3636
18881TIP3    H278135   3.138   1.818  15.352 -0.4183 -0.7785  0.4269
18882TIP3   OH278136   5.569   5.179  13.879 -0.2347  0.2524  0.2423
18882TIP3    H178137   5.633   5.181  13.950 -0.8908  2.4250  0.8480
18882TIP3    H278138   5.591   5.100  13.829 -0.0449 -1.6226  3.0776
18883TIP3   OH278139   6.293   0.535   2.646  0.4494  0.7449  0.1038
18883TIP3    H178140   6.348   0.456   2.647  0.4754  0.7628  0.6854
18883TIP3    H278141   6.335   0.594   2.709 -0.3523  0.6793  0.7164
18884TIP3   OH278142   1.299   4.911  17.402  0.0254  0.6468  0.5925
18884TIP3    H178143   1.247   4.831  17.392 -1.3233  1.4173  1.1224
18884TIP3    H278144   1.365   4.889  17.467  0.6322 -0.4669 -0.3637
18885TIP3   OH278145   1.869   6.103  16.880  0.4621  0.8755 -0.0846
18885TIP3    H178146   1.876   6.028  16.820  2.4650  0.7123  0.2878
18885TIP3    H278147   1.783   6.140  16.862 -1.1823 -2.2394  0.5685
18886TIP3   OH278148   5.942   0.358  12.294  0.5049 -0.0110  0.3964
18886TIP3    H178149   5.955   0.452  12.285  2.0799 -0.1409  1.0989
18886TIP3    H278150   5.848   0.346  12.280 -0.0038  1.8618  1.8337
18887TIP3   OH278151   3.400   3.960  12.294 -0.0812 -0.4416 -0.2907
18887TIP3    H178152   3.315   3.996  12.320 -0.4121  0.2370 -2.1361
18887TIP3    H278153   3.444   4.033  12.250  2.0268 -0.3993  1.7213
18888TIP3   OH278154   3.068   2.628  12.006  0.4500  0.0753 -0.0424
18888TIP3    H178155   3.102   2.701  11.954 -1.0619  0.0469 -1.1454
18888TIP3    H278156   3.146   2.578  12.031  1.3833  1.2477 -0.5217
18889TIP3   OH278157   5.075   2.964  11.403 -0.0943  0.4560  0.5145
18889TIP3    H178158   5.025   2.997  11.478 -0.4657  1.4641 -0.1680
18889TIP3    H278159   5.012   2.961  11.332  0.0602 -1.2248  0.3894
18890TIP3   OH278160   1.454   3.415   0.335  0.3845 -0.5059 -0.0115
18890TIP3    H178161   1.396   3.381   0.268  0.1335 -1.4728  0.6789
18890TIP3    H278162   1.499   3.489   0.293 -1.2602  0.2106 -0.5787
18891TIP3   OH278163   1.915   4.254   2.431 -0.3298 -0.1855  0.0765
18891TIP3    H178164   1.944   4.334   2.387 -0.1962 -0.5237 -0.4673
18891TIP3    H278165   1.835   4.229   2.385 -1.5428  0.7543  1.5832
18892TIP3   OH278166   6.572   2.067   3.848  0.2382  0.1351 -0.1991
18892TIP3    H178167   6.539   2.133   3.909 -1.3010  0.9361 -1.8032
18892TIP3    H278168   6.662   2.050   3.877 -1.0200 -1.1574  3.5864
18893TIP3   OH278169   1.171   3.785   1.259  0.6454 -0.8671  0.6536
18893TIP3    H178170   1.099   3.848   1.258  0.3520 -1.1090  2.4693
18893TIP3    H278171   1.149   3.722   1.191 -0.2798 -0.3142  0.4239
18894TIP3   OH278172   0.244   4.873   5.398  0.3131 -0.2993  0.2509
18894TIP3    H178173   0.230   4.872   5.493  1.9557  0.7629  0.5370
18894TIP3    H278174   0.234   4.964   5.373  1.6271 -0.2776 -0.2876
18895TIP3   OH278175   0.532   0.984  12.787  0.3842  0.5931  0.5335
18895TIP3    H178176   0.469   1.038  12.834 -1.1316 -0.2499 -0.4190
18895TIP3    H278177   0.537   0.903  12.838 -1.8585 -0.6390 -1.0076
18896TIP3   OH278178   6.205   6.036  17.109 -0.5688 -0.2533  0.1837
18896TIP3    H178179   6.171   6.114  17.067  0.1796  2.1791  3.6394
18896TIP3    H278180   6.295   6.028  17.076 -0.4554  0.7071  0.2517
18897TIP3   OH278181   4.507   6.692  17.060  0.5203  0.1039  0.3058
18897TIP3    H178182   4.528   6.601  17.037  1.8069  0.4480  0.0215
18897TIP3    H278183   4.416   6.689  17.090 -0.4212 -0.8190 -2.3751
18898TIP3   OH278184   2.107   6.475  11.143  0.1292 -0.1910 -0.0671
18898TIP3    H178185   2.131   6.503  11.055 -0.3701  0.4949  0.0000
18898TIP3    H278186   2.011   6.478  11.143  0.1344  0.3610  0.6584
18899TIP3   OH278187   6.493   5.326   3.963  0.2254 -0.2949  0.9585
18899TIP3    H178188   6.513   5.309   4.055  1.0152  0.3315  0.9160
18899TIP3    H278189   6.509   5.420   3.952  0.9085 -0.5021  0.0061
18900TIP3   OH278190   0.414   3.645   4.176 -0.5161 -0.2501  0.3921
18900TIP3    H178191   0.364   3.626   4.255  0.4430 -0.6788  0.9105
18900TIP3    H278192   0.419   3.740   4.173 -1.9366 -0.1717 -0.0454
18901TIP3   OH278193   0.970   5.988  11.865 -0.5512  0.3399 -0.6466
18901TIP3    H178194   0.903   5.940  11.914 -0.1990  0.7655  0.2709
18901TIP3    H278195   0.922   6.032  11.795 -1.2163  0.5688 -0.0553
18902TIP3   OH278196   2.824   2.885   5.784 -0.4579 -0.2251  0.3321
18902TIP3    H178197   2.761   2.826   5.745  0.6330 -1.4434  0.3354
18902TIP3    H278198   2.902   2.876   5.730 -0.1577  0.9585  0.5412
18903TIP3   OH278199   2.549   5.590  14.491  0.4905 -0.1277  0.2576
18903TIP3    H178200   2.569   5.500  14.467 -0.3348 -0.2413 -0.0142
18903TIP3    H278201   2.552   5.590  14.587 -0.3698 -0.6486  0.2909
18904TIP3   OH278202   6.384   1.248   3.720 -0.0398 -0.7295 -0.3147
18904TIP3    H178203   6.462   1.231   3.773 -2.4269 -1.3123  3.3786
18904TIP3    H278204   6.381   1.343   3.711  0.2816 -0.5807  0.9616
18905TIP3   OH278205   1.822   0.685  10.436 -0.5686 -0.3588 -0.2082
18905TIP3    H178206   1.850   0.605  10.480 -0.7504 -0.8988 -1.0552
18905TIP3    H278207   1.894   0.708  10.378 -0.0712  0.6934  0.7825
18906TIP3   OH278208   5.385   5.214  12.133 -0.2763  0.4758  0.3286
18906TIP3    H178209   5.372   5.306  12.110 -1.6076 -0.0980 -1.4582
18906TIP3    H278210   5.438   5.179  12.061 -0.0125 -0.2311  0.8550
18907TIP3   OH278211   3.579   1.339   2.778  0.2813 -0.4203  0.6534
18907TIP3    H178212   3.587   1.280   2.702  0.3817 -0.5712  0.7798
18907TIP3    H278213   3.643   1.408   2.761 -0.8882  0.4656 -0.2272
18908TIP3   OH278214   1.189   4.165  16.177 -0.4953  0.1763  0.3725
18908TIP3    H178215   1.199   4.072  16.199  1.5720  0.3237  0.2332
18908TIP3    H278216   1.108   4.169  16.127 -1.0151 -1.4328  1.0132
18909TIP3   OH278217   6.180   1.017   3.192  0.0587 -0.4049  0.6667
18909TIP3    H178218   6.158   0.959   3.118  0.9114  0.9918 -0.7372
18909TIP3    H278219   6.100   1.067   3.207  0.0229 -0.3757  0.3899
18910TIP3   OH278220   0.792   2.069   0.917 -0.3614 -0.1408 -0.1434
18910TIP3    H178221   0.812   2.045   1.007  1.9876  1.4552 -0.1213
18910TIP3    H278222   0.796   2.165   0.917 -1.9881 -0.0291 -1.6346
18911TIP3   OH278223   0.107   5.992  16.245  0.3491  0.7407 -0.1008
18911TIP3    H178224   0.171   6.062  16.239  1.3602 -0.2694 -1.6107
18911TIP3    H278225   0.101   5.956  16.156 -2.1136  0.6077  0.0365
18912TIP3   OH278226   4.267   2.558   0.629 -0.1738 -0.5896 -0.2452
18912TIP3    H178227   4.270   2.484   0.569 -3.3754 -0.1974 -1.0969
18912TIP3    H278228   4.174   2.579   0.636  0.0795  0.0077  4.1849
18913TIP3   OH278229   5.512   1.404   5.302  0.2058 -0.2826  0.5412
18913TIP3    H178230   5.473   1.466   5.240  1.1383 -0.3640 -0.1514
18913TIP3    H278231   5.542   1.331   5.248 -0.1381 -0.9723  1.2586
18914TIP3   OH278232   5.003   2.497   5.724  0.1125 -0.4071  0.6189
18914TIP3    H178233   4.985   2.420   5.778  0.3077  0.4634  1.9940
18914TIP3    H278234   4.965   2.570   5.773  1.6226  0.6204  0.3444
18915TIP3   OH278235   0.057   1.015   4.805 -0.0223  0.5360  0.0376
18915TIP3    H178236  -0.006   1.003   4.735 -0.4281 -0.1492  0.5138
18915TIP3    H278237   0.138   1.041   4.760 -0.2027 -0.1530 -0.6970
18916TIP3   OH278238   5.263   0.882   0.896 -0.4911 -0.4590 -0.5353
18916TIP3    H178239   5.255   0.856   0.988  0.3600  0.8859 -0.0432
18916TIP3    H278240   5.181   0.928   0.878 -0.3276 -0.0256 -0.1931
18917TIP3   OH278241   3.509   0.991  16.585  0.1176  0.3090 -0.2447
18917TIP3    H178242   3.541   0.912  16.629 -0.5069 -1.1067 -2.2228
18917TIP3    H278243   3.578   1.012  16.522  0.6293  1.8504  0.7518
18918TIP3   OH278244   1.500   5.601   1.571  0.2557 -0.0592  0.6896
18918TIP3    H178245   1.458   5.553   1.500  0.0094 -0.5315  1.1435
18918TIP3    H278246   1.465   5.690   1.564  0.9293  0.1401 -0.3269
18919TIP3   OH278247   3.815   1.565   3.661  0.0624  0.1760 -0.1174
18919TIP3    H178248   3.808   1.495   3.726  0.3918 -0.1546 -0.4324
18919TIP3    H278249   3.787   1.644   3.708  0.4205 -0.0325  0.4653
18920TIP3   OH278250   5.552   1.965   5.508 -0.1840  0.5132 -0.5025
18920TIP3    H178251   5.524   1.884   5.551  2.1172  0.8717  1.9035
18920TIP3    H278252   5.471   2.017   5.499 -1.4043 -1.3150 -0.5542
18921TIP3   OH278253   4.939   4.765   5.921 -0.1235 -0.4053 -0.1652
18921TIP3    H178254   4.920   4.810   5.839 -1.5728 -3.1755 -1.4721
18921TIP3    H278255   5.017   4.714   5.903  0.3304 -0.0230  0.6457
18922TIP3   OH278256   5.042   5.125   4.704 -0.3369  0.1567 -0.2721
18922TIP3    H178257   5.034   5.041   4.749  0.7710  0.2232  0.0820
18922TIP3    H278258   4.967   5.128   4.644  0.7046 -1.9611 -1.7772
18923TIP3   OH278259   1.403   3.227  14.950 -0.1567  0.1501  0.1638
18923TIP3    H178260   1.363   3.204  15.034 -2.0512  0.2647 -0.6788
18923TIP3    H278261   1.342   3.287  14.908  0.3172 -0.5560 -1.6716
18924TIP3   OH278262   4.075   1.636   0.948 -1.1188  0.5949  0.4018
18924TIP3    H178263   4.100   1.573   0.881  1.6609  2.6037 -0.6347
18924TIP3    H278264   4.068   1.719   0.902  0.2439  1.9253  2.4226
18925TIP3   OH278265   3.905   1.218  11.324  0.3055  0.1992 -0.0353
18925TIP3    H178266   3.866   1.294  11.369  1.1692  1.1879 -0.8892
18925TIP3    H278267   3.940   1.255  11.243  1.2440 -1.0295 -0.2095
18926TIP3   OH278268   1.726   3.831  13.305  0.3155  0.2352 -1.0693
18926TIP3    H178269   1.745   3.925  13.301  1.7776 -0.0577 -1.7797
18926TIP3    H278270   1.758   3.796  13.222  0.9080 -1.0587 -0.3390
18927TIP3   OH278271   5.031   6.135   0.287  0.2353  0.2008  0.3230
18927TIP3    H178272   5.081   6.155   0.208  3.5734 -0.2480  2.1308
18927TIP3    H278273   5.016   6.220   0.328  1.4275  0.2008  0.7889
18928TIP3   OH278274   3.564   2.510  12.192 -0.0765 -0.5989  0.0247
18928TIP3    H178275   3.494   2.564  12.229  0.6070 -0.8093  1.7099
18928TIP3    H278276   3.645   2.546  12.228  0.6879 -0.5596 -1.6394
18929TIP3   OH278277   4.777   2.177  11.647  0.8773 -0.3730  0.1214
18929TIP3    H178278   4.728   2.224  11.714  1.9198 -0.3424  0.8877
18929TIP3    H278279   4.790   2.090  11.684  2.1256 -0.1241  0.3277
18930TIP3   OH278280   3.318   4.735   4.272  0.0777 -0.4575 -0.1608
18930TIP3    H178281   3.262   4.691   4.208  1.2308 -1.0983 -0.7629
18930TIP3    H278282   3.378   4.667   4.303  0.7630  0.2829  0.1943
18931TIP3   OH278283   1.281   3.470  13.897 -0.7678  0.3251  0.0946
18931TIP3    H178284   1.351   3.461  13.962 -1.6094  0.8378  1.0834
18931TIP3    H278285   1.200   3.471  13.948 -1.5942 -1.2557 -1.0985
18932TIP3   OH278286   5.446   0.088   5.832 -0.3362 -0.0137 -0.1781
18932TIP3    H178287   5.500   0.160   5.866 -0.5350 -0.0659  0.2507
18932TIP3    H278288   5.444   0.024   5.902  0.0916 -0.5830 -0.6758
18933TIP3   OH278289   2.680   4.638   6.152  0.2156  0.1008 -0.1653
18933TIP3    H178290   2.758   4.685   6.122 -0.9142  0.9665 -1.9400
18933TIP3    H278291   2.621   4.641   6.077 -2.0592  0.6676  1.5524
18934TIP3   OH278292   3.207   4.771  14.128 -0.4095  0.1877 -0.0803
18934TIP3    H178293   3.147   4.697  14.114 -1.2311  0.9693 -0.8070
18934TIP3    H278294   3.170   4.817  14.203 -0.5047  0.4442 -0.2826
18935TIP3   OH278295   0.947   6.164   1.156  0.3330 -0.5071  0.2994
18935TIP3    H178296   0.868   6.131   1.197  1.0138 -2.9409 -0.1728
18935TIP3    H278297   0.986   6.088   1.114  1.7887  1.0561 -1.3761
18936TIP3   OH278298   6.642   1.614  12.985  0.1048  0.2583 -0.2886
18936TIP3    H178299   6.592   1.548  13.034  1.0872 -2.5336 -2.7804
18936TIP3    H278300   6.575   1.669  12.944 -0.7539  0.3705  1.1686
18937TIP3   OH278301   4.435   6.705   3.248 -0.1306 -0.3377 -0.0533
18937TIP3    H178302   4.445   6.711   3.153 -0.8543  0.8197 -0.0686
18937TIP3    H278303   4.407   6.615   3.263 -0.0894 -0.5103 -0.9486
18938TIP3   OH278304   2.212   4.892   6.275  0.1096  0.2193 -0.0403
18938TIP3    H178305   2.179   4.859   6.359 -1.0149 -0.2812 -0.6597
18938TIP3    H278306   2.267   4.821   6.241  0.5949  0.4370  0.2834
18939TIP3   OH278307   6.039   4.381  13.128  0.2483 -0.2751  0.4910
18939TIP3    H178308   5.967   4.341  13.178  0.6532  0.7531  1.9512
18939TIP3    H278309   6.061   4.315  13.062 -2.2214 -0.4921 -0.2113
18940TIP3   OH278310   5.717   4.163  15.405  0.1635 -0.4257 -0.4295
18940TIP3    H178311   5.782   4.223  15.368  0.1766 -0.1618  0.0043
18940TIP3    H278312   5.633   4.194  15.372  0.2676 -0.9126 -1.1875
18941TIP3   OH278313   3.283   3.484   1.596  0.3615 -0.3222 -0.1427
18941TIP3    H178314   3.234   3.520   1.523  1.5711  2.3570  0.2526
18941TIP3    H278315   3.217   3.465   1.663 -0.2937  2.9331  0.2766
18942TIP3   OH278316   5.276   3.732  17.477  0.4740 -0.6480 -0.1769
18942TIP3    H178317   5.360   3.768  17.449  0.1811  1.7679  1.7068
18942TIP3    H278318   5.214   3.805  17.469 -0.4131 -0.9531  2.7916
18943TIP3   OH278319   5.347   4.283   5.320  0.2291 -0.0717  0.7721
18943TIP3    H178320   5.343   4.260   5.227  1.2192  1.3613  0.3442
18943TIP3    H278321   5.378   4.203   5.363  2.2969 -0.0257 -0.4910
18944TIP3   OH278322   6.243   6.067  16.356  0.4478  0.2802 -0.0794
18944TIP3    H178323   6.274   5.989  16.309  1.4424  0.0912  0.8614
18944TIP3    H278324   6.229   6.132  16.287 -2.6511 -1.3509 -1.1945
18945TIP3   OH278325   5.585   1.477  11.409  0.0664  0.2235 -0.1411
18945TIP3    H178326   5.546   1.561  11.433 -0.8746 -0.0354 -0.7262
18945TIP3    H278327   5.511   1.424  11.379  0.6933 -0.7150 -0.0632
18946TIP3   OH278328   1.690   3.136  15.190 -0.5261 -0.1570 -0.1551
18946TIP3    H178329   1.639   3.204  15.235 -0.7470 -0.3290 -0.1405
18946TIP3    H278330   1.691   3.164  15.099  0.3627  0.4642  0.0252
18947TIP3   OH278331   1.140   3.546  16.365  0.5865  0.4392 -0.4807
18947TIP3    H178332   1.188   3.614  16.412 -1.4582  0.4849  1.7484
18947TIP3    H278333   1.185   3.465  16.387  1.0252  0.7185 -0.3439
18948TIP3   OH278334   3.826   0.495  12.288 -0.3071 -0.2771  0.3672
18948TIP3    H178335   3.747   0.440  12.293 -0.1017 -0.6125 -0.0801
18948TIP3    H278336   3.870   0.466  12.208  0.8028 -0.8146  1.1495
18949TIP3   OH278337   6.313   6.475  14.133 -0.1527 -0.5171  0.8741
18949TIP3    H178338   6.383   6.444  14.191  0.0255 -1.2034  0.3094
18949TIP3    H278339   6.233   6.460  14.182 -0.2441 -3.5711 -0.0042
18950TIP3   OH278340   4.473   4.683   3.547 -0.4640  0.4071  0.2177
18950TIP3    H178341   4.450   4.649   3.634  0.6614 -1.3609 -0.1327
18950TIP3    H278342   4.554   4.732   3.561  0.0766 -0.4324  0.0708
18951TIP3   OH278343   0.788   1.136  14.073  0.1739  0.4655  0.4115
18951TIP3    H178344   0.845   1.212  14.074  0.6480  0.1116  1.0621
18951TIP3    H278345   0.848   1.061  14.070 -0.2680  0.1087  0.3960
18952TIP3   OH278346   5.450   1.744  17.043  0.6542  0.1328 -0.5928
18952TIP3    H178347   5.453   1.824  16.991  1.8808  0.0397 -0.7047
18952TIP3    H278348   5.518   1.688  17.004  1.5660  0.0419  1.0298
18953TIP3   OH278349   2.576   2.589  14.127  0.0621 -0.1724  0.1062
18953TIP3    H178350   2.666   2.557  14.123  0.2628  0.0414  1.9513
18953TIP3    H278351   2.566   2.622  14.216 -1.3983  1.1567 -0.4851
18954TIP3   OH278352   3.664   0.442  16.004  0.0275 -0.1962  0.2326
18954TIP3    H178353   3.646   0.352  16.030  0.3145 -0.0972  0.7783
18954TIP3    H278354   3.745   0.437  15.953  1.0630 -0.0326  1.7773
18955TIP3   OH278355   4.967   2.064  16.499  0.2822 -0.0012  0.0763
18955TIP3    H178356   4.961   1.981  16.452 -0.1533 -0.4785  0.9416
18955TIP3    H278357   4.947   2.131  16.434  0.7399 -0.5606 -0.6575
18956TIP3   OH278358   5.121   4.644  11.925 -0.0386 -0.0957 -0.1659
18956TIP3    H178359   5.099   4.617  11.836  0.9547  0.0033 -0.4486
18956TIP3    H278360   5.057   4.598  11.980 -0.3735 -0.5133 -0.8834
18957TIP3   OH278361   5.261   2.446   0.237 -0.7908 -0.5992 -0.8839
18957TIP3    H178362   5.281   2.412   0.150  0.1264 -0.9350 -0.5502
18957TIP3    H278363   5.173   2.412   0.255 -1.1234 -0.2477 -1.8079
18958TIP3   OH278364   0.197   3.537   6.487  0.7869 -0.3622 -0.0645
18958TIP3    H178365   0.165   3.625   6.507 -0.2431 -0.6540 -0.3542
18958TIP3    H278366   0.122   3.480   6.505  1.4654 -1.1894  0.1820
18959TIP3   OH278367   4.823   3.535  13.523 -0.3647 -0.2397  0.6519
18959TIP3    H178368   4.823   3.623  13.561  2.0195 -0.7314  2.0177
18959TIP3    H278369   4.799   3.477  13.596  2.0649 -1.0076  0.9250
18960TIP3   OH278370   2.880   3.538   6.112 -0.1242 -0.7210  0.2285
18960TIP3    H178371   2.885   3.504   6.023  0.6455  0.6958 -0.3118
18960TIP3    H278372   2.971   3.556   6.136 -0.4676  0.9190  0.4596
18961TIP3   OH278373   1.366   6.151   5.560 -0.4028 -0.0891 -0.0076
18961TIP3    H178374   1.390   6.170   5.651  0.2704  0.3159 -0.2658
18961TIP3    H278375   1.288   6.204   5.545  0.0018  0.5290  0.0605
18962TIP3   OH278376   6.257   0.549   3.445  0.2532 -0.6761  0.1567
18962TIP3    H178377   6.285   0.639   3.432  1.7920 -1.2554 -0.8948
18962TIP3    H278378   6.335   0.496   3.426 -0.2381 -2.1796  2.0189
18963TIP3   OH278379   4.679   3.533  17.072 -0.8072  0.1411  0.2159
18963TIP3    H178380   4.645   3.447  17.049  1.3327 -0.9748  0.9365
18963TIP3    H278381   4.696   3.527  17.167  2.7109 -0.0130 -0.2905
18964TIP3   OH278382   2.135   0.613  17.333  0.1680 -0.8530 -0.2440
18964TIP3    H178383   2.063   0.550  17.339 -0.2747 -0.4440 -1.0635
18964TIP3    H278384   2.135   0.658  17.418 -2.3639  1.0462 -1.1188
18965TIP3   OH278385   4.888   1.139  13.394 -0.3109 -0.1732 -0.2787
18965TIP3    H178386   4.813   1.180  13.352 -0.1988  0.0925 -0.2197
18965TIP3    H278387   4.958   1.204  13.387  0.1229 -0.7002 -0.9868
18966TIP3   OH278388   1.288   5.583  16.888  0.3594 -0.4803  0.0333
18966TIP3    H178389   1.313   5.490  16.893  1.3012 -0.2201  0.3119
18966TIP3    H278390   1.293   5.614  16.978 -1.8285 -0.6062  0.2520
18967TIP3   OH278391   2.148   2.977   3.328  0.3350  0.2050 -0.8912
18967TIP3    H178392   2.228   2.943   3.369 -0.1047  0.4308  0.1711
18967TIP3    H278393   2.130   3.058   3.374 -1.6302 -0.8386  0.2886
18968TIP3   OH278394   5.092   3.033   2.081  0.1652 -0.6800 -0.0904
18968TIP3    H178395   5.147   2.955   2.082  2.1850  0.6610 -0.4597
18968TIP3    H278396   5.039   3.024   2.001  2.9612 -0.0542 -2.1448
18969TIP3   OH278397   1.417   2.943   5.604  0.3135 -0.3833 -0.0145
18969TIP3    H178398   1.412   3.006   5.676  1.3821  0.4418 -0.6345
18969TIP3    H278399   1.495   2.890   5.624  0.5416 -0.2317 -0.4868
18970TIP3   OH278400   1.513   3.325   1.339  0.6837  0.1911  0.1215
18970TIP3    H178401   1.480   3.374   1.414 -0.5776 -1.5216  0.7585
18970TIP3    H278402   1.596   3.288   1.369 -0.1017 -0.9785  0.9245
18971TIP3   OH278403   1.438   5.524   4.552  0.2034  0.5293 -0.0759
18971TIP3    H178404   1.529   5.532   4.523  0.0785 -2.4782 -1.6407
18971TIP3    H278405   1.442   5.543   4.646  2.1116  2.1787 -0.4130
18972TIP3   OH278406   3.725   2.663  13.633 -0.0540  0.1121  0.0659
18972TIP3    H178407   3.797   2.692  13.576  0.2360 -0.6412  0.0253
18972TIP3    H278408   3.732   2.567  13.632  1.1964  0.0728  2.9094
18973TIP3   OH278409   2.038   6.212  12.237  0.4662 -0.1692  0.6727
18973TIP3    H178410   2.048   6.307  12.237  1.8657 -0.2246  2.9528
18973TIP3    H278411   1.962   6.196  12.293 -0.9753 -0.3958 -1.2499
18974TIP3   OH278412   5.399   3.836   1.573  0.4971  0.1375 -0.0527
18974TIP3    H178413   5.416   3.868   1.484  1.7948 -0.2088  0.0440
18974TIP3    H278414   5.376   3.744   1.561 -0.9384  0.4902 -0.1441
18975TIP3   OH278415   2.364   4.153  17.378  0.3461 -0.0868  0.6745
18975TIP3    H178416   2.350   4.093  17.451  0.0165 -0.5443  0.2446
18975TIP3    H278417   2.457   4.175  17.383  1.2781 -3.0037 -0.8831
18976TIP3   OH278418   5.882   4.669  15.888 -0.0289  0.4965  0.1556
18976TIP3    H178419   5.845   4.750  15.922  0.7758  1.9466 -2.1663
18976TIP3    H278420   5.876   4.678  15.793  2.4116 -1.0155 -0.2415
18977TIP3   OH278421   0.469   4.278  11.920  0.2497 -0.3126 -0.0606
18977TIP3    H178422   0.443   4.193  11.955  1.3411  0.0905  1.9331
18977TIP3    H278423   0.563   4.284  11.940  0.2450  1.2530 -0.3430
18978TIP3   OH278424   5.768   2.318   3.838  0.2625  0.0691  0.1558
18978TIP3    H178425   5.695   2.376   3.817 -0.0005 -0.4661 -0.4542
18978TIP3    H278426   5.781   2.267   3.758  1.6728  0.5411  0.0570
18979TIP3   OH278427   3.106   6.193   2.169  0.3282 -0.5768  0.1168
18979TIP3    H178428   3.131   6.140   2.245  0.6541  0.6875  0.9224
18979TIP3    H278429   3.075   6.275   2.207 -1.9866 -0.8481 -0.9987
18980TIP3   OH278430   4.594   5.406  14.148 -0.0673 -0.3029  0.3055
18980TIP3    H178431   4.509   5.430  14.184  0.4361  0.0361  1.3140
18980TIP3    H278432   4.657   5.436  14.214  0.8645 -0.0762 -0.6636
18981TIP3   OH278433   4.296   2.793  15.319  0.1637 -0.2733 -0.6371
18981TIP3    H178434   4.311   2.836  15.404 -0.0861 -3.0339  0.9273
18981TIP3    H278435   4.204   2.813  15.299  0.0743 -0.0010 -0.0104
18982TIP3   OH278436   6.071   3.578   4.920  0.1718  0.0034 -0.2499
18982TIP3    H178437   6.092   3.485   4.906  0.7733  0.4087 -2.3993
18982TIP3    H278438   6.155   3.619   4.939 -0.0296  0.2003  0.2459
18983TIP3   OH278439   6.108   3.838  16.421 -0.3328  0.3636 -0.0210
18983TIP3    H178440   6.144   3.776  16.484  1.4256  0.9438 -0.3996
18983TIP3    H278441   6.131   3.924  16.455  2.1219  0.6892 -2.1524
18984TIP3   OH278442   2.724   0.478  17.301 -0.2967 -0.1069  0.3276
18984TIP3    H178443   2.724   0.510  17.211 -0.1793 -0.1592  0.3090
18984TIP3    H278444   2.698   0.554  17.353 -0.6140 -0.1466  0.2247
18985TIP3   OH278445   2.916   6.006   1.319 -0.0614 -0.2075 -0.0040
18985TIP3    H178446   2.868   6.001   1.401 -0.5635 -0.4176 -0.3103
18985TIP3    H278447   3.000   6.047   1.343  1.4070 -3.6349  1.3463
18986TIP3   OH278448   0.323   0.407  13.503 -0.8719 -0.0469  0.1319
18986TIP3    H178449   0.333   0.438  13.413 -1.4144  1.9312  0.6884
18986TIP3    H278450   0.334   0.312  13.497  1.0210  0.2046 -1.7090
18987TIP3   OH278451   1.527   5.429   5.703  0.9195  0.1699  0.0035
18987TIP3    H178452   1.615   5.414   5.738  0.9677 -0.9489 -0.5598
18987TIP3    H278453   1.504   5.346   5.661 -0.1555  0.6623 -0.3943
18988TIP3   OH278454   4.154   0.104  13.899 -0.4397 -0.1546  0.4848
18988TIP3    H178455   4.189   0.159  13.829 -1.0951 -1.2887 -0.7904
18988TIP3    H278456   4.229   0.084  13.954  0.4511 -0.5556 -0.8274
18989TIP3   OH278457   4.710   0.280   5.007  0.0664  0.0761  0.0308
18989TIP3    H178458   4.696   0.341   5.080  0.8577 -0.6282  0.7903
18989TIP3    H278459   4.791   0.311   4.965  1.1111 -1.0793  1.1133
18990TIP3   OH278460   6.380   4.474  16.040  0.3709 -0.1984  0.1612
18990TIP3    H178461   6.395   4.568  16.025 -0.5163  0.1164  1.0478
18990TIP3    H278462   6.296   4.471  16.086  0.1723 -1.4729 -0.2433
18991TIP3   OH278463   5.523   3.013  14.413 -0.5413 -0.2656 -0.3337
18991TIP3    H178464   5.429   3.000  14.431 -0.2931  1.5049  3.0026
18991TIP3    H278465   5.556   2.925  14.396 -2.7819 -0.9288 -1.7062
18992TIP3   OH278466   2.682   1.076  14.096 -0.9743 -0.2372 -0.3514
18992TIP3    H178467   2.606   1.106  14.146  0.8953  2.1799  1.2684
18992TIP3    H278468   2.703   1.149  14.038 -0.6207 -1.4030 -1.7654
18993TIP3   OH278469   4.273   2.618   2.497  0.9055  0.1057  0.1745
18993TIP3    H178470   4.253   2.670   2.420 -0.3963 -0.7694 -0.1113
18993TIP3    H278471   4.365   2.638   2.517  1.6186 -0.4938 -2.2425
18994TIP3   OH278472   1.219   0.133  13.169 -0.1205  0.8006  0.1604
18994TIP3    H178473   1.148   0.081  13.131 -0.2719  0.5732  0.7528
18994TIP3    H278474   1.247   0.084  13.246  0.7536  0.8391 -0.1259
18995TIP3   OH278475   1.785   0.630   5.760  0.3284  0.3409 -0.5493
18995TIP3    H178476   1.835   0.712   5.763  1.0781 -0.1365  0.1765
18995TIP3    H278477   1.851   0.562   5.752 -0.2848 -0.2208 -0.9207
18996TIP3   OH278478   0.301   5.491   0.076  0.3342 -0.2608  0.3266
18996TIP3    H178479   0.267   5.412   0.035  0.3973 -0.1447  0.0480
18996TIP3    H278480   0.296   5.474   0.170  2.8582 -1.7053  0.2830
18997TIP3   OH278481   3.139   5.966  14.009  0.1198  0.3278  0.1346
18997TIP3    H178482   3.220   5.930  13.973  0.8292  1.3870  0.5988
18997TIP3    H278483   3.094   6.005  13.934 -0.4473 -1.1039 -0.2925
18998TIP3   OH278484   6.390   2.832  16.050  0.0380  0.0067  0.2041
18998TIP3    H178485   6.299   2.839  16.077 -0.9817 -1.2302 -2.5572
18998TIP3    H278486   6.388   2.781  15.969  2.8718  2.2616 -1.5315
18999TIP3   OH278487   0.385   4.409  15.392  0.2933 -0.3652  0.3950
18999TIP3    H178488   0.404   4.349  15.320 -1.3672  2.2628 -2.4652
18999TIP3    H278489   0.459   4.470  15.392  0.4789 -0.5703  1.2463
19000TIP3   OH278490   6.441   6.452  14.617 -0.2860  0.2536 -0.4789
19000TIP3    H178491   6.503   6.391  14.578 -1.0165 -0.3435 -0.7414
19000TIP3    H278492   6.441   6.528  14.559  2.3033  1.5401  1.0264
19001TIP3   OH278493   4.910   6.384   0.358  0.1495  0.5066  0.6658
19001TIP3    H178494   4.931   6.477   0.357  3.7829 -0.1308 -1.6882
19001TIP3    H278495   4.839   6.375   0.294  0.5273  1.5857  0.0650
19002TIP3   OH278496   0.043   4.961   2.866  0.0229  0.2121  0.2560
19002TIP3    H178497   0.119   4.903   2.874  1.0546  1.4393 -0.2708
19002TIP3    H278498  -0.032   4.906   2.889  1.1532 -0.7777  1.7507
19003TIP3   OH278499   0.315   2.475  12.081 -0.2052 -0.1105  0.3250
19003TIP3    H178500   0.400   2.518  12.091 -0.9176  1.1722  1.0928
19003TIP3    H278501   0.267   2.498  12.160 -1.1320 -1.1730  0.0942
19004TIP3   OH278502   4.132   5.136   1.412 -0.4752 -0.1557 -0.0690
19004TIP3    H178503   4.158   5.224   1.437 -0.7413 -0.1383  0.1574
19004TIP3    H278504   4.051   5.120   1.461 -0.3309 -0.5942  0.0332
19005TIP3   OH278505   4.087   3.746  14.384 -0.0693 -0.0845  0.2432
19005TIP3    H178506   4.121   3.658  14.399  1.1184  0.6983  2.7025
19005TIP3    H278507   4.124   3.798  14.454 -1.4848  2.2145 -0.5978
19006TIP3   OH278508   1.363   2.355   5.284  0.3544 -0.1505  0.3047
19006TIP3    H178509   1.413   2.279   5.254 -0.2257 -0.7137  0.7392
19006TIP3    H278510   1.306   2.320   5.353  0.4839  0.7859  0.9016
19007TIP3   OH278511   4.795   1.134  15.437  0.0782 -0.0169 -0.7563
19007TIP3    H178512   4.784   1.170  15.349 -0.4582  0.3657 -0.5422
19007TIP3    H278513   4.762   1.203  15.495  0.1259 -0.3925 -0.2734
19008TIP3   OH278514   5.200   0.818  14.918 -0.2145  0.3573  0.0437
19008TIP3    H178515   5.276   0.786  14.870  0.7591  1.4269  0.8232
19008TIP3    H278516   5.227   0.815  15.010 -0.8794  1.3589  0.2880
19009TIP3   OH278517   1.248   2.507   4.396  0.0892 -0.0419  0.0281
19009TIP3    H178518   1.199   2.436   4.354 -0.4505 -0.2267  0.9253
19009TIP3    H278519   1.308   2.539   4.329 -0.7443 -0.3185 -0.8717
19010TIP3   OH278520   0.339   3.851   4.458 -0.1332  0.0318 -0.1091
19010TIP3    H178521   0.268   3.892   4.507 -0.6091 -0.1577 -0.6264
19010TIP3    H278522   0.377   3.788   4.520 -1.2921 -0.8293 -0.2442
19011TIP3   OH278523   3.726   1.636   5.901 -0.0341 -0.0506 -0.1365
19011TIP3    H178524   3.652   1.632   5.840  0.5862  1.5331 -1.0565
19011TIP3    H278525   3.690   1.677   5.980 -0.8162 -2.0175  0.5839
19012TIP3   OH278526   6.495   1.039  12.115 -0.4025  0.3087  0.3862
19012TIP3    H178527   6.442   0.976  12.067  1.9694 -1.2037 -0.4393
19012TIP3    H278528   6.535   0.988  12.185  0.5006  1.2146  0.5608
19013TIP3   OH278529   3.403   2.886  13.116  0.1170  0.1493 -0.5076
19013TIP3    H178530   3.465   2.895  13.188 -0.0232  0.6423 -0.4483
19013TIP3    H278531   3.442   2.818  13.060  1.3367  1.3055 -1.1187
19014TIP3   OH278532   2.553   4.868  17.306 -0.7396  0.5471  0.3232
19014TIP3    H178533   2.600   4.791  17.338 -1.1167  0.3764  0.4771
19014TIP3    H278534   2.621   4.933  17.291 -0.5160  0.5103  1.1300
19015TIP3   OH278535   3.467   1.045   3.037 -0.2185 -0.0303  0.0844
19015TIP3    H178536   3.456   0.962   2.990  1.3978 -0.3183  0.1573
19015TIP3    H278537   3.409   1.037   3.113  1.9685 -2.3237  1.6550
19016TIP3   OH278538   2.059   3.338  14.022  0.2764  0.4824  0.1268
19016TIP3    H178539   2.153   3.331  14.039  0.3424  2.1204  0.5955
19016TIP3    H278540   2.020   3.357  14.107 -0.3691  0.7481 -0.2188
19017TIP3   OH278541   5.390   3.476  15.370  0.6153 -0.6505  0.3063
19017TIP3    H178542   5.443   3.489  15.449  1.5565 -1.1189 -0.2373
19017TIP3    H278543   5.421   3.543  15.309  0.8504 -1.1720 -0.1489
19018TIP3   OH278544   4.112   4.844  16.534 -0.0901  0.2504  0.4168
19018TIP3    H178545   4.124   4.751  16.553  0.3973 -0.2472 -1.9860
19018TIP3    H278546   4.198   4.875  16.507 -0.7745  0.6689 -1.4558
19019TIP3   OH278547   0.447   4.922  17.267 -0.3475 -0.6070  0.2926
19019TIP3    H178548   0.477   4.833  17.283  0.5705 -0.5201 -0.7379
19019TIP3    H278549   0.518   4.962  17.216 -0.6737  0.7566  0.8543
19020TIP3   OH278550   5.920   1.821   3.414 -0.5037 -0.7099  0.2115
19020TIP3    H178551   5.878   1.741   3.443  1.9602 -1.8747  0.8598
19020TIP3    H278552   5.886   1.836   3.326 -2.3029 -1.4610  0.7420
19021TIP3   OH278553   4.690   2.308  16.440 -0.2943 -0.5643  0.1621
19021TIP3    H178554   4.698   2.395  16.479  1.2918 -0.9198  0.6988
19021TIP3    H278555   4.644   2.256  16.505 -3.7938  0.4725 -1.2555
19022TIP3   OH278556   0.677   2.619  11.704 -0.1494 -0.0006  0.0579
19022TIP3    H178557   0.670   2.628  11.608 -0.5830  0.3670  0.1219
19022TIP3    H278558   0.704   2.528  11.717  2.4915  0.6075 -0.5359
19023TIP3   OH278559   6.446   0.390  17.337 -0.1206  0.0359 -0.0965
19023TIP3    H178560   6.398   0.471  17.355 -0.7563 -0.3920  0.1875
19023TIP3    H278561   6.501   0.377  17.414 -0.4135 -0.0735  0.0985
19024TIP3   OH278562   0.491   0.934   1.764  0.8028  0.1934 -0.0672
19024TIP3    H178563   0.408   0.887   1.767  0.5789  0.6117  0.8884
19024TIP3    H278564   0.550   0.876   1.715  0.3135 -0.7078  0.3759
19025TIP3   OH278565   5.266   0.538   3.579 -0.0681  0.3501 -0.4194
19025TIP3    H178566   5.258   0.448   3.547 -1.7740  0.6118 -0.8239
19025TIP3    H278567   5.346   0.538   3.630 -0.9440 -1.9041  1.1246
19026TIP3   OH278568   4.599   3.310   5.867 -0.0949 -0.2060  0.5848
19026TIP3    H178569   4.580   3.245   5.799 -1.4974  1.4720 -0.7235
19026TIP3    H278570   4.552   3.389   5.839  0.9807  1.1890  2.4525
19027TIP3   OH278571   0.171   2.496   0.254 -0.0237 -0.0268 -0.1862
19027TIP3    H178572   0.076   2.491   0.241 -0.1751 -0.0596  0.8943
19027TIP3    H278573   0.183   2.493   0.349  1.0624 -0.0212 -0.3119
19028TIP3   OH278574   5.169   0.675  11.405 -0.2738  0.4769 -0.3779
19028TIP3    H178575   5.188   0.628  11.323  0.4131  0.0676  0.0056
19028TIP3    H278576   5.076   0.661  11.419  0.0030 -1.2210 -0.0144
19029TIP3   OH278577   2.084   0.203   5.749 -0.1047  0.0694 -0.1546
19029TIP3    H178578   2.079   0.200   5.844 -0.5239  1.2265 -0.1273
19029TIP3    H278579   2.130   0.123   5.725  1.0230  0.3130  1.0868
19030TIP3   OH278580   1.578   4.954  15.221 -0.0878 -0.8748 -0.1905
19030TIP3    H178581   1.610   4.872  15.258 -1.5891 -1.0067  0.8538
19030TIP3    H278582   1.485   4.940  15.207 -0.3077  0.5535 -0.2773
19031TIP3   OH278583   1.565   2.413   1.864  0.2001 -0.2539  0.0239
19031TIP3    H178584   1.476   2.414   1.901 -0.1955 -0.2146 -0.8839
19031TIP3    H278585   1.623   2.417   1.940 -0.5545 -1.7193  0.7283
19032TIP3   OH278586   6.171   3.287   2.165 -0.0034  0.1217 -0.2893
19032TIP3    H178587   6.203   3.237   2.240  2.5012 -0.3040 -1.5522
19032TIP3    H278588   6.159   3.376   2.199 -0.9246 -0.4842  1.0719
19033TIP3   OH278589   5.864   4.416  17.238 -0.1192 -0.3758 -0.2786
19033TIP3    H178590   5.795   4.483  17.239  0.3285  0.0856 -0.0463
19033TIP3    H278591   5.860   4.377  17.326 -0.8708 -1.1658 -0.6564
19034TIP3   OH278592   4.942   5.090  13.526  0.1180  0.1330  0.4217
19034TIP3    H178593   4.923   5.127  13.440 -1.9858 -0.4249  0.5981
19034TIP3    H278594   5.018   5.140  13.557  0.6357  0.6605 -1.5312
19035TIP3   OH278595   1.861   5.981   6.586  0.1557  0.3902 -0.0015
19035TIP3    H178596   1.877   6.002   6.678  0.6389  1.6679 -0.3614
19035TIP3    H278597   1.948   5.966   6.550 -0.0947 -1.3350 -0.0098
19036TIP3   OH278598   3.691   2.505  15.289  0.4181 -0.2781 -0.0633
19036TIP3    H178599   3.716   2.492  15.380  2.0501 -0.3470 -0.4938
19036TIP3    H278600   3.670   2.599  15.284 -1.5063 -0.6157  0.7624
19037TIP3   OH278601   2.138   6.725   6.430 -0.6987 -0.2132  0.0354
19037TIP3    H178602   2.140   6.635   6.463 -1.7760  0.3321  1.6899
19037TIP3    H278603   2.226   6.759   6.448 -0.4168 -0.7976 -0.2145
19038TIP3   OH278604   0.709   1.269   1.890  0.2937  0.3056  0.9741
19038TIP3    H178605   0.750   1.212   1.955 -0.8373 -2.5225 -0.6447
19038TIP3    H278606   0.646   1.321   1.941 -0.4120 -1.6759  2.2424
19039TIP3   OH278607   5.754   5.454  13.757  0.3888 -0.4566 -0.2663
19039TIP3    H178608   5.726   5.444  13.848 -1.7138 -0.5695 -0.8715
19039TIP3    H278609   5.724   5.374  13.714  0.1039  0.1989 -1.3253
19040TIP3   OH278610   6.621   4.665  12.985 -0.2865 -0.8619 -0.0621
19040TIP3    H178611   6.620   4.729  12.913  1.6082  1.5523  1.8887
19040TIP3    H278612   6.674   4.593  12.951 -1.4894 -0.9526 -1.9161
19041TIP3   OH278613   4.341   0.746   5.645 -0.3851  0.3720  0.2260
19041TIP3    H178614   4.334   0.833   5.684  0.6996  0.2046  0.8153
19041TIP3    H278615   4.397   0.758   5.568  0.6410  0.0321  0.8937
19042TIP3   OH278616   4.901   2.083  16.970 -0.3739  0.0812 -0.5643
19042TIP3    H178617   4.855   2.003  16.944  1.4974 -0.4463 -2.5401
19042TIP3    H278618   4.889   2.143  16.897  1.5807  0.1075 -0.9203
19043TIP3   OH278619   1.203   6.719  12.392  0.7400 -0.7489  0.3533
19043TIP3    H178620   1.265   6.792  12.397  1.4332 -1.4227  2.4189
19043TIP3    H278621   1.118   6.757  12.414  1.2123 -0.6467  2.1345
19044TIP3   OH278622   6.018   1.662  12.410 -0.1901 -0.0412  0.7406
19044TIP3    H178623   6.104   1.631  12.439 -0.0353 -1.8313 -1.3200
19044TIP3    H278624   5.994   1.730  12.473  2.9180  0.8628  1.1282
19045TIP3   OH278625   4.429   4.334   5.534  0.2230  0.5885  0.0414
19045TIP3    H178626   4.346   4.328   5.486 -0.1743 -0.6350  0.8190
19045TIP3    H278627   4.417   4.274   5.608  1.5604  0.9171  0.5394
19046TIP3   OH278628   0.325   4.467   3.795  0.0574  0.6029 -0.3926
19046TIP3    H178629   0.388   4.465   3.722 -0.7416  0.2161 -1.0910
19046TIP3    H278630   0.312   4.375   3.817 -0.9128  0.6148 -0.8457
19047TIP3   OH278631   2.342   6.479   6.263  0.4451  0.4184  0.8781
19047TIP3    H178632   2.314   6.421   6.333  2.3930  1.2098  2.4014
19047TIP3    H278633   2.434   6.497   6.281  1.0268  0.7484 -1.8521
19048TIP3   OH278634   3.881   4.490  12.914 -0.1897  0.1969 -0.1772
19048TIP3    H178635   3.963   4.534  12.937 -0.5399  1.2918 -0.9541
19048TIP3    H278636   3.816   4.560  12.912 -1.5642 -0.9141  2.2333
19049TIP3   OH278637   2.713   2.983  13.050 -0.1097 -0.5211 -0.2347
19049TIP3    H178638   2.700   3.057  13.110  2.4248 -0.6242  0.5535
19049TIP3    H278639   2.639   2.988  12.990  0.3628  3.2521 -0.7723
19050TIP3   OH278640   0.761   3.449  15.651 -0.1634 -0.7242 -0.2605
19050TIP3    H178641   0.730   3.482  15.736  0.5574 -0.6115 -0.0342
19050TIP3    H278642   0.793   3.361  15.671  3.2451  0.5200  0.3448
19051TIP3   OH278643   5.830   4.004   2.146  0.2205  0.3996 -0.2535
19051TIP3    H178644   5.881   4.060   2.088  1.0853  0.4286  0.5096
19051TIP3    H278645   5.887   3.991   2.222 -0.6875 -0.0509  0.3585
19052TIP3   OH278646   3.519   5.228  16.831  0.3267 -0.2834  0.2998
19052TIP3    H178647   3.497   5.315  16.866  0.4621  0.8001 -2.1328
19052TIP3    H278648   3.435   5.188  16.811  0.2681 -0.7180  1.3390
19053TIP3   OH278649   5.889   4.007  10.885 -0.3559 -0.3178 -0.1564
19053TIP3    H178650   5.793   4.010  10.884 -0.4142 -1.3408  0.4105
19053TIP3    H278651   5.911   3.937  10.825  0.0216 -0.3015 -0.0373
19054TIP3   OH278652   3.592   0.103   6.045  0.2051  0.5313 -0.4901
19054TIP3    H178653   3.546   0.181   6.078  0.1099  0.3530 -0.1978
19054TIP3    H278654   3.557   0.090   5.957 -0.9668 -0.1198  0.0443
19055TIP3   OH278655   0.284   0.731   1.780  0.4894  0.1063 -0.4190
19055TIP3    H178656   0.224   0.744   1.852 -1.1471 -0.5296 -1.6130
19055TIP3    H278657   0.312   0.640   1.787  0.3474  0.0505 -0.5587
19056TIP3   OH278658   6.699   1.945  16.273  0.1911 -0.3904  0.1744
19056TIP3    H178659   6.655   1.860  16.263  0.0962 -0.2058 -1.1799
19056TIP3    H278660   6.672   1.995  16.196  1.3652  0.3662  0.2283
19057TIP3   OH278661   5.772   3.823   3.816  0.4762 -0.1095  0.5314
19057TIP3    H178662   5.692   3.810   3.866 -0.5317  0.2094 -0.9413
19057TIP3    H278663   5.842   3.824   3.882 -0.8010  0.4737  1.9287
19058TIP3   OH278664   3.072   5.429   1.928 -0.3455  0.4424  0.4611
19058TIP3    H178665   3.072   5.381   2.011  0.1418  0.6394  0.5815
19058TIP3    H278666   3.163   5.459   1.918  0.1350 -1.4348 -1.2388
19059TIP3   OH278667   4.711   4.008   1.359 -0.2474  0.3976 -0.4163
19059TIP3    H178668   4.730   3.920   1.327  1.4990  0.6757 -0.1990
19059TIP3    H278669   4.688   4.057   1.280 -1.0608 -0.1844 -0.5588
19060TIP3   OH278670   2.581   6.631   3.327  0.2070  0.1324 -0.1424
19060TIP3    H178671   2.663   6.678   3.341  0.5288 -0.4237 -0.1214
19060TIP3    H278672   2.523   6.695   3.284  0.0577  1.0892  1.3779
19061TIP3   OH278673   0.223   0.228   3.860  0.3480 -0.3696 -0.0833
19061TIP3    H178674   0.266   0.220   3.945 -0.1771 -1.4309  0.0978
19061TIP3    H278675   0.149   0.167   3.864 -0.0221 -0.0185 -1.0960
19062TIP3   OH278676   5.941   0.381  13.151 -0.8659  0.1378  0.5318
19062TIP3    H178677   5.853   0.368  13.117  0.0735  1.0393 -2.5598
19062TIP3    H278678   5.996   0.323  13.099  0.7139  1.6995  0.3482
19063TIP3   OH278679   4.893   1.957   3.303  0.0401 -0.1798 -0.4282
19063TIP3    H178680   4.850   2.026   3.252 -1.6461 -1.0539 -0.2598
19063TIP3    H278681   4.903   1.884   3.241 -2.5707 -1.4716  0.5187
19064TIP3   OH278682   4.780   2.496   3.088  0.0399  0.5090  0.6459
19064TIP3    H178683   4.765   2.555   3.014 -0.6711 -0.8039 -0.3104
19064TIP3    H278684   4.801   2.554   3.161 -0.3898  1.9211 -0.3000
19065TIP3   OH278685   2.593   3.283   1.014  0.1092 -0.4089 -1.0052
19065TIP3    H178686   2.651   3.303   1.088 -2.2993 -1.0279  1.2230
19065TIP3    H278687   2.575   3.189   1.022 -2.6441  0.0851 -0.3674
19066TIP3   OH278688   2.741   1.621   2.003  0.1271 -0.4874 -0.0204
19066TIP3    H178689   2.656   1.647   2.039 -0.5941  1.4182 -2.7718
19066TIP3    H278690   2.794   1.700   2.007  1.3223 -1.2791  0.3320
19067TIP3   OH278691   6.413   2.806  13.708 -0.1033 -0.4004  0.2728
19067TIP3    H178692   6.346   2.776  13.769  0.6490 -0.9114  0.8669
19067TIP3    H278693   6.415   2.739  13.640 -1.3515  0.4655 -0.6507
19068TIP3   OH278694   1.829   3.392  12.774 -0.2797 -0.2402 -0.5286
19068TIP3    H178695   1.760   3.392  12.841 -1.0021  0.8716 -1.2371
19068TIP3    H278696   1.866   3.480  12.778 -0.4672 -0.0968 -1.7174
19069TIP3   OH278697   1.834   1.151  14.002 -0.0342 -0.1223  0.3919
19069TIP3    H178698   1.871   1.177  14.087  0.9911 -1.3621  0.3646
19069TIP3    H278699   1.808   1.059  14.015 -1.0274  0.0433 -0.2832
19070TIP3   OH278700   5.556   6.611  15.967  0.1751  0.4791 -0.0010
19070TIP3    H178701   5.488   6.670  15.936 -0.0466  0.0159 -0.4076
19070TIP3    H278702   5.616   6.603  15.892  0.5581  0.7136  0.2796
19071TIP3   OH278703   5.520   1.299  17.158  0.0056  0.0072 -0.0653
19071TIP3    H178704   5.458   1.258  17.098  0.0284  0.0482 -0.1157
19071TIP3    H278705   5.606   1.283  17.119  0.1534 -1.3180  0.7286
19072TIP3   OH278706   0.464   4.155   0.865 -0.0025 -0.1084  0.7929
19072TIP3    H178707   0.442   4.123   0.778  4.0843 -1.5795  0.0451
19072TIP3    H278708   0.436   4.085   0.924 -0.8336 -0.0967  0.4248
19073TIP3   OH278709   1.207   0.625  13.370  0.1352  0.4540  0.1255
19073TIP3    H178710   1.161   0.701  13.337  0.6673  0.1980 -1.2766
19073TIP3    H278711   1.290   0.660  13.404 -0.0541  0.6155  0.4257
19074TIP3   OH278712   4.680   0.740  11.274  0.4372  0.4389 -0.5667
19074TIP3    H178713   4.758   0.771  11.228  1.7662 -0.6904  0.8131
19074TIP3    H278714   4.672   0.648  11.246  0.0578  0.3295 -0.1034
19075TIP3   OH278715   3.913   1.223   0.129  0.0148 -0.4308 -0.2577
19075TIP3    H178716   3.870   1.283   0.190  0.0036 -1.0315  0.3415
19075TIP3    H278717   3.943   1.150   0.184  0.2169 -0.8726 -0.9357
19076TIP3   OH278718   5.562   2.101   4.385 -0.2098  0.1157  0.6300
19076TIP3    H178719   5.634   2.165   4.383 -0.2765  0.1870 -0.8861
19076TIP3    H278720   5.592   2.033   4.445  0.0293  1.3593  1.9949
19077TIP3   OH278721   0.989   6.215   0.849  0.3383 -0.2046  0.8738
19077TIP3    H178722   1.069   6.245   0.892  0.4506 -0.5690  0.9270
19077TIP3    H278723   0.982   6.122   0.874  0.8374 -0.6472 -0.5221
19078TIP3   OH278724   0.517   2.161   6.320  0.1500  0.0004  0.2864
19078TIP3    H178725   0.482   2.152   6.408 -0.8661 -0.8011 -0.1883
19078TIP3    H278726   0.451   2.210   6.271 -0.8178 -2.3178 -0.8590
19079TIP3   OH278727   1.410   3.119   3.020 -0.0767 -0.2194  0.0118
19079TIP3    H178728   1.411   3.085   3.109  3.0680  0.4619  0.3770
19079TIP3    H278729   1.484   3.075   2.977  0.9403  2.3073 -1.0260
19080TIP3   OH278730   3.807   4.700   2.514  0.3094  0.4446 -0.0792
19080TIP3    H178731   3.730   4.703   2.458  0.0860 -0.4374  0.1736
19080TIP3    H278732   3.880   4.686   2.454 -0.0506 -1.7404 -0.0953
19081TIP3   OH278733   3.497   6.588   5.842  0.1113  0.3137 -0.0817
19081TIP3    H178734   3.523   6.574   5.933  1.2325  0.3391 -0.3823
19081TIP3    H278735   3.415   6.638   5.848 -0.2456 -0.3641  0.9093
19082TIP3   OH278736   1.991   1.494  14.590 -0.1384  0.0801 -0.0899
19082TIP3    H178737   2.054   1.564  14.570  1.3894 -0.9089  1.0204
19082TIP3    H278738   2.012   1.425  14.528 -1.3933  0.4228 -0.9310
19083TIP3   OH278739   1.146   2.762   0.419  0.2308  0.2299  0.0224
19083TIP3    H178740   1.185   2.826   0.478  0.7889  0.8873 -1.0260
19083TIP3    H278741   1.119   2.813   0.343 -2.1293 -0.3030  0.4078
19084TIP3   OH278742   5.503   6.110  11.154  0.3993  0.4046  0.4365
19084TIP3    H178743   5.423   6.058  11.154  0.8911 -0.3839 -0.3318
19084TIP3    H278744   5.504   6.152  11.240 -0.4386 -0.1892  0.7518
19085TIP3   OH278745   2.518   1.342   1.649 -0.2536 -0.0070  0.0356
19085TIP3    H178746   2.427   1.368   1.633 -0.4598  0.0118  1.2028
19085TIP3    H278747   2.552   1.320   1.562 -1.9349 -1.9000 -0.1915
19086TIP3   OH278748   3.562   5.741   0.819 -0.6332 -0.0318  0.2288
19086TIP3    H178749   3.586   5.805   0.752  0.0192  0.2786  0.7447
19086TIP3    H278750   3.469   5.757   0.836 -0.6348  0.3389 -0.1193
19087TIP3   OH278751   3.347   5.694  12.452 -0.1092 -0.5958 -0.3398
19087TIP3    H178752   3.357   5.670  12.360  0.8596 -0.6571 -0.2254
19087TIP3    H278753   3.324   5.612  12.496 -1.6769 -0.3686 -0.6746
19088TIP3   OH278754   3.265   2.821   2.619 -0.1364 -0.2037 -0.1286
19088TIP3    H178755   3.359   2.803   2.616  0.0024  0.4005  0.5422
19088TIP3    H278756   3.253   2.875   2.697 -1.2080 -1.2512  0.4595
19089TIP3   OH278757   1.460   5.249   1.156  0.2401  0.3828 -0.4990
19089TIP3    H178758   1.368   5.273   1.156  0.8022  2.7863 -0.6314
19089TIP3    H278759   1.472   5.197   1.236 -0.7784  2.0689  0.8127
19090TIP3   OH278760   3.572   1.605  11.564  0.4639 -0.5898  0.5847
19090TIP3    H178761   3.625   1.676  11.527 -0.9299  0.1331 -0.0979
19090TIP3    H278762   3.482   1.638  11.563 -0.2303 -2.3320  0.3091
19091TIP3   OH278763   3.906   5.028  15.377 -0.3137  0.2562  0.3938
19091TIP3    H178764   3.890   4.934  15.370  0.1019  0.1303  1.0564
19091TIP3    H278765   3.866   5.065  15.298 -0.1378 -0.5148 -0.0699
19092TIP3   OH278766   3.385   0.716  10.916  0.0276  0.0291  0.1319
19092TIP3    H178767   3.304   0.712  10.865  0.2142 -0.5142 -0.1271
19092TIP3    H278768   3.386   0.805  10.952 -1.2411 -0.3243  1.0780
19093TIP3   OH278769   6.496   1.194   2.820  0.0164 -0.1738  0.5653
19093TIP3    H178770   6.590   1.211   2.833  0.4572 -0.8607 -1.3609
19093TIP3    H278771   6.467   1.264   2.763 -0.7664  0.2781  1.5049
19094TIP3   OH278772   1.457   0.363  16.768  0.6975 -0.1387  0.3029
19094TIP3    H178773   1.547   0.332  16.779  0.4978 -1.0799 -0.4954
19094TIP3    H278774   1.460   0.422  16.693  0.5364 -0.7977 -0.2409
19095TIP3   OH278775   2.643   4.495  16.025  0.5820 -0.3101  0.1943
19095TIP3    H178776   2.689   4.417  16.057 -0.3468 -1.1236 -0.4000
19095TIP3    H278777   2.713   4.553  15.994  1.3359 -0.5733  1.3258
19096TIP3   OH278778   2.227   3.325  10.721 -0.1990 -0.4599 -0.0042
19096TIP3    H178779   2.132   3.316  10.712 -0.6572 -1.1393  3.8361
19096TIP3    H278780   2.261   3.238  10.703  0.0760  0.2239 -3.4577
19097TIP3   OH278781   3.252   6.634   2.228 -0.4040  0.6230 -0.0588
19097TIP3    H178782   3.261   6.722   2.264  1.3108 -0.0205  1.2375
19097TIP3    H278783   3.291   6.638   2.141 -1.3521  1.3909 -0.4544
19098TIP3   OH278784   2.508   4.290  14.879  0.2563 -0.2350  0.4655
19098TIP3    H178785   2.466   4.215  14.921 -0.3367  0.1746  0.6140
19098TIP3    H278786   2.562   4.251  14.810 -0.7270 -0.7599 -0.0379
19099TIP3   OH278787   6.509   2.879   1.763 -0.0863 -0.3422 -0.2649
19099TIP3    H178788   6.579   2.893   1.699  0.0704  0.3098  0.0405
19099TIP3    H278789   6.524   2.945   1.830  0.1027 -1.3901  0.7564
19100TIP3   OH278790   5.238   6.529  17.168  0.1202  0.5871 -0.9671
19100TIP3    H178791   5.258   6.475  17.092  0.4630  0.2064 -0.6130
19100TIP3    H278792   5.301   6.502  17.235 -2.0670 -1.3270  0.4994
19101TIP3   OH278793   5.505   1.138   0.235 -0.0924  0.6647 -0.3227
19101TIP3    H178794   5.537   1.226   0.253  3.4681  0.3400 -3.7375
19101TIP3    H278795   5.459   1.145   0.152  3.0284 -0.9401 -2.4006
19102TIP3   OH278796   1.286   6.220   0.801 -0.3868 -0.0428 -0.1402
19102TIP3    H178797   1.242   6.153   0.747 -0.0287 -1.4102  1.1983
19102TIP3    H278798   1.355   6.254   0.744 -0.8240 -0.5309 -0.9900
19103TIP3   OH278799   4.451   0.860   6.359 -0.4544  0.3415 -0.2901
19103TIP3    H178800   4.401   0.879   6.279 -0.2813 -1.2203 -0.8049
19103TIP3    H278801   4.402   0.789   6.400  0.9122 -0.6973 -0.4117
19104TIP3   OH278802   5.050   5.338   3.071  0.4236 -0.5000 -0.6049
19104TIP3    H178803   5.144   5.326   3.057  0.5565 -0.9483  0.5984
19104TIP3    H278804   5.028   5.280   3.144 -1.1325 -1.7201 -1.9343
19105TIP3   OH278805   3.152   5.341   5.223  0.1952  0.5628 -0.5367
19105TIP3    H178806   3.074   5.288   5.206  1.1548 -0.7637 -0.9485
19105TIP3    H278807   3.199   5.295   5.292 -0.0909  2.1602  0.8027
19106TIP3   OH278808   5.748   4.299   5.495 -0.6943  0.1016 -0.3581
19106TIP3    H178809   5.679   4.355   5.460 -0.2375  1.8687  1.3618
19106TIP3    H278810   5.722   4.282   5.585  0.3399 -0.5230 -0.1624
19107TIP3   OH278811   0.786   0.924  17.442 -0.2864  0.3217 -0.0093
19107TIP3    H178812   0.849   0.952  17.509  1.2772 -0.9912 -0.8560
19107TIP3    H278813   0.817   0.965  17.361 -1.2369  0.6153 -0.2359
19108TIP3   OH278814   5.569   1.279   0.606  0.3629 -0.2017  0.3504
19108TIP3    H178815   5.600   1.198   0.565  1.4527 -0.2212  1.1628
19108TIP3    H278816   5.614   1.281   0.691  0.2096  1.1699  0.4137
19109TIP3   OH278817   1.828   5.451   0.186  0.1981  0.0246 -0.5729
19109TIP3    H178818   1.745   5.484   0.218  0.3092 -1.3978  1.3519
19109TIP3    H278819   1.815   5.357   0.176  1.6082 -0.2537 -0.0484
19110TIP3   OH278820   5.223   4.213  11.072 -0.1796 -0.8352 -0.3449
19110TIP3    H178821   5.191   4.135  11.026  2.1335 -1.5397 -0.8682
19110TIP3    H278822   5.278   4.178  11.142  0.8869  0.3151 -0.5725
19111TIP3   OH278823   0.920   3.150  16.987  0.1360 -0.0582 -0.5286
19111TIP3    H178824   0.896   3.241  16.970  1.4120  0.3466 -0.3296
19111TIP3    H278825   0.839   3.109  17.016 -0.5870  0.8721 -1.1390
19112TIP3   OH278826   5.820   0.818   3.031  0.4586  0.3963  0.0761
19112TIP3    H178827   5.798   0.853   2.945  0.2134 -1.2556 -0.5636
19112TIP3    H278828   5.913   0.839   3.042  0.2269  1.6053 -0.0641
19113TIP3   OH278829   0.633   4.578  17.009 -0.0511  0.4642 -0.1475
19113TIP3    H178830   0.550   4.580  16.962 -1.1544  1.0315  1.7289
19113TIP3    H278831   0.656   4.485  17.014 -0.3380  0.3395 -1.0294
19114TIP3   OH278832   4.832   4.714   2.033  0.1957  0.1455 -0.2671
19114TIP3    H178833   4.792   4.798   2.010  0.2705 -0.4547 -2.8739
19114TIP3    H278834   4.904   4.738   2.091 -0.7255  1.7198  0.3027
19115TIP3   OH278835   6.714   3.877  13.704 -0.1980 -0.2369 -0.4355
19115TIP3    H178836   6.723   3.959  13.752 -1.4880  0.0895 -0.7057
19115TIP3    H278837   6.804   3.850  13.685  0.2641  0.7125  0.3200
19116TIP3   OH278838   0.084   0.756   0.328 -0.0487  0.2411  0.2129
19116TIP3    H178839   0.067   0.687   0.392  1.0288 -0.1177  0.1356
19116TIP3    H278840   0.009   0.751   0.268  0.6039 -1.7447 -0.5294
19117TIP3   OH278841   2.114   2.724   5.557 -0.0695 -0.3421 -0.0940
19117TIP3    H178842   2.065   2.749   5.479  0.7125  0.2331 -0.4054
19117TIP3    H278843   2.093   2.793   5.621  2.4027  1.4824 -1.0784
19118TIP3   OH278844   6.107   3.462  17.072  0.6956  0.3403  0.1434
19118TIP3    H178845   6.038   3.523  17.098  1.2018  0.6162  0.8638
19118TIP3    H278846   6.060   3.384  17.042  0.0605  0.8709 -0.2623
19119TIP3   OH278847   2.618   5.804  12.731  0.8415 -0.0700 -0.2697
19119TIP3    H178848   2.700   5.810  12.681  1.5668  0.4774  0.9461
19119TIP3    H278849   2.549   5.810  12.665  1.7696 -0.6793 -1.3323
19120TIP3   OH278850   5.684   2.698   3.667 -0.0529  0.2487 -0.2807
19120TIP3    H178851   5.702   2.634   3.598 -0.3569 -0.5205  0.3336
19120TIP3    H278852   5.770   2.722   3.701  0.0364 -0.3524 -0.0659
19121TIP3   OH278853   5.126   3.051  12.941 -0.2952  0.1096  0.1247
19121TIP3    H178854   5.162   2.971  12.980 -0.3412 -1.1191 -2.1990
19121TIP3    H278855   5.203   3.102  12.916 -0.2132 -0.2175 -0.3134
19122TIP3   OH278856   6.378   0.612  12.734 -0.2829  0.1898  0.1000
19122TIP3    H178857   6.340   0.535  12.691 -0.1835  1.3890 -2.2860
19122TIP3    H278858   6.470   0.590  12.745 -0.0934  0.1970 -1.2509
19123TIP3   OH278859   3.663   2.114  13.341  0.4379  0.2432 -0.0028
19123TIP3    H178860   3.583   2.063  13.334  0.8715 -0.3918 -0.4099
19123TIP3    H278861   3.731   2.059  13.302  1.1170  0.6735  0.5381
19124TIP3   OH278862   1.663   4.326  16.211 -0.1564  0.0131  0.2195
19124TIP3    H178863   1.753   4.340  16.183 -0.3503 -0.1216 -0.5179
19124TIP3    H278864   1.617   4.405  16.183 -0.2898  0.0265  0.4782
19125TIP3   OH278865   3.917   1.583   2.079  0.1508  0.3378 -0.2200
19125TIP3    H178866   3.956   1.573   1.992  0.3222  1.6251 -0.3204
19125TIP3    H278867   3.914   1.495   2.115 -0.0456 -0.2359 -1.5839
19126TIP3   OH278868   5.992   1.684  16.586  0.5832 -0.3755 -0.6918
19126TIP3    H178869   6.076   1.730  16.583  1.1783 -1.3823  0.0380
19126TIP3    H278870   5.960   1.687  16.496  0.1150  2.2844 -0.5302
19127TIP3   OH278871   0.361   3.594  11.578  0.0612 -0.6560 -0.2547
19127TIP3    H178872   0.390   3.681  11.549  1.4006 -1.3183 -0.9670
19127TIP3    H278873   0.313   3.559  11.503 -1.4170 -0.1451  0.4081
19128TIP3   OH278874   4.618   0.956  13.235 -0.2136 -0.0693 -0.3888
19128TIP3    H178875   4.552   0.886  13.237 -1.7588  1.2360 -1.9777
19128TIP3    H278876   4.582   1.025  13.291 -0.2307  0.6611 -1.2780
19129TIP3   OH278877   2.066   5.416   4.059  0.2687  0.1806 -0.0097
19129TIP3    H178878   1.986   5.387   4.103  0.5708  1.1257  1.2152
19129TIP3    H278879   2.120   5.337   4.054 -0.0252 -0.0806  0.7708
19130TIP3   OH278880   6.212   5.374   0.991  0.9373 -0.3410 -0.0906
19130TIP3    H178881   6.290   5.430   0.982  1.2232 -0.3245  1.9445
19130TIP3    H278882   6.246   5.289   1.017  0.3248 -0.5216  0.1480
19131TIP3   OH278883   6.374   3.688  15.450  0.3627  0.4928  0.2173
19131TIP3    H178884   6.438   3.660  15.516  1.6177  1.9377 -0.3178
19131TIP3    H278885   6.413   3.767  15.412 -0.7930  0.2364 -1.5885
19132TIP3   OH278886   3.797   3.217   0.637  0.5381 -0.4987 -0.0451
19132TIP3    H178887   3.874   3.191   0.586  0.2955 -0.2523 -0.5426
19132TIP3    H278888   3.833   3.263   0.712  0.8905 -0.6148 -0.1402
19133TIP3   OH278889   4.919   4.068   3.278 -0.0049 -0.4547 -0.2314
19133TIP3    H178890   4.914   4.163   3.280  0.6927 -0.4156 -0.0648
19133TIP3    H278891   4.998   4.047   3.328  0.7731 -1.0355 -1.6592
19134TIP3   OH278892   3.548   1.915   5.463  0.4583 -0.3187 -0.0428
19134TIP3    H178893   3.615   1.971   5.503  0.8757 -1.6999  1.2733
19134TIP3    H278894   3.581   1.899   5.374  1.6449 -0.5693  0.4237
19135TIP3   OH278895   5.182   2.787   5.103 -0.7509 -0.3170  0.3916
19135TIP3    H178896   5.147   2.875   5.114  2.3602  0.8614  2.1941
19135TIP3    H278897   5.186   2.751   5.192  0.7294 -1.0824  0.0606
19136TIP3   OH278898   1.543   3.623   3.225 -0.3052  0.4600 -0.0518
19136TIP3    H178899   1.538   3.639   3.320 -1.4879 -1.6392  0.3208
19136TIP3    H278900   1.455   3.594   3.201  0.5601 -1.3647 -1.2816
19137TIP3   OH278901   0.750   4.669  11.336  0.1544  0.5479 -0.6856
19137TIP3    H178902   0.803   4.621  11.273 -1.0869  3.4571 -4.2666
19137TIP3    H278903   0.806   4.740  11.366  0.5530 -0.5077  1.2167
19138TIP3   OH278904   3.544   0.457   4.725 -0.0801 -0.0963 -0.2959
19138TIP3    H178905   3.541   0.506   4.642  0.4021  0.8579  0.2274
19138TIP3    H278906   3.452   0.444   4.748 -0.2808 -1.8452 -1.7828
19139TIP3   OH278907   2.174   1.115  17.114 -0.2230  0.1533 -0.1160
19139TIP3    H178908   2.224   1.055  17.170  1.5844  0.4174 -1.3480
19139TIP3    H278909   2.083   1.100  17.138  0.3502 -1.2673  1.3759
19140TIP3   OH278910   5.500   1.501   4.937 -0.2683  0.4157 -0.2770
19140TIP3    H178911   5.423   1.541   4.976 -0.2106 -0.0982  0.3987
19140TIP3    H278912   5.466   1.430   4.882 -0.2642 -0.4717  0.8115
19141TIP3   OH278913   0.152   0.281   2.196 -0.0614 -0.3119 -0.0099
19141TIP3    H178914   0.145   0.324   2.282 -1.2074  0.0765 -0.2794
19141TIP3    H278915   0.206   0.204   2.212 -0.7719 -0.5845  1.2028
19142TIP3   OH278916   4.024   6.355  15.464  0.2094 -0.5802  0.5938
19142TIP3    H178917   3.965   6.425  15.434 -1.0502 -0.5602  2.9064
19142TIP3    H278918   3.983   6.275  15.433  0.5602 -0.4253 -0.3035
19143TIP3   OH278919   0.054   5.871   2.456  0.1324  0.3265  0.4226
19143TIP3    H178920   0.106   5.940   2.414  0.1045  0.2455  0.2542
19143TIP3    H278921  -0.010   5.846   2.390  0.6979 -0.4754  0.1636
19144TIP3   OH278922   3.961   5.779   0.767 -0.5431 -0.4711  0.0768
19144TIP3    H178923   3.982   5.689   0.741  0.5509 -0.5000  0.9940
19144TIP3    H278924   3.942   5.823   0.684  1.0036 -1.0241 -0.6188
19145TIP3   OH278925   2.753   3.092   3.419 -0.1709 -0.1265 -0.0070
19145TIP3    H178926   2.781   3.105   3.328  0.0284 -1.6576 -0.1907
19145TIP3    H278927   2.766   3.178   3.460  1.5909  0.1046 -0.9308
19146TIP3   OH278928   1.442   3.561   4.488 -0.3173 -0.6990  0.7480
19146TIP3    H178929   1.363   3.566   4.434  0.5872  2.4081 -0.4726
19146TIP3    H278930   1.508   3.520   4.431 -0.4739 -1.3335  1.0177
19147TIP3   OH278931   4.499   3.009   1.909  0.2188  0.1880 -0.1728
19147TIP3    H178932   4.404   2.995   1.910  0.1992  0.3203 -0.1906
19147TIP3    H278933   4.509   3.104   1.908  0.3493  0.1708 -0.4510
19148TIP3   OH278934   1.661   4.972   2.920 -0.2111  0.0123  0.2535
19148TIP3    H178935   1.580   4.926   2.898 -0.9943  0.0370  2.7767
19148TIP3    H278936   1.720   4.903   2.950 -0.7322  0.3505  2.2158
19149TIP3   OH278937   0.759   1.812   1.765 -0.0181 -0.1596  0.0609
19149TIP3    H178938   0.742   1.826   1.672  0.7837 -0.4710 -0.1385
19149TIP3    H278939   0.744   1.719   1.779  0.2674 -0.1957  0.1450
19150TIP3   OH278940   5.058   2.733   1.063  0.0844  0.1767 -0.0508
19150TIP3    H178941   4.978   2.783   1.046  0.9759  1.9372  0.6198
19150TIP3    H278942   5.112   2.748   0.986  0.4534  0.4542  0.2570
19151TIP3   OH278943   2.219   0.458   4.794  0.2862  0.3767 -0.6495
19151TIP3    H178944   2.241   0.390   4.730 -0.2584 -0.3738 -0.0567
19151TIP3    H278945   2.123   0.456   4.798  0.3351 -0.0408  0.6613
19152TIP3   OH278946   1.840   6.498   3.816  0.3920 -0.7283 -0.6270
19152TIP3    H178947   1.848   6.403   3.820  2.5818 -0.5993 -1.0783
19152TIP3    H278948   1.828   6.518   3.723 -0.7283 -0.5773 -0.4673
19153TIP3   OH278949   4.276   2.618  12.084  0.1745 -0.4229 -0.3842
19153TIP3    H178950   4.294   2.709  12.106  1.7030 -0.8769  0.3778
19153TIP3    H278951   4.356   2.587  12.042 -0.6386 -1.1869 -1.4088
19154TIP3   OH278952   1.309   5.204   6.527 -0.2144 -0.2209 -0.0442
19154TIP3    H178953   1.320   5.267   6.598 -1.2222 -0.1954  0.1039
19154TIP3    H278954   1.383   5.143   6.538  1.5367  1.6377 -0.9836
19155TIP3   OH278955   2.660   2.708   1.624  0.6192  0.1853 -0.1846
19155TIP3    H178956   2.723   2.727   1.556  0.6936  0.7366  0.0337
19155TIP3    H278957   2.580   2.682   1.577  1.2989 -1.5859 -0.4600
19156TIP3   OH278958   5.683   4.765   0.962  0.7848  0.4836  0.1054
19156TIP3    H178959   5.673   4.806   0.876  0.6276  0.8349  0.2908
19156TIP3    H278960   5.596   4.768   1.001  0.4337 -1.2759 -0.4161
19157TIP3   OH278961   3.122   6.592  15.210 -0.0362 -0.3856 -0.7279
19157TIP3    H178962   3.081   6.673  15.180  1.7053  1.4875  1.5894
19157TIP3    H278963   3.049   6.538  15.241 -1.1321  0.8759 -1.0182
19158TIP3   OH278964   1.830   0.581  12.609 -0.5921  0.3435 -0.1843
19158TIP3    H178965   1.790   0.636  12.541 -1.1450  0.0280 -0.1211
19158TIP3    H278966   1.763   0.515  12.628 -0.0704 -0.1283  0.0009
19159TIP3   OH278967   6.093   2.201   1.877 -0.8068  0.1393  0.3309
19159TIP3    H178968   6.054   2.144   1.811 -0.8087 -0.2967  0.7049
19159TIP3    H278969   6.133   2.272   1.827  0.2112 -0.7904 -0.2370
19160TIP3   OH278970   6.043   3.396   0.016  0.4409 -0.4297 -0.1421
19160TIP3    H178971   5.949   3.379   0.029  0.5430  0.1179  1.4085
19160TIP3    H278972   6.047   3.489  -0.006  0.6775 -0.3076  0.4196
19161TIP3   OH278973   5.307   3.140  11.655 -0.1405  0.3452 -0.3197
19161TIP3    H178974   5.222   3.179  11.637  0.4658  0.8985 -2.2221
19161TIP3    H278975   5.348   3.130  11.569  0.2466 -3.3921  0.1572
19162TIP3   OH278976   6.594   2.015   0.636 -0.0739  0.2072  0.1938
19162TIP3    H178977   6.510   2.045   0.671 -0.1868  0.5718 -0.3861
19162TIP3    H278978   6.645   2.095   0.623 -1.0199  0.3880 -3.0666
19163TIP3   OH278979   4.907   0.644   0.547 -0.3452 -0.4481  0.5976
19163TIP3    H178980   4.838   0.701   0.513  0.8518 -0.4295 -1.9841
19163TIP3    H278981   4.969   0.704   0.589  1.5996  0.5890 -3.2515
19164TIP3   OH278982   3.557   3.085   5.758 -0.3034  0.0556 -0.0725
19164TIP3    H178983   3.618   3.039   5.817  0.3961 -0.3061 -1.0367
19164TIP3    H278984   3.610   3.103   5.680 -1.1977  0.5461 -0.5726
19165TIP3   OH278985   6.388   4.389  12.196  0.1614  0.2508 -0.8980
19165TIP3    H178986   6.393   4.441  12.276 -0.3723  2.2051 -2.0681
19165TIP3    H278987   6.449   4.430  12.136 -0.4281 -0.3496 -1.9482
19166TIP3   OH278988   4.984   5.111   2.009 -0.0171  0.2894 -0.3341
19166TIP3    H178989   5.006   5.019   2.026  1.0416  0.5709 -0.1242
19166TIP3    H278990   4.888   5.113   2.008 -0.0982 -0.4987  1.4824
19167TIP3   OH278991   6.437   2.302  14.797 -0.0212 -0.4786 -1.0158
19167TIP3    H178992   6.348   2.338  14.799  0.2470  0.2538 -1.8718
19167TIP3    H278993   6.453   2.275  14.887 -1.3350 -1.1775 -0.9682
19168TIP3   OH278994   0.148   3.602  13.720 -0.0880 -0.4181  0.2583
19168TIP3    H178995   0.203   3.531  13.752  0.2560 -0.2979 -0.0594
19168TIP3    H278996   0.189   3.682  13.752 -0.3498 -0.3511  0.4279
19169TIP3   OH278997   0.810   0.208  12.947 -0.4114  0.4090  0.5262
19169TIP3    H178998   0.807   0.181  12.855  0.6764  1.0820  0.2670
19169TIP3    H278999   0.872   0.147  12.987  1.1555  1.6900  0.1949
19170TIP3   OH279000   6.142   5.385   2.394 -0.0533 -0.4073 -0.3330
19170TIP3    H179001   6.103   5.458   2.441 -0.2017 -0.6222 -0.1161
19170TIP3    H279002   6.077   5.315   2.399 -0.1164 -0.3991 -0.9524
19171TIP3   OH279003   0.989   1.944   6.514  0.2000 -0.0508  0.3301
19171TIP3    H179004   0.900   1.979   6.521  0.8963  1.8175  0.2914
19171TIP3    H279005   0.995   1.879   6.584 -0.5208  1.3659  1.7557
19172TIP3   OH279006   5.101   2.792   0.475 -0.3144 -0.5388  0.3712
19172TIP3    H179007   5.045   2.749   0.411  0.4635  0.2225 -0.8492
19172TIP3    H279008   5.189   2.763   0.453 -0.0073 -0.0705  0.9468
19173TIP3   OH279009   4.986   5.710  15.265 -0.3133 -0.7622  0.4410
19173TIP3    H179010   5.054   5.735  15.203 -1.5227 -1.0193 -1.0745
19173TIP3    H279011   5.031   5.658  15.331  1.2827  0.7433  0.6192
19174TIP3   OH279012   4.477   5.026  15.145 -0.0847  0.2771 -0.0538
19174TIP3    H179013   4.502   4.933  15.136 -0.8860  0.1931 -1.7288
19174TIP3    H279014   4.559   5.073  15.134  0.2741 -0.2054  0.4481
19175TIP3   OH279015   6.499   1.067  17.313  0.3382  0.0703  0.3211
19175TIP3    H179016   6.476   0.984  17.271  0.9146  0.2786 -0.4239
19175TIP3    H279017   6.528   1.123  17.241  0.1799  0.8472  0.8450
19176TIP3   OH279018   0.871   0.365  14.784  0.2622  0.6341  0.9819
19176TIP3    H179019   0.856   0.415  14.704  0.6497 -0.6072  0.0870
19176TIP3    H279020   0.786   0.363  14.828 -0.1910  0.5527  0.1193
19177TIP3   OH279021   2.989   2.909  16.542  0.3131 -0.5189  0.0017
19177TIP3    H179022   2.987   2.997  16.581 -1.0784 -0.0914 -0.9885
19177TIP3    H279023   3.007   2.924  16.450  0.3499 -1.3142 -0.1284
19178TIP3   OH279024   1.629   4.611  12.032 -0.0116 -0.3264 -0.1402
19178TIP3    H179025   1.618   4.677  11.964  0.5363 -0.1816 -0.0946
19178TIP3    H279026   1.550   4.619  12.086  0.0735  0.3375 -0.1010
19179TIP3   OH279027   6.704   2.492   0.840  0.2229  0.1538  0.0816
19179TIP3    H179028   6.756   2.500   0.760 -0.1000  0.0100 -0.1447
19179TIP3    H279029   6.683   2.399   0.845 -2.4456  0.5580 -1.4061
19180TIP3   OH279030   1.534   3.720   4.693 -0.2239 -0.2262 -0.0404
19180TIP3    H179031   1.494   3.651   4.640  0.5095 -0.3483 -0.4449
19180TIP3    H279032   1.600   3.759   4.636  0.5092 -0.2877  0.7511
19181TIP3   OH279033   4.764   3.831  13.653 -0.1055  0.1547 -0.8126
19181TIP3    H179034   4.700   3.768  13.689 -0.1272 -0.0174 -1.1469
19181TIP3    H279035   4.743   3.913  13.697 -0.3987  0.0416 -0.7340
19182TIP3   OH279036   0.855   5.789   2.316 -0.1288  0.3768 -0.0567
19182TIP3    H179037   0.839   5.867   2.370 -1.6122 -0.3662  0.6393
19182TIP3    H279038   0.856   5.822   2.226  0.0773  1.3090  0.2759
19183TIP3   OH279039   0.213   1.742   2.201  0.6034  0.0893 -0.0813
19183TIP3    H179040   0.139   1.731   2.141 -0.7855  1.0404  1.3698
19183TIP3    H279041   0.254   1.824   2.174  1.5910 -0.7836 -1.3227
19184TIP3   OH279042   3.053   0.510  10.881 -0.0351 -0.5552 -0.0623
19184TIP3    H179043   3.040   0.445  10.812  0.0699 -1.0409  0.3643
19184TIP3    H279044   3.108   0.577  10.841  0.4755 -1.0986 -0.2945
19185TIP3   OH279045   3.356   2.513  13.278 -1.0871  0.9396  0.0938
19185TIP3    H179046   3.431   2.541  13.226 -0.4614  0.1693  0.5567
19185TIP3    H279047   3.393   2.451  13.341 -2.1951  0.1179 -0.0328
19186TIP3   OH279048   5.348   2.912  16.827 -0.5160 -0.1451 -0.3992
19186TIP3    H179049   5.361   2.836  16.770  2.0262 -0.0369 -0.0938
19186TIP3    H279050   5.284   2.966  16.781 -1.0231 -1.6095 -1.4947
19187TIP3   OH279051   1.821   4.017   1.743  1.0253 -0.1444 -0.1266
19187TIP3    H179052   1.906   4.046   1.707 -0.2425  1.4047 -2.1043
19187TIP3    H279053   1.799   3.939   1.692  1.3494 -0.7093  0.5773
19188TIP3   OH279054   4.966   4.715  17.282  0.0404 -0.2941 -0.5310
19188TIP3    H179055   5.008   4.700  17.197  0.8288 -0.5409 -0.1104
19188TIP3    H279056   4.887   4.766  17.261  1.0067  0.9780 -1.2608
19189TIP3   OH279057   2.844   1.702  11.536  1.0118 -0.5171 -0.3530
19189TIP3    H179058   2.913   1.756  11.574 -1.2875  1.2579  1.5843
19189TIP3    H279059   2.823   1.638  11.604  0.3866 -0.6677 -0.6771
19190TIP3   OH279060   2.048   0.741   2.870  0.1830 -0.0968 -0.1344
19190TIP3    H179061   2.065   0.649   2.848  0.1798 -0.1075 -0.0932
19190TIP3    H279062   2.003   0.737   2.954 -2.6919 -0.2378 -1.5681
19191TIP3   OH279063   0.740   4.461  13.338 -0.2162  0.3681  0.0229
19191TIP3    H179064   0.730   4.411  13.419 -0.0259  0.4216  0.0797
19191TIP3    H279065   0.831   4.448  13.312 -0.1391  0.7575  0.0894
19192TIP3   OH279066   4.247   3.844  16.888  0.1990  0.8736  0.5105
19192TIP3    H179067   4.211   3.802  16.966  0.8095 -0.9159 -0.1240
19192TIP3    H279068   4.176   3.898  16.855 -0.4995  0.6546  1.5874
19193TIP3   OH279069   4.939   6.724  11.893 -0.0928 -0.3039 -0.0887
19193TIP3    H179070   4.961   6.817  11.898 -1.0693  0.0145 -1.1207
19193TIP3    H279071   5.010   6.679  11.939 -0.3726  1.0463  1.7706
19194TIP3   OH279072   1.391   6.554   1.879  0.4113 -0.0113 -0.4715
19194TIP3    H179073   1.388   6.472   1.929  1.9048  0.6611  0.7850
19194TIP3    H279074   1.324   6.609   1.919  1.3361  0.3831  0.5537
19195TIP3   OH279075   5.279   3.678   3.585 -0.7649  0.2499 -0.2803
19195TIP3    H179076   5.302   3.771   3.575 -1.6344  0.5906  0.7155
19195TIP3    H279077   5.278   3.644   3.495 -0.7369  1.2711 -0.6813
19196TIP3   OH279078   4.666   2.347  17.435 -0.1706 -0.2059 -0.7716
19196TIP3    H179079   4.673   2.269  17.489  1.2767  0.0264 -0.5759
19196TIP3    H279080   4.592   2.395  17.471 -1.3018 -1.6194 -1.1088
19197TIP3   OH279081   6.024   6.753  13.624  0.4089 -0.1002 -0.0893
19197TIP3    H179082   5.976   6.739  13.705 -1.4581 -2.1339 -1.4292
19197TIP3    H279083   5.976   6.703  13.558  2.9342 -0.1517 -2.0837
19198TIP3   OH279084   3.353   2.139  15.587  0.1632  0.0184 -0.2160
19198TIP3    H179085   3.389   2.068  15.533 -1.2285 -1.5201  0.7965
19198TIP3    H279086   3.407   2.138  15.666 -0.9954 -1.2094  0.6016
19199TIP3   OH279087   5.096   3.775  15.751  0.4391 -0.6659 -0.9722
19199TIP3    H179088   5.047   3.714  15.807  1.7571 -0.7163  0.1705
19199TIP3    H279089   5.047   3.857  15.756  1.0034 -0.4083  1.0036
19200TIP3   OH279090   5.252   0.741  11.669 -0.2309  0.1019  0.1262
19200TIP3    H179091   5.234   0.708  11.581 -2.1185  1.1709  0.0489
19200TIP3    H279092   5.302   0.822  11.654  0.3178 -0.2439  0.0870
19201TIP3   OH279093   5.679   1.414  15.833  0.3160  0.1446  0.3225
19201TIP3    H179094   5.620   1.484  15.808  1.6877  0.3556 -2.7475
19201TIP3    H279095   5.640   1.335  15.796  1.3046  0.1084 -0.6867
19202TIP3   OH279096   1.896   5.952   4.595 -0.6157  0.2974  0.0174
19202TIP3    H179097   1.853   5.973   4.512  0.7116 -0.5387 -0.9152
19202TIP3    H279098   1.976   5.906   4.570  0.1557  0.6138  1.7410
19203TIP3   OH279099   5.553   3.736   5.933  0.2752 -0.1803 -0.2835
19203TIP3    H179100   5.629   3.776   5.890  1.8358 -1.5591  1.0569
19203TIP3    H279101   5.489   3.724   5.863  0.9535  1.7469 -1.3042
19204TIP3   OH279102   4.836   6.406   1.722  0.1023 -0.4492  0.4941
19204TIP3    H179103   4.908   6.411   1.658  0.4059 -2.5693  0.6042
19204TIP3    H279104   4.879   6.383   1.804 -0.5533 -0.1438  0.9269
19205TIP3   OH279105   4.981   4.046   0.530  0.0432  0.2760  0.0462
19205TIP3    H179106   5.041   4.096   0.474 -0.0718 -0.8885 -1.1730
19205TIP3    H279107   4.912   4.108   0.551  0.2277  0.8336 -0.9021
19206TIP3   OH279108   3.738   5.808  12.120 -0.4789 -0.1183  0.6602
19206TIP3    H179109   3.752   5.725  12.076  1.0026  0.7720 -0.6402
19206TIP3    H279110   3.646   5.828  12.104  0.0542  0.3325 -2.4568
19207TIP3   OH279111   4.576   4.003   0.471 -0.2842  0.4951 -0.0667
19207TIP3    H179112   4.598   4.067   0.403 -1.8373 -1.1162 -2.2361
19207TIP3    H279113   4.630   3.926   0.451 -1.6508 -0.4514 -0.2981
19208TIP3   OH279114   1.265   3.754  11.526 -0.1179  0.0644  0.2142
19208TIP3    H179115   1.225   3.770  11.441 -0.4880 -0.8155  0.2146
19208TIP3    H279116   1.297   3.664  11.522 -0.1901 -0.0091  1.0179
19209TIP3   OH279117   2.800   3.187   2.128  0.4540 -0.3181 -0.1920
19209TIP3    H179118   2.796   3.170   2.222 -1.1149  0.7399 -0.0372
19209TIP3    H279119   2.710   3.175   2.097  0.5428  1.3002 -1.1932
19210TIP3   OH279120   0.797   5.032  14.719 -0.6655  0.5276  0.4261
19210TIP3    H179121   0.867   5.019  14.783 -1.5133  0.2125  1.3221
19210TIP3    H279122   0.753   4.948  14.714 -0.7976  0.6331 -0.3660
19211TIP3   OH279123   0.347   3.913   6.897 -0.0910  0.7135  0.1419
19211TIP3    H179124   0.344   3.930   6.803 -2.2893 -0.7715 -0.1322
19211TIP3    H279125   0.345   3.999   6.937 -1.5597  1.3429 -1.1755
19212TIP3   OH279126   3.096   4.521   5.467  0.3356 -0.6606 -0.4052
19212TIP3    H179127   3.050   4.523   5.551  2.0019  0.8083  0.5336
19212TIP3    H279128   3.128   4.610   5.455  0.7766 -1.0180 -2.2675
19213TIP3   OH279129   0.875   4.603  10.737 -0.3138 -0.1216  0.1367
19213TIP3    H179130   0.913   4.687  10.764  0.6878 -0.5012 -0.0383
19213TIP3    H279131   0.947   4.556  10.695 -1.1094 -0.6787 -0.6703
19214TIP3   OH279132   4.356   2.305   4.002  0.0501  0.0860  0.1189
19214TIP3    H179133   4.380   2.396   3.985 -1.0312  0.3968  0.1831
19214TIP3    H279134   4.376   2.292   4.095 -2.1967  1.0817  0.8120
19215TIP3   OH279135   1.002   0.374   4.812  0.7564 -0.3792  0.2143
19215TIP3    H179136   1.034   0.284   4.811 -0.0653 -0.7927  2.7274
19215TIP3    H279137   0.907   0.366   4.811  0.6719  0.5175 -0.4191
19216TIP3   OH279138   3.778   1.425   0.322 -0.8318 -0.1037 -0.0108
19216TIP3    H179139   3.818   1.374   0.393  0.4143  1.4690  0.4707
19216TIP3    H279140   3.694   1.454   0.358 -0.1798  0.7343  0.8584
19217TIP3   OH279141   1.252   3.957   5.878 -0.1279 -0.3817 -0.0820
19217TIP3    H179142   1.321   3.912   5.828 -1.3144 -1.9026 -0.4259
19217TIP3    H279143   1.247   3.908   5.960 -1.4649 -0.9353 -0.4727
19218TIP3   OH279144   1.048   5.477  14.418 -0.4066  0.0155 -0.7443
19218TIP3    H179145   1.067   5.443  14.505  0.2216  0.0872 -0.8496
19218TIP3    H279146   0.959   5.445  14.399 -0.4569 -0.1989 -0.1827
19219TIP3   OH279147   3.006   5.033  14.719  0.2416  0.1679 -0.0448
19219TIP3    H179148   2.930   4.976  14.707  1.0245 -0.6135 -1.7156
19219TIP3    H279149   3.073   4.995  14.661  1.6381  1.3042  0.7547
19220TIP3   OH279150   5.210   0.764   2.343  0.0691 -0.6301  0.0803
19220TIP3    H179151   5.126   0.761   2.297  0.3138  0.1812 -0.4180
19220TIP3    H279152   5.218   0.676   2.382 -1.6163 -0.3256  1.2328
19221TIP3   OH279153   3.288   1.201  16.683  0.1865  0.3847 -0.0400
19221TIP3    H179154   3.198   1.180  16.656  0.8435 -1.0141 -1.3370
19221TIP3    H279155   3.310   1.132  16.745  0.9126 -0.3183 -1.0398
19222TIP3   OH279156   4.488   5.166  15.433  0.6475 -0.4720 -0.4400
19222TIP3    H179157   4.578   5.192  15.448  0.3700  0.6704 -0.6330
19222TIP3    H279158   4.459   5.220  15.360 -0.4713 -0.1334  0.2251
19223TIP3   OH279159   3.966   0.680   5.064 -0.1836 -0.1183 -0.2025
19223TIP3    H179160   3.895   0.631   5.105 -1.1780  0.3014 -1.3544
19223TIP3    H279161   4.045   0.631   5.085 -1.0045 -1.4843 -0.2314
19224TIP3   OH279162   2.650   6.289   2.575  0.5053  0.0368  0.0822
19224TIP3    H179163   2.702   6.209   2.588  2.2998  1.1003 -0.1910
19224TIP3    H279164   2.655   6.305   2.480  1.2615  1.1530  0.2924
19225TIP3   OH279165   0.453   2.533  15.078  0.4304  0.7647  0.1374
19225TIP3    H179166   0.524   2.469  15.067  0.9576  1.2264  0.7680
19225TIP3    H279167   0.382   2.499  15.023  1.0866  0.2209 -0.4023
19226TIP3   OH279168   2.917   1.375   4.746 -0.2377  0.4591 -0.4386
19226TIP3    H179169   2.993   1.426   4.720  1.2765 -0.4003  1.9878
19226TIP3    H279170   2.911   1.386   4.841 -2.5099 -0.3779 -0.4069
19227TIP3   OH279171   2.554   3.999  15.285 -0.0643 -0.1300 -0.5814
19227TIP3    H179172   2.534   3.972  15.375 -0.7211 -1.2735 -1.0503
19227TIP3    H279173   2.585   3.919  15.242  1.5630  0.6941 -1.0340
19228TIP3   OH279174   5.754   1.229  17.066 -0.4120 -0.0517 -0.1242
19228TIP3    H179175   5.804   1.169  17.009 -0.1464  0.2568 -0.2178
19228TIP3    H279176   5.821   1.277  17.115 -0.6121  0.4993 -0.3862
19229TIP3   OH279177   0.525   0.014  12.699  0.5202 -0.2685  0.1485
19229TIP3    H179178   0.494  -0.076  12.713  1.5658 -0.8536 -1.0783
19229TIP3    H279179   0.454   0.058  12.653 -0.2004 -0.2914  1.1878
19230TIP3   OH279180   6.406   0.469   2.082  0.4315  0.1723  0.1032
19230TIP3    H179181   6.355   0.459   2.163  0.4175 -0.4099  0.0246
19230TIP3    H279182   6.464   0.393   2.081  0.8767  0.5129 -0.1178
19231TIP3   OH279183   5.143   3.618   4.847  0.1990 -0.4496  0.0388
19231TIP3    H179184   5.234   3.644   4.861  0.0744  0.2759 -0.4485
19231TIP3    H279185   5.133   3.612   4.752 -0.3556 -0.1496  0.0703
19232TIP3   OH279186   6.682   0.606   5.114  0.3921  0.0189  0.2713
19232TIP3    H179187   6.593   0.570   5.111  1.0733 -1.7222 -0.0243
19232TIP3    H279188   6.712   0.604   5.024  0.6159  0.9709  0.3118
19233TIP3   OH279189   3.975   0.410   3.971  0.5095  0.5018  0.0065
19233TIP3    H179190   3.967   0.503   3.950  1.9793  0.9864  1.3371
19233TIP3    H279191   4.015   0.409   4.058 -3.0879 -1.3168  1.8690
19234TIP3   OH279192   1.573   2.747  12.073  0.4270  0.0942  0.5827
19234TIP3    H179193   1.661   2.733  12.108  0.1356 -0.4788  1.1133
19234TIP3    H279194   1.554   2.839  12.089  1.7518  0.7905 -1.4537
19235TIP3   OH279195   4.507   5.611   1.179 -0.0346 -0.4757 -0.6247
19235TIP3    H179196   4.511   5.522   1.142  0.9288 -0.0629 -1.5899
19235TIP3    H279197   4.467   5.664   1.110 -0.0758 -0.0555 -0.2810
19236TIP3   OH279198   2.997   5.559   5.314  0.4162  0.1715 -0.6963
19236TIP3    H179199   3.075   5.506   5.295  0.5252  0.5835 -1.4610
19236TIP3    H279200   2.983   5.549   5.408  0.6713 -0.8879 -0.7558
19237TIP3   OH279201   3.146   0.362   1.589 -0.5771 -0.8714  0.2038
19237TIP3    H179202   3.125   0.306   1.514 -2.0301 -0.9814  0.6601
19237TIP3    H279203   3.125   0.308   1.666 -1.5288  0.0946  0.6540
19238TIP3   OH279204   2.936   4.046  12.633 -0.3671 -0.8945  0.3339
19238TIP3    H179205   3.016   4.092  12.607 -1.1324  1.8339  2.3552
19238TIP3    H279206   2.871   4.073  12.568 -0.1338 -1.5782 -0.1989
19239TIP3   OH279207   6.424   2.215  17.041  0.4285  0.0115 -0.2800
19239TIP3    H179208   6.461   2.183  16.959 -0.0060  1.2938 -1.0146
19239TIP3    H279209   6.346   2.265  17.014  1.5813  2.4614  0.6589
19240TIP3   OH279210   6.369   2.744   0.488  0.6578 -0.2557 -0.9987
19240TIP3    H179211   6.363   2.725   0.582 -3.4200 -1.0613 -1.2079
19240TIP3    H279212   6.412   2.667   0.451  1.8704 -0.1463  0.1119
19241TIP3   OH279213   1.270   6.291  13.325  0.7290  0.2645  0.2087
19241TIP3    H179214   1.181   6.266  13.300  0.8431 -0.2967  0.3347
19241TIP3    H279215   1.259   6.352  13.397  0.4581 -1.4378  1.6979
19242TIP3   OH279216   0.211   4.258  12.217 -0.2837  0.7392  0.3564
19242TIP3    H179217   0.169   4.196  12.276 -0.7657 -0.0084 -0.7256
19242TIP3    H279218   0.150   4.332  12.212 -0.2807  0.7648  0.7274
19243TIP3   OH279219   2.297   6.167  13.251 -0.1068 -0.6182  0.2864
19243TIP3    H179220   2.283   6.261  13.249  0.2186 -0.5818 -0.9459
19243TIP3    H279221   2.356   6.152  13.325 -0.4237  0.0982  0.6872
19244TIP3   OH279222   2.029   4.690   2.066  0.0022 -0.7907  0.1556
19244TIP3    H179223   1.953   4.686   2.008  0.3402 -1.0538 -0.2803
19244TIP3    H279224   2.065   4.601   2.064  0.9841 -0.3995 -0.5585
19245TIP3   OH279225   3.832   4.600  13.919  0.2485  0.0157 -0.4430
19245TIP3    H179226   3.758   4.558  13.961  0.6103  0.6312  0.8685
19245TIP3    H279227   3.866   4.661  13.985  3.1467 -1.6619 -0.1954
19246TIP3   OH279228   3.509   5.447   0.422  0.1120 -0.1921  0.6071
19246TIP3    H179229   3.428   5.484   0.457 -0.3189 -1.0736  0.5564
19246TIP3    H279230   3.481   5.381   0.359  0.8792  0.0785 -0.0272
19247TIP3   OH279231   0.263   1.313  13.140 -0.0464  0.4444  0.3574
19247TIP3    H179232   0.221   1.388  13.098 -1.0554 -0.4285 -0.2501
19247TIP3    H279233   0.213   1.299  13.220 -3.0228 -2.3612 -1.7008
19248TIP3   OH279234   1.893   3.412  12.029  0.0294 -0.5584  0.3330
19248TIP3    H179235   1.893   3.485  11.967  0.8725 -1.9989 -1.4586
19248TIP3    H279236   1.925   3.450  12.111 -0.3437  1.2338 -0.3183
19249TIP3   OH279237   0.270   1.474   2.189  0.4211  0.1702  0.2469
19249TIP3    H179238   0.256   1.568   2.205  2.0297  0.5451 -0.4197
19249TIP3    H279239   0.207   1.452   2.120  0.8832  1.0552 -0.4707
19250TIP3   OH279240   5.662   2.964  13.076  0.9180  0.7828 -0.0343
19250TIP3    H179241   5.682   2.918  12.994  1.2980 -0.0618  0.5183
19250TIP3    H279242   5.729   3.031  13.083  0.1469  1.7068 -1.0343
19251TIP3   OH279243   4.748   2.219   3.173 -0.4010 -0.1354  0.0031
19251TIP3    H179244   4.770   2.306   3.137 -0.1771  1.1438  2.9541
19251TIP3    H279245   4.662   2.231   3.213 -0.1657 -1.1455  0.8342
19252TIP3   OH279246   2.641   1.306   5.641  0.8190 -0.5427 -0.3909
19252TIP3    H179247   2.737   1.302   5.639  0.7882 -1.2305 -1.2793
19252TIP3    H279248   2.617   1.239   5.706  0.9182 -1.0515 -0.8705
19253TIP3   OH279249   2.901   5.187   1.710  0.2837  0.5779  0.0814
19253TIP3    H179250   2.854   5.270   1.716  1.9499  1.7626 -1.9479
19253TIP3    H279251   2.858   5.141   1.638 -0.8985 -0.5846  1.4607
19254TIP3   OH279252   1.104   5.375   5.207  0.4731 -0.1717  0.3378
19254TIP3    H179253   1.037   5.412   5.148  1.1286 -1.3651 -1.2077
19254TIP3    H279254   1.114   5.442   5.275 -0.9707  0.8600 -0.3959
19255TIP3   OH279255   1.776   4.799  13.591 -0.0426  0.3862  0.0604
19255TIP3    H179256   1.822   4.841  13.518  1.6169 -0.7123  0.4155
19255TIP3    H279257   1.812   4.841  13.669  2.3972 -2.1997  0.4829
19256TIP3   OH279258   4.715   3.566  16.120 -0.1703 -0.3357  0.0451
19256TIP3    H179259   4.688   3.588  16.209  2.1067  0.3443  0.6438
19256TIP3    H279260   4.792   3.510  16.132  0.7979  0.5891 -1.4330
19257TIP3   OH279261   1.228   1.651   5.480 -0.3138  0.1353 -0.2989
19257TIP3    H179262   1.229   1.697   5.564 -1.8719 -3.2630  1.7908
19257TIP3    H279263   1.318   1.619   5.469 -0.3310 -0.2558  0.6314
19258TIP3   OH279264   4.997   3.508   1.247  0.3199 -0.6164  0.4123
19258TIP3    H179265   5.091   3.521   1.264  0.2054  0.9779 -0.0439
19258TIP3    H279266   4.954   3.556   1.318 -0.1320  1.2582 -1.0563
19259TIP3   OH279267   2.808   3.269  13.334 -0.2048 -0.2041  0.9806
19259TIP3    H179268   2.801   3.193  13.391  0.2429 -0.5610  0.5623
19259TIP3    H279269   2.861   3.332  13.383  0.0209 -0.4352  1.0304
19260TIP3   OH279270   6.533   3.662   1.829 -0.1449  0.1028  0.4152
19260TIP3    H179271   6.605   3.621   1.876 -0.1756 -1.7416 -1.0664
19260TIP3    H279272   6.455   3.637   1.879 -0.1916 -1.9578 -0.6297
19261TIP3   OH279273   0.046   2.073  14.436  0.3460 -0.4292 -0.7157
19261TIP3    H179274  -0.046   2.096  14.428  0.3489  0.1427  0.6246
19261TIP3    H279275   0.090   2.155  14.456  0.9314 -0.9104  0.0692
19262TIP3   OH279276   2.432   4.590   2.646  0.0892 -0.5680 -0.0468
19262TIP3    H179277   2.341   4.591   2.673  0.2099  1.9490  0.4804
19262TIP3    H279278   2.479   4.550   2.719 -0.2254  1.2795  1.2249
19263TIP3   OH279279   6.744   6.414  11.345  0.6304  0.3778 -0.3732
19263TIP3    H179280   6.670   6.375  11.299  0.8721  0.3175 -0.7113
19263TIP3    H279281   6.820   6.393  11.291  0.9746 -0.0610  0.2611
19264TIP3   OH279282   4.880   3.035  11.599 -0.5286  0.3529 -0.1763
19264TIP3    H179283   4.918   3.008  11.683  0.1921  0.0509 -0.5904
19264TIP3    H279284   4.786   3.020  11.610 -0.3025 -1.0503  0.0864
19265TIP3   OH279285   3.742   0.375  12.856  0.0231 -0.3156  0.4266
19265TIP3    H179286   3.831   0.352  12.884  1.0805  2.0421 -0.6476
19265TIP3    H279287   3.745   0.367  12.760 -0.0053  2.3422  0.1351
19266TIP3   OH279288   4.636   1.336   5.354  0.4601  0.0551  0.3829
19266TIP3    H179289   4.591   1.420   5.367 -1.4500 -0.3705 -2.5961
19266TIP3    H279290   4.702   1.354   5.287 -0.6768 -0.9519 -1.0802
19267TIP3   OH279291   4.594   2.873  12.208  0.2748 -0.7138 -0.5136
19267TIP3    H179292   4.643   2.938  12.157 -2.4182  0.9919 -1.1047
19267TIP3    H279293   4.508   2.871  12.167 -1.1158 -1.4004  2.2335
19268TIP3   OH279294   3.846   2.389   4.254  0.0232 -0.0636  0.5578
19268TIP3    H179295   3.923   2.405   4.199  0.7485 -1.0194  1.2527
19268TIP3    H279296   3.841   2.464   4.312  0.4172  0.0168  0.4869
19269TIP3   OH279297   5.116   1.359  14.388 -0.2172 -0.3270 -0.0349
19269TIP3    H179298   5.200   1.388  14.424  0.6726 -0.9212 -1.5425
19269TIP3    H279299   5.113   1.266  14.409  0.0628 -0.5597 -0.9788
19270TIP3   OH279300   3.344   0.659  17.186 -0.1966  0.0728 -0.6900
19270TIP3    H179301   3.343   0.742  17.234 -0.0864  0.5233 -1.4509
19270TIP3    H279302   3.292   0.676  17.108 -1.1779 -0.9466 -0.2759
19271TIP3   OH279303   5.677   6.456   5.654 -0.1799 -0.4797 -0.4832
19271TIP3    H179304   5.615   6.529   5.645 -0.7519 -0.5332  2.1505
19271TIP3    H279305   5.757   6.498   5.684 -0.0410 -0.7896 -0.4291
19272TIP3   OH279306   0.974   4.737   0.088 -0.0135  0.4593 -1.0003
19272TIP3    H179307   1.041   4.716   0.022  0.5140  0.1874 -0.3940
19272TIP3    H279308   0.961   4.655   0.136 -0.1395  0.7427 -0.5452
19273TIP3   OH279309   0.340   5.050  15.429  0.1354 -0.5081 -0.0645
19273TIP3    H179310   0.385   5.112  15.487  0.2061 -0.1554 -0.4860
19273TIP3    H279311   0.282   5.105  15.376  0.0100 -0.8334 -0.2673
19274TIP3   OH279312   2.807   1.188  12.631  0.2616 -0.3927  0.3195
19274TIP3    H179313   2.738   1.253  12.618 -0.5773 -0.9536  1.6863
19274TIP3    H279314   2.829   1.157  12.543 -0.2501  0.7812 -0.2378
19275TIP3   OH279315   6.411   4.738  16.079 -0.5509  0.2097  0.7030
19275TIP3    H179316   6.368   4.797  16.016  1.2301 -0.0612 -0.8600
19275TIP3    H279317   6.406   4.785  16.162 -0.4852  1.9256 -0.2079
19276TIP3   OH279318   3.607   6.084  12.880 -0.3246 -0.3155 -0.6704
19276TIP3    H179319   3.542   6.037  12.827 -0.0959 -2.3541  0.7642
19276TIP3    H279320   3.675   6.019  12.899  0.2779  0.7224  0.9567
19277TIP3   OH279321   5.153   2.583   2.347 -0.0566 -0.4783 -0.3043
19277TIP3    H179322   5.103   2.665   2.345  0.2871 -0.2686 -1.2574
19277TIP3    H279323   5.237   2.607   2.387  0.0607 -0.3465 -0.6237
19278TIP3   OH279324   1.704   3.710  12.967  0.3134  0.5450 -0.4012
19278TIP3    H179325   1.794   3.741  12.964  0.1177  1.1155 -0.6118
19278TIP3    H279326   1.652   3.784  12.935 -0.2026  0.1250 -0.5612
19279TIP3   OH279327   1.829   0.802  16.802 -0.0421  0.2433  0.4997
19279TIP3    H179328   1.907   0.826  16.853 -0.4196  0.5272  0.9519
19279TIP3    H279329   1.856   0.814  16.711  0.0718  1.5481  0.6831
19280TIP3   OH279330   2.348   5.011  12.009 -0.7015 -0.2758  0.1720
19280TIP3    H179331   2.408   4.960  11.954 -0.6522 -1.4189  1.2260
19280TIP3    H279332   2.285   5.049  11.948 -0.6535 -1.5096 -0.6770
19281TIP3   OH279333   5.765   3.646  11.988 -0.1483  0.1650  0.2393
19281TIP3    H179334   5.707   3.572  12.004  0.9618 -0.5953  0.9573
19281TIP3    H279335   5.821   3.649  12.066  0.4323  1.1853 -0.1942
19282TIP3   OH279336   3.337   1.546  14.059 -0.3594 -0.2656 -0.2686
19282TIP3    H179337   3.313   1.457  14.083 -1.1901 -0.1055 -0.4846
19282TIP3    H279338   3.380   1.537  13.974 -0.6950 -0.4276 -0.4219
19283TIP3   OH279339   3.464   5.184   4.500  0.4066 -0.0746  0.9299
19283TIP3    H179340   3.547   5.205   4.543  0.8212 -0.1807  0.1953
19283TIP3    H279341   3.483   5.107   4.447 -0.2762 -0.3536  1.0826
19284TIP3   OH279342   0.228   0.980   0.622  0.2285 -0.1840 -0.1975
19284TIP3    H179343   0.241   1.067   0.660  0.4402 -0.3150  0.0361
19284TIP3    H279344   0.171   0.935   0.685  1.2251 -0.6701  0.3723
19285TIP3   OH279345   3.227   4.177  16.624 -0.0913  0.4060 -0.3521
19285TIP3    H179346   3.178   4.254  16.597 -0.7849  0.5775  1.2596
19285TIP3    H279347   3.162   4.120  16.665  0.7485 -0.1134  0.3178
19286TIP3   OH279348   4.298   2.458  16.685  0.2770 -0.4615  0.0534
19286TIP3    H179349   4.347   2.408  16.750  0.3629 -2.5210 -1.4695
19286TIP3    H279350   4.206   2.436  16.702 -0.2288  2.8308  2.4446
19287TIP3   OH279351   0.860   3.964   6.171 -0.2991 -0.5382 -0.2778
19287TIP3    H179352   0.876   3.897   6.237  2.1371 -0.4259 -0.6526
19287TIP3    H279353   0.889   4.045   6.213  0.8828 -0.4081 -1.2947
19288TIP3   OH279354   0.340   5.684   2.378  0.2497 -0.4334 -0.1606
19288TIP3    H179355   0.421   5.724   2.347  0.4404 -0.0667  0.7716
19288TIP3    H279356   0.273   5.714   2.317  0.2030  2.1472  0.9997
19289TIP3   OH279357   4.109   5.608   5.004  0.0537 -0.3643 -0.1658
19289TIP3    H179358   4.138   5.666   4.935 -2.5165 -0.1924 -1.2322
19289TIP3    H279359   4.102   5.522   4.963  1.8259 -1.0372  0.8472
19290TIP3   OH279360   5.117   1.414   0.385 -0.6710  0.5611  0.0159
19290TIP3    H179361   5.184   1.388   0.321 -0.1270 -0.6002  1.0126
19290TIP3    H279362   5.165   1.426   0.466 -1.6168  0.1110  0.6600
19291TIP3   OH279363   3.338   1.812   2.677 -0.1756 -0.0512 -0.4179
19291TIP3    H179364   3.399   1.774   2.614 -1.4567 -0.3285 -1.5606
19291TIP3    H279365   3.389   1.826   2.756  1.4601  0.1235 -1.4585
19292TIP3   OH279366   2.630   5.964   3.074 -0.3557  0.7195  0.1194
19292TIP3    H179367   2.634   5.908   2.996  2.1833  0.2246  0.5145
19292TIP3    H279368   2.620   6.053   3.039 -1.9698  0.2965 -0.6075
19293TIP3   OH279369   3.809   5.475   5.140 -0.5115  0.1507  0.0984
19293TIP3    H179370   3.880   5.426   5.180  0.3592  1.5938  0.3795
19293TIP3    H279371   3.828   5.566   5.159 -2.5886  0.5762  0.4012
19294TIP3   OH279372   5.585   0.865  13.671 -0.2172 -0.2068  0.2340
19294TIP3    H179373   5.663   0.818  13.643  0.1008 -0.9112  2.1833
19294TIP3    H279374   5.555   0.911  13.592  1.9572 -0.1788 -0.6371
19295TIP3   OH279375   2.549   3.740  17.205 -0.3078 -0.1698 -0.2383
19295TIP3    H179376   2.455   3.757  17.200 -0.6386 -1.6839  0.3596
19295TIP3    H279377   2.559   3.679  17.278  1.1418 -0.0271 -0.2821
19296TIP3   OH279378   5.342   4.461   4.067  0.3021 -0.2484  0.6839
19296TIP3    H179379   5.297   4.389   4.110  0.0729  0.0035  0.8696
19296TIP3    H279380   5.293   4.476   3.986  1.8117 -1.9479 -0.6345
19297TIP3   OH279381   2.115   0.688   0.090 -0.5612  0.3694  0.4841
19297TIP3    H179382   2.162   0.654   0.166 -0.1038 -0.1700 -0.0243
19297TIP3    H279383   2.023   0.669   0.109 -0.4562  0.2698  0.9165
19298TIP3   OH279384   5.853   2.662   0.807  0.1755  0.3178  0.2046
19298TIP3    H179385   5.886   2.699   0.889 -1.7425  2.3485  0.1496
19298TIP3    H279386   5.910   2.699   0.739  1.4549 -0.9766  0.5219
19299TIP3   OH279387   2.489   4.999   6.093  0.1684 -0.0053  0.1017
19299TIP3    H179388   2.561   5.006   6.030 -0.8334  1.2097 -0.9707
19299TIP3    H279389   2.454   5.087   6.099 -1.2574 -0.5742  0.5717
19300TIP3   OH279390   1.013   5.327  16.087  0.2865 -0.7227 -0.3120
19300TIP3    H179391   0.999   5.413  16.127  0.3784 -0.6085 -0.5231
19300TIP3    H279392   1.061   5.277  16.153  0.3035 -0.5851 -0.2203
19301TIP3   OH279393   0.594   2.401  14.596  0.3112 -0.5506 -0.1971
19301TIP3    H179394   0.515   2.350  14.613 -0.4244  0.7411  0.3985
19301TIP3    H279395   0.665   2.346  14.627 -0.3096 -1.8299 -0.9352
19302TIP3   OH279396   1.591   3.989   3.789 -0.2998  0.4246  0.0365
19302TIP3    H179397   1.618   3.900   3.764 -2.6871 -0.1048 -0.9101
19302TIP3    H279398   1.560   4.028   3.708 -1.8942  1.1114  0.9406
19303TIP3   OH279399   2.224   2.644   3.191  0.3035 -0.4214 -0.3311
19303TIP3    H179400   2.193   2.678   3.108  0.4126 -0.3263 -0.3329
19303TIP3    H279401   2.275   2.715   3.229 -1.1188  0.1526  0.5947
19304TIP3   OH279402   6.494   6.461  13.025  0.7939  0.4413 -0.2321
19304TIP3    H179403   6.532   6.374  13.014 -0.0408  0.1870 -1.2030
19304TIP3    H279404   6.557   6.520  12.983 -0.1537 -0.0487 -2.4515
19305TIP3   OH279405   1.214   2.746   3.370  0.0793 -0.4854 -0.3076
19305TIP3    H179406   1.138   2.708   3.325 -1.3964  0.2726  1.4280
19305TIP3    H279407   1.233   2.684   3.440  1.0432 -0.6216 -0.6811
19306TIP3   OH279408   6.388   3.393  11.212  0.6734  0.0335  0.4141
19306TIP3    H179409   6.431   3.423  11.132  1.1268  0.7194  0.9005
19306TIP3    H279410   6.304   3.358  11.183  0.9371  0.0524 -0.3871
19307TIP3   OH279411   1.753   0.857   0.403 -0.5167  0.2082 -0.2919
19307TIP3    H179412   1.769   0.924   0.337 -1.1837  0.5054 -0.1579
19307TIP3    H279413   1.700   0.901   0.469  1.6565  0.4976  1.4071
19308TIP3   OH279414   3.334   5.124  14.268  0.3158 -0.3525  0.3779
19308TIP3    H179415   3.361   5.174  14.345  0.6420 -1.0445  0.7245
19308TIP3    H279416   3.268   5.179  14.225  0.2982  0.1405  1.0228
19309TIP3   OH279417   0.800   4.682  15.788 -0.3643  0.2025 -0.1981
19309TIP3    H179418   0.777   4.614  15.724  0.3357  1.9177 -2.4275
19309TIP3    H279419   0.780   4.765  15.742  2.8607  1.6019  0.6662
19310TIP3   OH279420   6.053   0.712   2.170 -0.4951 -0.1248  0.1241
19310TIP3    H179421   6.100   0.701   2.253 -0.4524  0.8441  0.2439
19310TIP3    H279422   6.114   0.682   2.103  0.0916  0.5903  0.3269
19311TIP3   OH279423   5.715   2.456   0.448 -0.5151  0.0662  0.3337
19311TIP3    H179424   5.777   2.445   0.376 -1.1314 -0.0425 -0.1849
19311TIP3    H279425   5.650   2.517   0.414 -2.3722 -2.0974 -0.2570
19312TIP3   OH279426   2.230   5.334  13.570  0.5721 -0.5286 -0.4805
19312TIP3    H179427   2.187   5.415  13.599  1.5528 -0.0708 -0.2799
19312TIP3    H279428   2.290   5.312  13.641  1.5716 -0.4698 -1.2822
19313TIP3   OH279429   4.717   4.365   2.968  0.3635 -0.3931 -0.0587
19313TIP3    H179430   4.744   4.275   2.952 -1.9856 -0.9262 -1.6031
19313TIP3    H279431   4.628   4.358   3.003  0.2729  1.3104  0.1548
19314TIP3   OH279432   3.224   0.463  11.457 -0.1621  0.1134 -0.1046
19314TIP3    H179433   3.136   0.462  11.496 -0.3210 -1.9247 -0.3939
19314TIP3    H279434   3.279   0.423  11.524  0.0790 -0.8741 -0.8803
19315TIP3   OH279435   5.399   1.967  16.858  0.3245  0.0535  0.8605
19315TIP3    H179436   5.381   2.026  16.785 -0.5497  0.6145  1.5156
19315TIP3    H279437   5.315   1.925  16.876  0.6291 -0.3893  1.2738
19316TIP3   OH279438   6.226   0.528  11.981 -0.3333  0.5977  0.0861
19316TIP3    H179439   6.134   0.506  11.972 -0.5886  1.1393  1.1817
19316TIP3    H279440   6.246   0.514  12.073  0.9868 -0.5736 -0.3257
19317TIP3   OH279441   6.296   5.420  13.228  0.3832 -0.4722  0.1221
19317TIP3    H179442   6.303   5.365  13.150  3.2447 -0.6025  0.3619
19317TIP3    H279443   6.301   5.359  13.301 -0.4371 -0.1940  0.4226
19318TIP3   OH279444   2.948   4.531   6.909 -0.3450 -0.4323 -0.0830
19318TIP3    H179445   3.013   4.573   6.853 -0.7567 -0.5288 -0.6508
19318TIP3    H279446   2.872   4.519   6.852 -0.7505 -0.5995  0.4814
19319TIP3   OH279447   3.677   3.851  12.523  0.1038 -0.3679  0.3633
19319TIP3    H179448   3.625   3.891  12.592  1.8938 -1.0080  2.1983
19319TIP3    H279449   3.742   3.797  12.570  1.6851 -0.4946 -1.7968
19320TIP3   OH279450   2.057   5.885  14.336 -0.4810  0.0366 -0.0627
19320TIP3    H179451   2.005   5.965  14.327  2.8779  2.3468 -1.2655
19320TIP3    H279452   2.079   5.881  14.430 -0.1245  0.9514 -0.0996
19321TIP3   OH279453   4.883   4.190   6.392  0.1249  0.2475  0.3008
19321TIP3    H179454   4.863   4.264   6.451  1.1504 -1.5407  3.0814
19321TIP3    H279455   4.803   4.179   6.341 -0.7435  2.0960  1.1327
19322TIP3   OH279456   0.206   1.556   3.813 -0.7198 -0.0106 -0.4127
19322TIP3    H179457   0.277   1.509   3.771 -1.2366 -2.2698  1.0697
19322TIP3    H279458   0.213   1.534   3.906 -2.0323  1.5132  0.1111
19323TIP3   OH279459   1.362   1.841  12.044 -0.5686  0.0661 -0.2577
19323TIP3    H179460   1.316   1.870  12.123 -0.0031  1.5827 -0.4473
19323TIP3    H279461   1.424   1.775  12.075  0.1001  1.1045  0.6969
19324TIP3   OH279462   0.213   4.973  17.429  0.4132 -0.2921  0.4169
19324TIP3    H179463   0.297   4.955  17.387  0.3181 -0.6909  0.3923
19324TIP3    H279464   0.227   5.055  17.476 -0.1193  1.3809 -2.1383
19325TIP3   OH279465   3.486   1.584  13.404  0.0687  0.2288  0.1842
19325TIP3    H179466   3.466   1.493  13.428  0.5536  0.4126  1.3571
19325TIP3    H279467   3.450   1.636  13.477 -0.5723  1.0217 -0.6667
19326TIP3   OH279468   6.687   4.893   0.172  0.0842  0.9207  0.8041
19326TIP3    H179469   6.602   4.849   0.180 -0.1159  1.5868  2.7501
19326TIP3    H279470   6.740   4.832   0.120 -0.7700 -0.7806  1.8159
19327TIP3   OH279471   1.467   1.967   3.157  0.9267 -0.2163  0.7598
19327TIP3    H179472   1.455   1.939   3.248  1.7743 -0.6926  0.7365
19327TIP3    H279473   1.561   1.987   3.150  1.0464 -1.0545 -0.2352
19328TIP3   OH279474   3.384   0.391   3.366  0.1218  0.4366  0.6735
19328TIP3    H179475   3.337   0.309   3.383 -0.2565  0.2246 -1.1769
19328TIP3    H279476   3.316   0.451   3.334  1.0020  0.2324 -1.7342
19329TIP3   OH279477   0.542   2.392   5.503  0.2429  0.1800  0.2979
19329TIP3    H179478   0.476   2.344   5.454  0.3377  0.1172  0.2317
19329TIP3    H279479   0.507   2.396   5.592  0.8998 -1.2922  0.6516
19330TIP3   OH279480   5.422   4.389  12.695 -0.0763  0.1776  0.0770
19330TIP3    H179481   5.484   4.381  12.768  2.0217  0.9402 -1.5293
19330TIP3    H279482   5.346   4.434  12.733  1.4396  1.6547  1.5346
19331TIP3   OH279483   4.385   1.408  14.280  0.0352  0.6556 -0.6797
19331TIP3    H179484   4.405   1.464  14.205  0.9473  0.9036 -0.2617
19331TIP3    H279485   4.428   1.450  14.354 -2.2401  1.3640  0.3596
19332TIP3   OH279486   1.215   6.221  11.439  0.2587  0.0173  0.4857
19332TIP3    H179487   1.151   6.292  11.437  0.0428 -0.1609  0.9920
19332TIP3    H279488   1.212   6.188  11.528  0.1593 -0.8108  0.1836
19333TIP3   OH279489   2.275   1.084   4.024  0.4283  0.4278  0.5953
19333TIP3    H179490   2.187   1.111   4.052  0.4022  1.5561 -0.5053
19333TIP3    H279491   2.313   1.162   3.983  1.4367 -0.4169 -0.1481
19334TIP3   OH279492   2.695   3.565  12.207  0.4031 -0.0946  0.2070
19334TIP3    H179493   2.747   3.632  12.164  0.6879 -0.0397  0.6336
19334TIP3    H279494   2.604   3.594  12.196  0.5665  0.8838  1.2493
19335TIP3   OH279495   2.637   6.305  14.548  0.0914  0.2643  0.0388
19335TIP3    H179496   2.571   6.267  14.490  2.0932  0.0543 -2.3114
19335TIP3    H279497   2.675   6.229  14.593 -1.0796  0.3690  1.2606
19336TIP3   OH279498   0.689   5.414   3.352  0.4812  0.3295 -0.4109
19336TIP3    H179499   0.612   5.396   3.298  0.3226 -0.8748  0.1669
19336TIP3    H279500   0.763   5.408   3.292  0.4655 -2.6234 -0.3096
19337TIP3   OH279501   0.710   0.816   0.555  0.7922  0.0857  0.3294
19337TIP3    H179502   0.617   0.807   0.577  0.9871  0.8000  1.5169
19337TIP3    H279503   0.711   0.833   0.461 -0.2860  0.2307  0.3322
19338TIP3   OH279504   5.891   5.577   5.767  0.3228  0.2924  0.6083
19338TIP3    H179505   5.835   5.654   5.757 -0.9114 -0.3204  2.2639
19338TIP3    H279506   5.891   5.536   5.681 -1.6359  0.4437  0.4932
19339TIP3   OH279507   4.421   1.336   3.951  0.1545  0.6803  0.1117
19339TIP3    H179508   4.391   1.322   4.041  0.0570 -1.8487 -0.2268
19339TIP3    H279509   4.513   1.308   3.952  0.4663  1.6421 -0.3733
19340TIP3   OH279510   1.295   1.895   0.993  0.5641 -0.4955 -0.2463
19340TIP3    H179511   1.275   1.943   1.074  1.2529 -0.6160  0.0041
19340TIP3    H279512   1.379   1.852   1.011 -0.1393 -1.9770 -0.3820
19341TIP3   OH279513   4.804   0.903   1.487  0.0417 -0.5246  0.1879
19341TIP3    H179514   4.731   0.868   1.435 -0.0832 -0.9436  0.6401
19341TIP3    H279515   4.820   0.836   1.553 -1.2516  0.9696  2.0963
19342TIP3   OH279516   2.405   3.968  11.750 -0.3432  0.3421  0.0273
19342TIP3    H179517   2.488   4.017  11.751  0.9199 -1.6494  1.2214
19342TIP3    H279518   2.346   4.020  11.805  0.4615  1.2587  0.0536
19343TIP3   OH279519   4.130   1.128  11.112  0.2671  0.4118  0.0198
19343TIP3    H179520   4.077   1.201  11.080 -0.7740  0.1137  0.9940
19343TIP3    H279521   4.073   1.052  11.104  1.6112 -0.4897 -1.7487
19344TIP3   OH279522   4.350   0.753   1.501 -0.1784 -0.4522  0.0826
19344TIP3    H179523   4.352   0.822   1.567 -2.2770  0.0176 -0.2721
19344TIP3    H279524   4.268   0.706   1.517  0.3261 -1.7161 -0.8363
19345TIP3   OH279525   4.782   4.652  14.245 -0.0023  0.2331 -0.5258
19345TIP3    H179526   4.750   4.732  14.204  0.0746 -0.4892 -2.0674
19345TIP3    H279527   4.702   4.605  14.271 -0.1059  0.0855 -1.0926
19346TIP3   OH279528   3.571   1.579  12.713 -0.2872  0.1506  0.6893
19346TIP3    H179529   3.539   1.657  12.668 -0.2482  0.6091  1.4292
19346TIP3    H279530   3.647   1.551  12.663 -0.7086  0.1857  0.0244
19347TIP3   OH279531   4.149   6.531  11.946  0.2407 -0.0560  0.0273
19347TIP3    H179532   4.103   6.448  11.935 -0.4051  0.1848  0.8559
19347TIP3    H279533   4.083   6.592  11.980  1.1635  0.2766  1.3060
19348TIP3   OH279534   1.916   2.669  12.763 -0.4460  0.3125  0.3517
19348TIP3    H179535   1.919   2.633  12.852  0.9441 -1.3057 -0.3007
19348TIP3    H279536   1.879   2.599  12.710 -0.3561  0.9015 -0.5093
19349TIP3   OH279537   5.771   3.026   0.764  0.5516 -0.2101  0.5431
19349TIP3    H179538   5.803   2.936   0.755  1.8773  0.4000 -1.9449
19349TIP3    H279539   5.845   3.080   0.737 -0.6357  1.5673  0.7239
19350TIP3   OH279540   1.585   1.763   0.880 -0.0827 -0.2081 -0.1319
19350TIP3    H179541   1.549   1.744   0.794 -0.5716 -0.6504  0.1617
19350TIP3    H279542   1.674   1.727   0.878 -1.3222 -3.7240  0.7671
19351TIP3   OH279543   0.908   4.414  16.137  0.3704  0.5752  0.3100
19351TIP3    H179544   0.864   4.348  16.190  0.9788 -1.4575 -1.5754
19351TIP3    H279545   0.837   4.462  16.095 -0.0864  1.3538  1.8865
19352TIP3   OH279546   1.386   3.360  14.147 -0.2344 -0.1477  0.0039
19352TIP3    H179547   1.315   3.296  14.149  0.2231 -0.9773 -3.1744
19352TIP3    H279548   1.363   3.425  14.213 -2.5075 -1.8011  0.9678
19353TIP3   OH279549   2.520   2.158   2.500 -0.4700 -0.0915  0.3020
19353TIP3    H179550   2.513   2.124   2.589  0.3953  0.4884  0.6131
19353TIP3    H279551   2.473   2.242   2.503 -1.2792 -0.5240 -0.0543
19354TIP3   OH279552   2.046   6.057   3.047  0.5401  0.3077 -0.1274
19354TIP3    H179553   2.087   6.014   2.972  0.3622  0.2515 -0.1935
19354TIP3    H279554   1.994   5.988   3.089  0.1000  0.5005 -0.3458
19355TIP3   OH279555   5.485   4.801   2.240  0.1516 -0.1896 -0.1580
19355TIP3    H179556   5.441   4.883   2.262  0.1674 -0.5257  1.2302
19355TIP3    H279557   5.419   4.751   2.192  0.3422  0.8501 -1.5731
19356TIP3   OH279558   6.535   3.248   0.650  0.3201  0.0679  0.3583
19356TIP3    H179559   6.611   3.283   0.604 -0.1196 -1.0686 -1.3261
19356TIP3    H279560   6.469   3.317   0.643  0.6998  0.4585  0.5327
19357TIP3   OH279561   0.955   0.703  15.436  0.6968  0.2784 -0.1588
19357TIP3    H179562   0.864   0.695  15.408  0.5730  0.8070  0.0772
19357TIP3    H279563   0.985   0.784  15.395  1.0940  0.0564 -0.3139
19358TIP3   OH279564   2.663   3.685   0.182 -0.2876  0.0581 -0.3776
19358TIP3    H179565   2.696   3.692   0.272 -1.4048  0.7479  0.0165
19358TIP3    H279566   2.690   3.767   0.140 -5.0372  2.9447  1.2920
19359TIP3   OH279567   0.810   5.322   1.827 -0.4827 -0.4172  0.1777
19359TIP3    H179568   0.764   5.399   1.860  0.2306  1.0571 -2.0171
19359TIP3    H279569   0.828   5.269   1.905 -1.0063  1.6269  1.7757
19360TIP3   OH279570   2.364   1.692  13.604 -0.2135 -0.1708 -0.0440
19360TIP3    H179571   2.322   1.718  13.521 -0.7021 -0.4587  0.1143
19360TIP3    H279572   2.416   1.615  13.581  1.3023  0.9311 -0.5341
19361TIP3   OH279573   3.722   2.760   0.050  0.0804  0.3145  0.2276
19361TIP3    H179574   3.757   2.735  -0.036 -1.4095 -1.9100  0.1552
19361TIP3    H279575   3.632   2.788   0.031  0.2083  1.2248  0.9211
19362TIP3   OH279576   1.611   4.389  17.254  0.6787 -0.0692 -0.1067
19362TIP3    H179577   1.585   4.298  17.243 -0.9705  0.4996 -1.4048
19362TIP3    H279578   1.650   4.413  17.170 -1.9164  1.2686 -1.0685
19363TIP3   OH279579   3.159   5.308   5.534 -0.3034 -0.1630 -0.0327
19363TIP3    H179580   3.139   5.235   5.593 -1.3357 -0.1632 -0.3631
19363TIP3    H279581   3.084   5.367   5.543  0.2007  0.5260 -0.2870
19364TIP3   OH279582   1.570   5.234   2.023  0.4380  0.1712  0.4309
19364TIP3    H179583   1.488   5.283   2.031  0.0400 -0.2019 -1.0581
19364TIP3    H279584   1.624   5.265   2.095 -0.9291  0.5899  1.3079
19365TIP3   OH279585   3.484   1.965   5.726  0.1417 -0.0111 -0.3954
19365TIP3    H179586   3.498   1.957   5.632  0.5279 -1.0691 -0.2593
19365TIP3    H279587   3.567   2.000   5.759  1.4967 -3.2488 -0.0002
19366TIP3   OH279588   5.039   6.084   1.685  0.2250  0.1491  0.4437
19366TIP3    H179589   4.955   6.052   1.719  0.0714 -0.7242 -0.6945
19366TIP3    H279590   5.093   6.006   1.678  1.2883  0.7676  1.5405
19367TIP3   OH279591   2.655   6.239   6.223  0.0420 -0.7473  0.0387
19367TIP3    H179592   2.636   6.330   6.198 -0.8517 -0.9613 -0.0592
19367TIP3    H279593   2.573   6.206   6.258  0.5719 -1.2930  0.7829
19368TIP3   OH279594   6.208   1.318   4.530  0.0136  0.1128 -0.0766
19368TIP3    H179595   6.159   1.380   4.477  0.5298  0.3880 -0.2387
19368TIP3    H279596   6.174   1.330   4.619 -1.4902 -0.9806 -0.4598
19369TIP3   OH279597   4.048   4.855  15.621 -0.3217 -0.1195 -0.1957
19369TIP3    H179598   4.119   4.893  15.673 -1.1531  0.5570  0.4782
19369TIP3    H279599   4.064   4.886  15.532  1.5664 -1.9280 -0.5489
19370TIP3   OH279600   1.437   1.013  16.211  0.3273 -0.0601 -0.4696
19370TIP3    H179601   1.350   1.035  16.245  0.1964 -0.2039 -0.7086
19370TIP3    H279602   1.478   0.962  16.281  0.1859 -0.0701 -0.3937
19371TIP3   OH279603   4.955   4.458   4.227  0.3287 -0.1612  0.6789
19371TIP3    H179604   4.970   4.543   4.184 -1.2869  0.9999  2.2377
19371TIP3    H279605   5.029   4.449   4.287  0.2425  0.4093  0.8795
19372TIP3   OH279606   6.252   1.543   3.764 -0.5201  0.3888  0.0218
19372TIP3    H179607   6.162   1.572   3.780 -0.5069  1.3262 -1.4374
19372TIP3    H279608   6.300   1.623   3.742  0.6143 -0.1402  0.4703
19373TIP3   OH279609   4.884   3.942   1.632  0.4195 -0.4205 -0.3789
19373TIP3    H179610   4.977   3.964   1.643  0.0816  0.6917  0.4348
19373TIP3    H279611   4.864   3.884   1.704 -0.3359  2.1512  1.6337
19374TIP3   OH279612   3.923   3.031  14.553 -0.1204  0.3156 -0.1978
19374TIP3    H179613   4.010   2.991  14.549  0.1650  0.9986 -2.2916
19374TIP3    H279614   3.941   3.125  14.565 -0.6497  0.3013  0.8356
19375TIP3   OH279615   3.688   3.523   1.152 -0.1804  0.4883 -0.1518
19375TIP3    H179616   3.664   3.493   1.240  0.9577  1.6605  0.5869
19375TIP3    H279617   3.720   3.612   1.164  2.2335 -0.1126 -1.4035
19376TIP3   OH279618   2.469   0.276  12.465  0.0820 -0.4389 -0.8099
19376TIP3    H179619   2.517   0.306  12.387  0.4370  0.5386 -0.2398
19376TIP3    H279620   2.530   0.220  12.511 -0.7698 -2.5843 -2.1589
19377TIP3   OH279621   5.812   0.436  16.211  0.3887  0.3311 -0.0643
19377TIP3    H179622   5.759   0.431  16.291  1.1392  1.0504  0.5054
19377TIP3    H279623   5.892   0.388  16.232  1.3513  1.9804  0.2809
19378TIP3   OH279624   2.333   3.253   5.488 -0.0271  0.2523 -0.1585
19378TIP3    H179625   2.309   3.205   5.567  0.4189  0.8606  0.3507
19378TIP3    H279626   2.280   3.213   5.419  0.9298 -1.5341  0.0815
19379TIP3   OH279627   2.748   5.043   1.508 -0.0176 -0.1285 -0.1384
19379TIP3    H179628   2.776   4.984   1.438 -1.3875  0.1383 -0.9576
19379TIP3    H279629   2.672   4.999   1.546  0.2197  0.1270  0.6389
19380TIP3   OH279630   0.242   4.810   6.037 -0.1470  0.2158  0.5788
19380TIP3    H179631   0.292   4.820   5.956 -0.4285 -0.3719  0.3285
19380TIP3    H279632   0.155   4.845   6.017 -0.4973 -0.7800  0.3402
19381TIP3   OH279633   1.717   4.958  14.992 -0.3267  0.3671  0.1747
19381TIP3    H179634   1.673   4.946  15.076  0.7545  0.6839  0.8010
19381TIP3    H279635   1.704   4.875  14.946  0.9028 -0.6328  1.5441
19382TIP3   OH279636   3.715   0.976   0.570  0.4105 -0.4380  0.0846
19382TIP3    H179637   3.668   1.059   0.580  2.0861  0.5462  0.0755
19382TIP3    H279638   3.708   0.955   0.477  1.7643  0.8300 -0.3427
19383TIP3   OH279639   5.002   1.767  11.276  0.0962 -0.2755  0.2264
19383TIP3    H179640   5.075   1.829  11.263  1.5693 -1.8935  0.4173
19383TIP3    H279641   4.926   1.812  11.239  1.2204  1.3797 -0.2156
19384TIP3   OH279642   2.206   1.573  13.159  0.3203  0.6560  0.3215
19384TIP3    H179643   2.291   1.539  13.188  0.4491  0.3018 -0.4387
19384TIP3    H279644   2.144   1.506  13.185  0.4247  0.3772 -0.1368
19385TIP3   OH279645   1.454   1.648  13.291 -0.6687  0.2985 -0.3169
19385TIP3    H179646   1.496   1.567  13.321 -1.0628  0.6910  1.4438
19385TIP3    H279647   1.526   1.708  13.274 -0.4204  0.1826  0.2821
19386TIP3   OH279648   1.845   5.505  16.503 -0.0506 -0.0485 -0.7095
19386TIP3    H179649   1.814   5.415  16.493  0.7595 -0.3090 -1.0093
19386TIP3    H279650   1.940   5.496  16.513 -0.2381  0.5015  2.7316
19387TIP3   OH279651   1.757   1.936  12.841 -0.8126 -0.2322  0.2960
19387TIP3    H179652   1.705   1.958  12.918  1.2522  0.6031  1.5240
19387TIP3    H279653   1.766   1.841  12.844 -0.6400 -0.1951  1.1829
19388TIP3   OH279654   4.524   2.843  14.816  0.3464 -0.2552 -0.4194
19388TIP3    H179655   4.457   2.775  14.803  0.6290 -0.5061 -0.5685
19388TIP3    H279656   4.525   2.856  14.911  0.3842 -0.5549 -0.3755
19389TIP3   OH279657   0.394   1.956   5.865  0.7137  0.6298 -0.1496
19389TIP3    H179658   0.399   1.986   5.956 -0.2285  0.0012  0.1278
19389TIP3    H279659   0.371   2.034   5.815 -3.5576  0.2261  0.7808
19390TIP3   OH279660   0.188   4.829   0.885  0.1499  0.4222  0.2694
19390TIP3    H179661   0.152   4.910   0.849 -0.9321  0.5166  1.4981
19390TIP3    H279662   0.209   4.776   0.808 -2.1153  0.6053 -0.5406
19391TIP3   OH279663   6.217   4.394   1.983  0.6259 -0.5032  0.2494
19391TIP3    H179664   6.247   4.482   2.003 -1.0094  0.1147  0.1177
19391TIP3    H279665   6.276   4.364   1.913  0.5166  0.9204 -0.4959
19392TIP3   OH279666   0.516   2.109   0.965  0.3790 -0.3046  0.0521
19392TIP3    H179667   0.471   2.033   0.929  0.4229  0.2926 -1.3451
19392TIP3    H279668   0.574   2.138   0.895 -1.7069  2.7054 -0.6228
19393TIP3   OH279669   3.908   0.749  15.371 -0.0639 -0.1985  0.5322
19393TIP3    H179670   3.989   0.718  15.412  0.6760 -0.5128 -1.1022
19393TIP3    H279671   3.842   0.685  15.397  0.7742 -1.3995 -0.2063
19394TIP3   OH279672   2.176   1.755  11.474 -0.9280  0.1858  0.3770
19394TIP3    H179673   2.143   1.703  11.548  1.1711 -1.3919  0.3023
19394TIP3    H279674   2.219   1.691  11.417  1.7987  1.9369  0.2711
19395TIP3   OH279675   5.132   1.604  14.700  0.0670  0.1937  0.4790
19395TIP3    H179676   5.058   1.572  14.648 -0.4587  1.3078  0.5005
19395TIP3    H279677   5.195   1.532  14.699 -0.5034 -0.3181 -0.5539
19396TIP3   OH279678   0.554   0.595   0.175 -0.2141  0.1078 -0.1097
19396TIP3    H179679   0.649   0.605   0.169 -0.0193 -1.1384  0.5170
19396TIP3    H279680   0.533   0.622   0.265 -0.4068  0.0341 -0.1323
19397TIP3   OH279681   5.431   4.041  13.935 -0.0991 -0.0242 -0.1275
19397TIP3    H179682   5.500   4.067  13.996 -0.3380  1.0120 -0.2811
19397TIP3    H279683   5.426   3.946  13.943  1.3234 -0.1060 -0.0944
19398TIP3   OH279684   5.490   3.655  16.710  0.1998  0.5811  0.6617
19398TIP3    H179685   5.460   3.679  16.797 -0.8961  1.7778 -0.0216
19398TIP3    H279686   5.469   3.562  16.702 -2.0869  1.0383  0.7508
19399TIP3   OH279687   3.284   6.032  12.213  0.1246  0.6460  0.2860
19399TIP3    H179688   3.212   5.990  12.260  0.7872 -0.1771  0.5968
19399TIP3    H279689   3.327   5.961  12.166 -0.6234  1.4705 -1.7571
19400TIP3   OH279690   5.794   4.400  16.050 -0.3101  0.0883 -0.0146
19400TIP3    H179691   5.722   4.339  16.035 -0.6248  0.0999  1.3417
19400TIP3    H279692   5.810   4.440  15.964 -1.0675 -0.8294 -0.6022
19401TIP3   OH279693   3.630   4.716  17.225 -0.5319 -0.1203  0.3195
19401TIP3    H179694   3.586   4.684  17.304  1.6063  0.0797  1.6930
19401TIP3    H279695   3.706   4.659  17.215 -0.6828 -0.0494 -1.5610
19402TIP3   OH279696   1.912   0.972  13.123  0.2814  0.4674  0.1345
19402TIP3    H179697   1.987   0.934  13.078  1.0158 -0.2942  1.8730
19402TIP3    H279698   1.835   0.936  13.078  0.9715 -0.7236 -0.1272
19403TIP3   OH279699   6.710   3.245   1.533 -0.3644 -0.0023 -0.2943
19403TIP3    H179700   6.698   3.329   1.577  1.4423 -0.4270  1.1421
19403TIP3    H279701   6.796   3.252   1.491  0.2804 -1.4537  0.6963
19404TIP3   OH279702   1.490   4.476   1.985 -0.0773 -0.8190 -0.1740
19404TIP3    H179703   1.545   4.471   1.907 -1.4983  1.0131 -1.3892
19404TIP3    H279704   1.411   4.427   1.963 -0.6776  0.0794 -0.0896
19405TIP3   OH279705   4.125   6.553   1.766 -0.2204 -0.4471  0.1498
19405TIP3    H179706   4.052   6.498   1.738  1.3951 -1.4992 -2.3349
19405TIP3    H279707   4.174   6.497   1.826  0.9158 -1.5121 -1.6641
19406TIP3   OH279708   1.864   0.687   1.140 -0.3415  0.1232  0.5302
19406TIP3    H179709   1.905   0.618   1.191  0.2276  1.1769  1.5433
19406TIP3    H279710   1.779   0.702   1.182  0.6249  1.8278  1.9994
19407TIP3   OH279711   5.414   3.881  10.821  0.5269  0.2215  0.1826
19407TIP3    H179712   5.372   3.810  10.869  1.8623 -1.6398 -1.2367
19407TIP3    H279713   5.379   3.873  10.732  0.4205  1.6054  0.0813
19408TIP3   OH279714   5.501   5.593   3.651 -0.3919 -0.0123  0.5305
19408TIP3    H179715   5.583   5.625   3.686  0.6274 -0.9111 -0.9172
19408TIP3    H279716   5.435   5.653   3.685  0.8900  0.9328  1.4463
19409TIP3   OH279717   0.697   4.334   5.551 -0.6759 -0.1006  0.2580
19409TIP3    H179718   0.638   4.402   5.583 -2.2587 -1.9527  1.5888
19409TIP3    H279719   0.693   4.341   5.456 -0.7905  1.6471  0.3728
19410TIP3   OH279720   1.971   3.561  14.814 -0.1638  0.3922 -0.0283
19410TIP3    H179721   1.957   3.546  14.908 -0.3443 -1.8619 -0.3635
19410TIP3    H279722   1.996   3.654  14.808 -0.4234  0.6620  2.1981
19411TIP3   OH279723   2.325   0.608  11.210  0.4858 -0.1476  0.2807
19411TIP3    H179724   2.305   0.548  11.138 -0.9274  0.1176  0.4110
19411TIP3    H279725   2.345   0.552  11.284 -0.5286 -0.4807  0.3220
19412TIP3   OH279726   3.417   1.000   5.017 -0.4905 -0.2551  0.1508
19412TIP3    H179727   3.364   1.076   4.993  0.7508  0.4291 -0.5241
19412TIP3    H279728   3.502   1.017   4.978  0.1724 -1.4374  1.0257
19413TIP3   OH279729   1.496   5.967  15.500  0.0500  0.0623  0.4892
19413TIP3    H179730   1.556   6.007  15.563  1.8873 -0.1550 -1.0392
19413TIP3    H279731   1.519   5.874  15.502  0.0736  0.0410 -0.4173
19414TIP3   OH279732   1.678   4.651  11.216 -0.0928 -0.3690 -0.5075
19414TIP3    H179733   1.676   4.743  11.189 -0.8297 -0.3333 -0.3466
19414TIP3    H279734   1.673   4.602  11.135  1.4662 -0.2859 -0.6842
19415TIP3   OH279735   2.918   4.458   4.651  0.1799 -0.1135 -0.1058
19415TIP3    H179736   2.826   4.434   4.668 -0.7915  1.7548 -2.1877
19415TIP3    H279737   2.953   4.384   4.601  0.0691 -1.1583  1.2990
19416TIP3   OH279738   6.456   1.014  17.029 -0.0890  0.0560 -0.0617
19416TIP3    H179739   6.525   1.038  16.968 -1.9022 -0.2742 -2.3918
19416TIP3    H279740   6.377   1.005  16.975 -1.4481 -2.0913  2.0189
19417TIP3   OH279741   0.840   3.243  12.047 -0.1897  0.3881 -0.0692
19417TIP3    H179742   0.884   3.260  11.963 -0.8033 -1.4200 -0.7978
19417TIP3    H279743   0.902   3.274  12.113  0.6171  1.1804 -1.1620
19418TIP3   OH279744   4.878   5.028   0.486  0.4001  0.0421  0.6298
19418TIP3    H179745   4.895   5.115   0.521  2.0486 -0.2684  0.7127
19418TIP3    H279746   4.801   4.997   0.534  0.2408  1.1602  1.1200
19419TIP3   OH279747   1.847   3.234   5.260 -0.1983 -0.1194  0.1855
19419TIP3    H179748   1.865   3.315   5.306  0.1419  0.6237 -1.1942
19419TIP3    H279749   1.756   3.243   5.230  0.5700  0.8784 -2.0588
19420TIP3   OH279750   4.081   0.095   3.413  0.6833 -0.8473  0.0178
19420TIP3    H179751   4.072   0.127   3.503  1.3128 -0.1418 -0.1625
19420TIP3    H279752   3.992   0.072   3.387  0.5510 -1.4393  0.9595
19421TIP3   OH279753   3.025   1.534   2.091 -0.1731 -0.1859  0.0248
19421TIP3    H179754   2.955   1.558   2.030 -0.9238  0.3595  1.0618
19421TIP3    H279755   3.100   1.587   2.064  0.1986 -1.5429 -1.7567
19422TIP3   OH279756   1.453   5.930   1.314 -0.3520  0.4217 -0.4067
19422TIP3    H179757   1.411   5.899   1.394 -3.7926  0.2300 -2.0837
19422TIP3    H279758   1.494   6.013   1.339  1.1461 -0.9339  2.0821
19423TIP3   OH279759   1.428   3.436   2.604 -0.7081  0.8325  0.1412
19423TIP3    H179760   1.493   3.428   2.535 -2.4336  0.0872 -1.4783
19423TIP3    H279761   1.459   3.378   2.673 -1.1823 -2.0595 -1.9121
19424TIP3   OH279762   4.092   2.285   1.501 -0.8491  0.3496 -0.4153
19424TIP3    H179763   4.049   2.365   1.530 -1.3271  0.5515 -1.6015
19424TIP3    H279764   4.037   2.215   1.535  0.0022  0.4718  1.3018
19425TIP3   OH279765   2.047   6.407   3.014  0.2081 -0.0001 -0.3059
19425TIP3    H179766   2.025   6.396   3.107 -0.0090  2.7566  0.0700
19425TIP3    H279767   2.131   6.362   3.004  1.8003  2.1101  2.0718
19426TIP3   OH279768   6.553   5.978  13.509  0.2920 -0.0989 -0.9627
19426TIP3    H179769   6.472   5.960  13.557  1.8201  0.3313  2.0347
19426TIP3    H279770   6.585   5.892  13.482 -0.4416 -0.3889 -0.9346
19427TIP3   OH279771   1.445   2.178   4.287 -0.6534  0.1567 -0.1776
19427TIP3    H179772   1.399   2.110   4.237 -1.7089 -0.6230  1.7265
19427TIP3    H279773   1.536   2.171   4.258 -0.8184 -1.8016 -0.3642
19428TIP3   OH279774   6.145   1.649   3.478  0.2762  0.0238 -0.1671
19428TIP3    H179775   6.103   1.577   3.525  0.5247 -0.4968 -0.7218
19428TIP3    H279776   6.076   1.715   3.469 -0.2669 -0.5878 -0.5729
19429TIP3   OH279777   3.176   4.177  14.634  0.0252  0.5138 -0.8730
19429TIP3    H179778   3.245   4.181  14.568 -1.8589 -1.4195 -3.1457
19429TIP3    H279779   3.182   4.088  14.669  0.0132  1.0336  0.5114
19430TIP3   OH279780   6.458   1.952   3.158 -0.1621 -0.2356 -0.2041
19430TIP3    H179781   6.399   1.943   3.232 -0.5836  1.2742 -0.3078
19430TIP3    H279782   6.422   1.895   3.090 -0.5649 -0.5621  0.2805
19431TIP3   OH279783   4.207   1.046   4.814 -0.2332  0.0780 -0.4601
19431TIP3    H179784   4.258   0.975   4.775  0.1237  0.6849 -1.1245
19431TIP3    H279785   4.144   1.002   4.870  0.5267 -0.7302 -0.2067
19432TIP3   OH279786   2.691   2.450  17.509  0.0340 -0.1645 -0.1230
19432TIP3    H179787   2.774   2.497  17.522  0.1801 -0.2087 -0.8823
19432TIP3    H279788   2.668   2.466  17.418 -0.7996 -0.1538  0.0850
19433TIP3   OH279789   4.220   0.777  16.813  0.0513 -0.1246  0.3228
19433TIP3    H179790   4.253   0.864  16.836  1.7986 -0.0741 -2.0128
19433TIP3    H279791   4.167   0.792  16.735 -0.5957 -1.0245  0.5767
19434TIP3   OH279792   2.766   0.795   5.109  0.6383 -0.4377  0.3417
19434TIP3    H179793   2.769   0.719   5.052  2.7327  1.7991 -2.8728
19434TIP3    H279794   2.854   0.801   5.146  0.6368  0.6240  0.2009
19435TIP3   OH279795   6.078   5.082  13.004 -0.1849 -0.4019 -0.4317
19435TIP3    H179796   6.061   5.119  13.091  0.3596  1.2682 -1.0062
19435TIP3    H279797   6.006   5.114  12.950  1.3768  1.6288 -1.4273
19436TIP3   OH279798   2.499   4.210  16.116  0.4291  0.1995  0.2360
19436TIP3    H179799   2.477   4.273  16.185  2.0468 -0.3740  1.3317
19436TIP3    H279800   2.483   4.258  16.035  0.5091  1.6485  1.0330
19437TIP3   OH279801   4.136   2.562   1.157 -0.1138 -0.5092  0.0222
19437TIP3    H179802   4.184   2.495   1.206  1.3985  1.0193  0.7441
19437TIP3    H279803   4.148   2.537   1.065  1.5030 -0.5601  0.2218
19438TIP3   OH279804   1.293   0.382   2.484 -0.2105  0.4781 -0.7973
19438TIP3    H179805   1.363   0.418   2.430 -0.2914  0.4774 -0.9045
19438TIP3    H279806   1.288   0.289   2.459 -0.1874  0.4567 -0.7231
19439TIP3   OH279807   5.638   0.841  14.771  0.2606  0.1122 -0.3344
19439TIP3    H179808   5.580   0.792  14.830  0.0376  0.7895  0.0240
19439TIP3    H279809   5.588   0.921  14.751  0.6546  0.2332 -0.8338
19440TIP3   OH279810   5.692   3.800  12.988 -0.5355  0.1579  0.3576
19440TIP3    H179811   5.757   3.783  12.919  0.0105  1.5333  0.4971
19440TIP3    H279812   5.624   3.734  12.973  0.3916 -0.6616 -0.4308
19441TIP3   OH279813   5.785   1.148   4.964 -0.3306  0.0206 -0.9065
19441TIP3    H179814   5.837   1.132   4.885  0.1511  1.2367 -0.8492
19441TIP3    H279815   5.849   1.176   5.029 -0.8019 -0.4343 -0.2422
19442TIP3   OH279816   0.211   2.113   4.594  0.0113 -0.8270 -0.2736
19442TIP3    H179817   0.198   2.193   4.543  0.9149 -0.7462 -0.4035
19442TIP3    H279818   0.132   2.104   4.647 -0.2608 -0.0549 -0.5416
19443TIP3   OH279819   3.573   0.392  12.270 -0.3524 -0.4321 -0.3606
19443TIP3    H179820   3.542   0.346  12.348 -0.6855  1.7947  0.9175
19443TIP3    H279821   3.495   0.404  12.217 -0.1507 -1.8229 -1.0301
19444TIP3   OH279822   6.695   3.075   6.406 -0.1572 -0.7984  0.1497
19444TIP3    H179823   6.605   3.051   6.380 -0.6288 -0.9073  1.7732
19444TIP3    H279824   6.745   2.994   6.396 -0.0310 -0.5639 -1.4705
19445TIP3   OH279825   5.529   4.707  11.484  0.9301 -0.4521 -0.4854
19445TIP3    H179826   5.570   4.624  11.506  2.6786 -0.0055 -1.8181
19445TIP3    H279827   5.573   4.735  11.404 -1.8775  0.2107 -1.9283
19446TIP3   OH279828   5.583   2.896  12.305  0.3900  0.1542 -0.0326
19446TIP3    H179829   5.675   2.875  12.288 -0.3661 -2.0847 -1.7263
19446TIP3    H279830   5.564   2.855  12.389  0.7325 -0.0185 -0.0372
19447TIP3   OH279831   1.634   4.319   2.589 -0.3622  0.1418 -0.3605
19447TIP3    H179832   1.640   4.241   2.645 -1.8187  0.2259 -0.0488
19447TIP3    H279833   1.613   4.284   2.502  0.2505  0.1210 -0.5070
19448TIP3   OH279834   4.854   4.767  11.885 -0.0043  0.0164  0.6068
19448TIP3    H179835   4.901   4.732  11.960  0.3248 -0.9428 -0.0288
19448TIP3    H279836   4.817   4.690  11.841 -1.6359  0.6862  0.7263
19449TIP3   OH279837   4.486   3.811   2.879  0.1196  0.1895  0.5368
19449TIP3    H179838   4.487   3.903   2.906 -0.3038  0.5875 -0.7244
19449TIP3    H279839   4.491   3.814   2.784 -0.2903 -1.0886  0.4509
19450TIP3   OH279840   0.740   2.620  16.980 -0.5023  0.2210  0.1875
19450TIP3    H179841   0.765   2.580  17.063 -0.5582 -1.6977 -0.6849
19450TIP3    H279842   0.663   2.673  17.002 -2.3545 -2.5569  0.9036
19451TIP3   OH279843   2.011   4.674  15.879  0.4763 -0.5198 -0.1431
19451TIP3    H179844   2.082   4.646  15.937  0.4662 -0.8423 -0.2838
19451TIP3    H279845   2.044   4.659  15.791 -0.4136 -2.3756 -0.2160
19452TIP3   OH279846   0.941   5.051   6.588  0.4474 -0.8279  0.0923
19452TIP3    H179847   0.933   4.958   6.570 -0.1511 -1.2284  2.1990
19452TIP3    H279848   0.890   5.065   6.667 -0.6274  1.5805 -0.9434
19453TIP3   OH279849   1.946   3.838  16.869 -0.3533 -0.2701  0.1645
19453TIP3    H179850   1.985   3.750  16.874 -0.3358 -0.3175 -0.6286
19453TIP3    H279851   1.872   3.827  16.810  0.6942  0.5972 -1.3863
19454TIP3   OH279852   3.728   6.441   5.389  0.3780  0.0512 -0.3055
19454TIP3    H179853   3.725   6.509   5.322 -0.3081 -1.2255 -1.6192
19454TIP3    H279854   3.739   6.489   5.472 -0.9687  1.8024 -1.0803
19455TIP3   OH279855   6.021   3.149   0.961 -0.5296  0.5956  0.1187
19455TIP3    H179856   5.945   3.171   1.015 -0.6953 -0.2126  0.2224
19455TIP3    H279857   6.094   3.192   1.005 -0.3803 -1.4262  1.9940
19456TIP3   OH279858   6.593   0.448   6.222 -0.0101  0.3896 -0.2092
19456TIP3    H179859   6.511   0.480   6.186  0.1031  0.0355 -0.7905
19456TIP3    H279860   6.589   0.471   6.315 -1.4626 -1.0119  0.1242
19457TIP3   OH279861   1.614   2.388   3.523 -0.4365  0.4842  0.1036
19457TIP3    H179862   1.623   2.416   3.614  1.8507  0.2873 -0.0056
19457TIP3    H279863   1.609   2.292   3.527 -0.4798  0.4843  0.0495
19458TIP3   OH279864   6.540   2.170   6.267  0.5844  0.2063  0.3336
19458TIP3    H179865   6.548   2.265   6.282 -0.6826  0.2674  0.7612
19458TIP3    H279866   6.516   2.135   6.353  1.2972 -0.5515  0.2354
19459TIP3   OH279867   0.112   4.326   4.478 -0.4147 -0.1621 -0.4742
19459TIP3    H179868   0.107   4.233   4.501  0.1799 -0.2671 -0.7318
19459TIP3    H279869   0.173   4.363   4.542  1.1225 -0.4270 -1.7112
19460TIP3   OH279870   4.477   4.128   3.225  0.5403 -0.2068  0.0127
19460TIP3    H179871   4.452   4.177   3.147 -0.2512 -2.4893 -1.2777
19460TIP3    H279872   4.522   4.191   3.280 -0.7428  2.0210 -1.3402
19461TIP3   OH279873   4.732   5.259   5.281 -0.1422  0.0599  0.0452
19461TIP3    H179874   4.804   5.310   5.318  0.2289 -0.4166 -0.0066
19461TIP3    H279875   4.742   5.172   5.320 -1.8287  0.4836  1.5225
19462TIP3   OH279876   0.482   6.356   1.132  0.0418 -0.0866 -0.4493
19462TIP3    H179877   0.400   6.319   1.099  0.2323 -0.3404 -0.6372
19462TIP3    H279878   0.534   6.371   1.053 -0.4165  1.5246 -0.4940
19463TIP3   OH279879   0.049   5.820  15.036  0.3699 -0.0101  0.3878
19463TIP3    H179880   0.025   5.876  15.110 -0.3732 -1.2357  1.0956
19463TIP3    H279881  -0.033   5.782  15.007  0.6881  0.2572 -0.9376
19464TIP3   OH279882   5.723   3.923  11.768 -0.4343 -0.1687  0.1535
19464TIP3    H179883   5.789   3.915  11.837 -0.3361 -0.4997  0.0233
19464TIP3    H279884   5.645   3.880  11.804  0.3003 -2.4559 -0.8165
19465TIP3   OH279885   4.514   2.489  13.918 -0.6686  0.0215  0.7450
19465TIP3    H179886   4.443   2.425  13.906  0.6301 -1.4575  0.5844
19465TIP3    H279887   4.581   2.441  13.966  1.2701  0.5374 -1.2545
19466TIP3   OH279888   3.096   3.621  15.375  0.4492  0.0144 -0.0023
19466TIP3    H179889   3.071   3.676  15.450 -1.7086 -0.1222 -0.5517
19466TIP3    H279890   3.154   3.676  15.323  0.4969  0.7812  0.8387
19467TIP3   OH279891   2.404   5.821   2.948  0.2447 -0.3407 -0.3031
19467TIP3    H179892   2.349   5.743   2.953 -0.7999  0.4510  1.4262
19467TIP3    H279893   2.391   5.865   3.032  1.6480  1.1444 -0.8138
19468TIP3   OH279894   1.447   2.978   1.194  0.0434 -0.1585  0.3400
19468TIP3    H179895   1.400   3.053   1.158 -0.1061  0.3250  1.4960
19468TIP3    H279896   1.388   2.942   1.260  0.7980 -0.2953  0.9494
19469TIP3   OH279897   2.357   3.696  12.152 -0.2888 -0.7761 -0.1181
19469TIP3    H179898   2.267   3.691  12.121 -0.2397 -1.4321 -0.1716
19469TIP3    H279899   2.371   3.789  12.173 -0.5649 -0.4559 -1.3153
19470TIP3   OH279900   1.944   2.355  14.840 -0.0217 -0.5416  0.3503
19470TIP3    H179901   1.913   2.281  14.891 -1.4019 -0.4269 -0.2746
19470TIP3    H279902   1.866   2.409  14.826  0.9757  1.1051  0.9036
19471TIP3   OH279903   4.488   4.508   1.132 -0.2388  1.1044 -0.3087
19471TIP3    H179904   4.528   4.532   1.048  1.4022 -0.3387  0.0144
19471TIP3    H279905   4.456   4.418   1.118 -1.3927  1.4235  0.1559
19472TIP3   OH279906   4.452   3.067  15.591  0.2443  0.3448 -0.0723
19472TIP3    H179907   4.387   2.998  15.607  0.7444  0.3317  2.2557
19472TIP3    H279908   4.400   3.146  15.581 -0.4329 -0.4090 -4.0289
19473TIP3   OH279909   1.969   2.427   1.536 -0.3125  0.8308 -0.1579
19473TIP3    H179910   1.977   2.351   1.594  0.3811  1.3890  0.5037
19473TIP3    H279911   1.920   2.491   1.588 -0.5829  0.9641 -0.5781
19474TIP3   OH279912   1.338   5.135  17.201  0.6060  0.5921  0.1998
19474TIP3    H179913   1.336   5.064  17.265 -1.6421  0.4661  0.0658
19474TIP3    H279914   1.300   5.210  17.247 -1.3918  0.4021 -1.0151
19475TIP3   OH279915   1.715   2.896   1.711 -0.0998  0.1716  1.0114
19475TIP3    H179916   1.626   2.909   1.679 -0.2510 -2.7688  0.0206
19475TIP3    H279917   1.706   2.831   1.781  1.1758  0.6354  1.6381
19476TIP3   OH279918   5.499   5.128  11.906  0.1440 -0.1150  0.4740
19476TIP3    H179919   5.574   5.181  11.879  0.4458 -1.1893 -0.9006
19476TIP3    H279920   5.530   5.037  11.901 -0.7807 -0.5112  1.4165
19477TIP3   OH279921   3.961   2.159   2.103 -0.2007  0.1106  0.1371
19477TIP3    H179922   3.875   2.146   2.142 -0.4982 -1.1104 -0.8518
19477TIP3    H279923   3.958   2.248   2.067 -1.0955  0.0418  0.0272
19478TIP3   OH279924   0.276   2.083  12.270 -0.0774 -0.1734 -0.0905
19478TIP3    H179925   0.201   2.049  12.220  0.7136 -1.1721 -0.6227
19478TIP3    H279926   0.257   2.176  12.281 -0.5702 -0.0495 -1.7319
19479TIP3   OH279927   2.557   1.493  13.691  0.4763  0.1381 -0.3082
19479TIP3    H179928   2.528   1.493  13.783 -0.1066  0.9725 -0.4867
19479TIP3    H279929   2.651   1.476  13.696  0.0047 -3.1212  0.2807
19480TIP3   OH279930   1.276   1.109   5.185  0.4910 -0.7330 -0.5889
19480TIP3    H179931   1.299   1.200   5.169 -0.9202  0.1428  1.8202
19480TIP3    H279932   1.345   1.076   5.242  0.4078 -0.8012 -0.5256
19481TIP3   OH279933   2.209   5.163   4.021  0.1368  0.1305 -0.0135
19481TIP3    H179934   2.238   5.113   3.945 -0.2649  0.4906 -0.4109
19481TIP3    H279935   2.130   5.118   4.050 -0.5861  0.8845 -0.7576
19482TIP3   OH279936   3.460   6.463  14.020 -0.7775 -0.2075  0.4663
19482TIP3    H179937   3.392   6.406  14.056 -1.4306  0.1206 -0.2105
19482TIP3    H279938   3.416   6.510  13.950  0.0384  0.3535  0.3222
19483TIP3   OH279939   1.312   5.511   4.061  0.3809 -0.4142  0.2184
19483TIP3    H179940   1.333   5.433   4.009 -1.6197 -0.4893 -0.5744
19483TIP3    H279941   1.223   5.496   4.092 -0.8974  2.3537 -1.6616
19484TIP3   OH279942   6.458   4.582  15.154  0.8219  0.6067 -0.2376
19484TIP3    H179943   6.497   4.655  15.201  0.0618 -0.4207  2.1264
19484TIP3    H279944   6.461   4.508  15.215 -1.5022 -0.4499 -1.2455
19485TIP3   OH279945   5.307   0.966  14.436 -0.0901 -0.6094  0.3744
19485TIP3    H179946   5.350   0.933  14.357  2.3408 -0.6012  1.6228
19485TIP3    H279947   5.287   0.888  14.486 -0.0962 -0.5177  0.5139
19486TIP3   OH279948   2.070   1.469  16.300  0.7168 -0.0588  0.0204
19486TIP3    H179949   1.976   1.485  16.295  0.7041 -0.2656 -0.3748
19486TIP3    H279950   2.079   1.401  16.367  0.4236 -1.4112 -1.2726
19487TIP3   OH279951   6.380   2.173  11.287 -0.1039 -0.2054 -0.1734
19487TIP3    H179952   6.386   2.136  11.199  1.8366 -1.8955  0.6044
19487TIP3    H279953   6.468   2.203  11.307 -0.3738 -0.4251  1.4490
19488TIP3   OH279954   5.934   4.569   3.105 -0.1989 -0.2556  0.6181
19488TIP3    H179955   5.860   4.509   3.111 -0.6596  0.3252  0.8784
19488TIP3    H279956   5.979   4.561   3.190 -1.0004  0.6928  1.1531
19489TIP3   OH279957   2.934   5.190   5.159  0.2481  0.3816 -0.0821
19489TIP3    H179958   2.997   5.124   5.131  0.3152 -0.3749  1.7583
19489TIP3    H279959   2.863   5.185   5.094  0.0565 -1.7821  0.2357
19490TIP3   OH279960   6.611   3.065   5.300 -0.0497 -0.2132 -0.8933
19490TIP3    H179961   6.646   2.979   5.275  1.2827  0.0011  0.1028
19490TIP3    H279962   6.540   3.046   5.361  0.4743 -0.6116 -0.4024
19491TIP3   OH279963   4.305   1.200  15.008  0.0766 -0.5016  0.3758
19491TIP3    H179964   4.401   1.201  15.015  0.0910 -0.5864  0.1851
19491TIP3    H279965   4.284   1.112  14.977 -0.1601 -0.9448  1.7590
19492TIP3   OH279966   3.599   3.617   5.813 -0.0254  0.2966  0.1498
19492TIP3    H179967   3.603   3.649   5.903 -1.1508  1.2976 -0.1253
19492TIP3    H279968   3.605   3.696   5.759 -0.3150 -0.1987 -0.6276
19493TIP3   OH279969   5.566   3.267   0.495 -0.2685 -0.3254  0.2900
19493TIP3    H179970   5.603   3.179   0.499  1.5627  0.3746 -0.3929
19493TIP3    H279971   5.586   3.306   0.580  1.0054  0.2088 -0.2425
19494TIP3   OH279972   1.064   0.328  16.584  0.5645 -0.3270 -0.1252
19494TIP3    H179973   1.103   0.270  16.650  0.9358 -0.0653 -0.1137
19494TIP3    H279974   0.976   0.347  16.618  0.7581 -0.1821  0.3048
19495TIP3   OH279975   5.411   1.858   3.994  0.0901  0.6627 -0.1195
19495TIP3    H179976   5.351   1.849   3.920 -0.1875  3.0434 -0.2498
19495TIP3    H279977   5.381   1.793   4.057 -1.0377  0.0900 -1.2076
19496TIP3   OH279978   2.544   2.802  11.912  0.1646 -0.0337 -0.3142
19496TIP3    H179979   2.505   2.729  11.866 -1.4345  0.7618 -0.2948
19496TIP3    H279980   2.636   2.777  11.925 -0.4600 -2.2245  0.1537
19497TIP3   OH279981   6.664   5.094  16.745  0.6660 -0.4994 -0.1882
19497TIP3    H179982   6.721   5.129  16.813  0.2441 -1.7657  0.8465
19497TIP3    H279983   6.720   5.036  16.693 -0.0354 -3.5291  2.1699
19498TIP3   OH279984   0.388   3.573   2.460  0.3497  0.0315 -0.3431
19498TIP3    H179985   0.297   3.552   2.436 -0.4811  0.1483  2.3781
19498TIP3    H279986   0.431   3.488   2.467 -0.5236 -0.3055  1.6539
19499TIP3   OH279987   1.096   1.432  13.227 -0.0913 -0.2523 -0.2055
19499TIP3    H179988   1.015   1.384  13.208 -0.6379  0.1022  1.0927
19499TIP3    H279989   1.132   1.454  13.141 -1.3973 -0.3701 -0.8039
19500TIP3   OH279990   3.219   2.226   1.711  0.2548 -1.4281 -0.5020
19500TIP3    H179991   3.261   2.229   1.797  1.1247 -1.3632 -0.9108
19500TIP3    H279992   3.141   2.173   1.724 -0.6936  0.1808  0.7586
19501TIP3   OH279993   0.914   4.670  14.184 -0.5273  0.0148  0.0981
19501TIP3    H179994   0.983   4.734  14.202  0.5504 -0.8981 -0.5975
19501TIP3    H279995   0.890   4.636  14.270  0.3904 -0.1301  0.3118
19502TIP3   OH279996   4.398   1.298  16.317  0.0827  0.8512  0.0407
19502TIP3    H179997   4.440   1.252  16.390  0.0847  0.8521  0.0394
19502TIP3    H279998   4.320   1.247  16.298 -0.9413  1.8860  1.2909
19503TIP3   OH279999   4.410   0.571  13.222 -0.0223 -0.4500 -0.4406
19503TIP3    H180000   4.320   0.572  13.255  0.4142 -0.7256  0.8289
19503TIP3    H280001   4.449   0.494  13.264  0.2712 -1.4983 -2.5058
19504TIP3   OH280002   2.670   0.267   3.220 -0.3605 -0.5945 -0.7576
19504TIP3    H180003   2.597   0.218   3.256 -0.6294 -0.7408 -1.4755
19504TIP3    H280004   2.634   0.308   3.141  0.1600 -0.1424 -0.7674
19505TIP3   OH280005   2.398   3.732  16.662 -0.1818 -0.1934 -0.3670
19505TIP3    H180006   2.361   3.675  16.595  0.5061  0.5732 -1.4192
19505TIP3    H280007   2.327   3.743  16.725 -0.7067 -1.2531 -0.7409
19506TIP3   OH280008   6.315   3.147  17.400 -0.0415  0.3117  0.1700
19506TIP3    H180009   6.297   3.229  17.356  2.5362  1.1411  0.4709
19506TIP3    H280010   6.382   3.104  17.346  0.9280 -0.0832  1.6010
19507TIP3   OH280011   4.409   1.216  12.830  0.1639 -0.1276 -0.3789
19507TIP3    H180012   4.378   1.154  12.764 -1.2251  1.9700 -1.8720
19507TIP3    H280013   4.454   1.284  12.779  0.0976  0.9625  0.9522
19508TIP3   OH280014   5.070   1.646  16.916 -0.1149 -0.1187  0.2539
19508TIP3    H180015   5.138   1.589  16.881 -1.0213  0.0617 -1.9138
19508TIP3    H280016   5.115   1.700  16.980  1.8361  0.1083 -1.2338
19509TIP3   OH280017   3.538   3.799  11.290 -0.0662  0.1616 -1.0360
19509TIP3    H180018   3.477   3.725  11.292  0.2251 -0.0637  1.0248
19509TIP3    H280019   3.610   3.768  11.235 -0.1302 -0.9382 -0.5259
19510TIP3   OH280020   6.119   2.601   0.635 -0.0570 -0.1226  0.5936
19510TIP3    H180021   6.203   2.636   0.663 -0.2328 -1.3851  2.9627
19510TIP3    H280022   6.069   2.678   0.607  0.7574  1.0791  2.2893
19511TIP3   OH280023   0.777   3.135   3.727  0.4995 -0.0909  0.0007
19511TIP3    H180024   0.803   3.227   3.737 -0.8832  0.4419 -0.9297
19511TIP3    H280025   0.684   3.139   3.705  0.5839 -1.6809 -0.7799
19512TIP3   OH280026   5.814   0.034   3.274  0.2489 -0.6075  0.6299
19512TIP3    H180027   5.784   0.103   3.214  2.2148 -1.6930 -1.7984
19512TIP3    H280028   5.841   0.080   3.353 -0.7260  1.1158  0.0128
19513TIP3   OH280029   1.669   5.880  11.291  0.2408  0.0037  0.3557
19513TIP3    H180030   1.656   5.818  11.363  1.2382 -0.0187  0.5377
19513TIP3    H280031   1.585   5.925  11.282 -0.3008 -0.9309  0.6382
19514TIP3   OH280032   3.663   0.642  12.922 -0.2361 -0.0901  0.2566
19514TIP3    H180033   3.664   0.551  12.893 -1.0647 -1.1447  3.1636
19514TIP3    H280034   3.754   0.664  12.938  0.2046  0.3980 -2.4380
19515TIP3   OH280035   0.979   3.982   1.200 -0.5401  0.4991 -0.3336
19515TIP3    H180036   0.954   4.063   1.244 -0.3584  0.7877 -0.7582
19515TIP3    H280037   1.009   4.009   1.114  3.0655  0.4213  0.7421
19516TIP3   OH280038   6.436   5.616  10.977 -0.5156  0.1196  0.2851
19516TIP3    H180039   6.476   5.696  11.011 -1.9964  0.6491  0.8820
19516TIP3    H280040   6.504   5.549  10.987  0.7071  1.2573 -0.1204
19517TIP3   OH280041   6.552   3.088   1.927  0.1308  0.1710  0.3120
19517TIP3    H180042   6.571   3.180   1.908  0.7296  0.0562  0.3545
19517TIP3    H280043   6.462   3.089   1.961 -0.8112  0.4229 -2.0382
19518TIP3   OH280044   5.140   5.602  12.172 -0.0873 -0.1120 -0.5976
19518TIP3    H180045   5.090   5.549  12.234 -2.9721  1.3617 -1.5284
19518TIP3    H280046   5.084   5.677  12.153  3.2948  2.7414 -0.2683
19519TIP3   OH280047   3.567   4.562   1.436 -0.3603  0.6446 -0.3365
19519TIP3    H180048   3.558   4.506   1.513 -0.3442  2.1462  0.8079
19519TIP3    H280049   3.548   4.505   1.362 -2.2476 -0.4127  0.8929
19520TIP3   OH280050   0.563   6.217   3.743  0.3234 -0.3078 -0.8852
19520TIP3    H180051   0.503   6.238   3.671  0.6016  0.2849 -0.9478
19520TIP3    H280052   0.533   6.132   3.775 -2.6889  1.3366  1.2375
19521TIP3   OH280053   4.234   2.548  14.559  0.5832  0.4512 -0.0969
19521TIP3    H180054   4.176   2.612  14.516 -1.4006 -0.6139  0.8452
19521TIP3    H280055   4.218   2.466  14.511  1.2490  0.1073  0.2593
19522TIP3   OH280056   6.647   5.493   3.491  0.4532  0.7217  0.4099
19522TIP3    H180057   6.660   5.522   3.400 -1.2595 -2.2718 -0.9224
19522TIP3    H280058   6.730   5.452   3.515  0.2230 -0.4560 -0.6821
19523TIP3   OH280059   6.327   3.677   4.967 -0.1617  1.0915 -0.2240
19523TIP3    H180060   6.362   3.688   5.055 -0.6597 -0.4115  0.1832
19523TIP3    H280061   6.402   3.650   4.914 -0.0220  1.2247 -0.0939
19524TIP3   OH280062   5.866   4.065  14.214  0.1290  0.5103  0.5157
19524TIP3    H180063   5.934   4.131  14.232 -0.3290  0.3769  3.0658
19524TIP3    H280064   5.793   4.090  14.271 -1.0308 -0.7762 -0.3487
19525TIP3   OH280065   6.537   0.185   6.269 -0.0826 -0.7367  0.0374
19525TIP3    H180066   6.558   0.276   6.248 -0.6488 -0.2568  1.4298
19525TIP3    H280067   6.546   0.138   6.186 -1.1047  0.8279 -1.0048
19526TIP3   OH280068   2.290   5.924  15.467  0.1571  0.4097  0.2849
19526TIP3    H180069   2.363   5.944  15.408 -0.7711 -0.8002 -1.3576
19526TIP3    H280070   2.329   5.918  15.554  1.8196  0.8482 -0.4063
19527TIP3   OH280071   2.225   4.772  11.657  0.4679  0.0001  0.2269
19527TIP3    H180072   2.297   4.711  11.675  0.1292 -0.1702  1.0760
19527TIP3    H280073   2.221   4.777  11.562  2.1508  0.6779  0.1681
19528TIP3   OH280074   3.526   5.720   4.061 -1.0389  0.3926  0.2781
19528TIP3    H180075   3.590   5.754   4.123 -0.8797  1.0302 -0.2287
19528TIP3    H280076   3.571   5.720   3.977 -1.2623 -0.4368  0.1525
19529TIP3   OH280077   4.018   3.484   0.611 -0.3693 -0.3786 -0.3988
19529TIP3    H180078   3.971   3.431   0.675 -1.5739 -0.6266 -1.4500
19529TIP3    H280079   4.105   3.445   0.606 -0.6556 -1.1065  0.1712
19530TIP3   OH280080   1.129   3.061   4.435  0.1580  0.1482  0.2547
19530TIP3    H180081   1.142   3.003   4.510 -1.3617 -2.0059 -1.0494
19530TIP3    H280082   1.217   3.074   4.399  0.5073 -1.8990  0.2515
19531TIP3   OH280083   1.520   1.130  12.680  0.1832  0.2694 -0.4502
19531TIP3    H180084   1.455   1.077  12.724 -0.4593  0.9020 -0.6154
19531TIP3    H280085   1.575   1.165  12.750  0.3812 -0.3051 -0.3159
19532TIP3   OH280086   4.649   5.855   2.935  0.5937  0.1809  0.2824
19532TIP3    H180087   4.643   5.945   2.966 -1.1299  0.1959  0.0033
19532TIP3    H280088   4.590   5.851   2.860 -0.4032 -1.4907  1.0952
19533TIP3   OH280089   1.042   5.466   4.756 -0.6907  0.0792 -0.4895
19533TIP3    H180090   1.086   5.488   4.674 -1.0297 -0.1691 -0.7449
19533TIP3    H280091   1.001   5.381   4.738 -2.5467  0.9906 -0.7651
19534TIP3   OH280092   1.039   1.724   0.271 -0.1879 -0.3580 -0.1682
19534TIP3    H180093   0.961   1.769   0.239 -1.0557 -0.9537  1.0207
19534TIP3    H280094   1.064   1.772   0.350  1.2051  0.3713 -1.0099
19535TIP3   OH280095   1.718   0.653  15.371  0.8443 -0.1182 -0.0956
19535TIP3    H180096   1.680   0.575  15.412  0.6454 -0.1051 -0.2495
19535TIP3    H280097   1.736   0.713  15.443  1.2408 -0.4107  0.0490
19536TIP3   OH280098   3.364   6.355  12.831 -0.3370  0.6062  0.0050
19536TIP3    H180099   3.389   6.370  12.922 -0.4831  1.9985 -0.1645
19536TIP3    H280100   3.276   6.318  12.836 -0.3747  0.7493  0.4359
19537TIP3   OH280101   0.870   5.370   3.072 -0.0077  0.5602  0.1421
19537TIP3    H180102   0.891   5.463   3.072  0.4343  0.4661 -0.1625
19537TIP3    H280103   0.955   5.326   3.083 -0.0966  0.1754 -0.6663
19538TIP3   OH280104   1.222   6.260  12.427  0.1206  0.1266  0.6142
19538TIP3    H180105   1.303   6.252  12.476 -0.3161  0.1446  1.3558
19538TIP3    H280106   1.232   6.342  12.377  0.3717  0.3739  1.0647
19539TIP3   OH280107   0.521   1.580   1.967 -0.2587 -0.3119  0.1069
19539TIP3    H180108   0.458   1.630   1.915 -1.6921 -1.8211  0.3211
19539TIP3    H280109   0.477   1.497   1.984  2.1656 -1.8230 -0.5328
19540TIP3   OH280110   1.532   6.384   1.159 -0.0025 -0.0941  0.4207
19540TIP3    H180111   1.532   6.307   1.102 -1.5672  0.3820 -0.2745
19540TIP3    H280112   1.527   6.458   1.098 -0.2909  0.4756  1.1286
19541TIP3   OH280113   5.999   2.341  13.964  0.3967 -0.6761 -0.1901
19541TIP3    H180114   5.958   2.324  14.049  0.9237  0.6579  0.3746
19541TIP3    H280115   6.002   2.437  13.958  1.4538 -0.7441 -1.1775
19542TIP3   OH280116   3.707   3.734  14.728  0.6998 -0.3650 -0.0217
19542TIP3    H180117   3.757   3.814  14.713  3.5561 -2.2066 -1.0664
19542TIP3    H280118   3.747   3.693  14.804  0.5014 -1.6712 -0.5809
19543TIP3   OH280119   2.294   3.973  13.384 -0.0672 -1.1116  0.0764
19543TIP3    H180120   2.230   3.904  13.405  0.1002 -1.2912  0.0029
19543TIP3    H280121   2.306   3.965  13.289 -0.4735 -0.6084 -0.0214
19544TIP3   OH280122   2.729   6.531  14.115 -0.4229 -0.2767  0.1776
19544TIP3    H180123   2.747   6.533  14.209  0.4326  0.1277  0.0060
19544TIP3    H280124   2.752   6.618  14.084 -1.5494 -0.1185 -0.2616
19545TIP3   OH280125   0.830   4.034   5.150 -0.2887 -0.1704  0.6217
19545TIP3    H180126   0.840   4.109   5.092 -0.2335  0.3036  1.2388
19545TIP3    H280127   0.852   4.067   5.237  1.3276 -1.2883  0.6862
19546TIP3   OH280128   5.920   6.684  12.800 -0.0162  0.0758  0.4013
19546TIP3    H180129   5.972   6.608  12.828 -3.2666 -1.6217  2.3846
19546TIP3    H280130   5.933   6.688  12.706  0.7200 -2.6172  0.3066
19547TIP3   OH280131   2.009   2.747   5.255  0.1334 -0.2854  0.0228
19547TIP3    H180132   1.965   2.662   5.255 -0.3542 -0.0384 -0.3849
19547TIP3    H280133   1.941   2.809   5.284 -0.0831  0.2329 -1.4634
19548TIP3   OH280134   4.172   3.055  14.083  0.6419 -0.4302 -1.3770
19548TIP3    H180135   4.111   2.985  14.063 -1.2439  0.4213  0.9060
19548TIP3    H280136   4.128   3.135  14.053  0.3808  0.2244  0.5496
19549TIP3   OH280137   0.929   5.366  11.788  0.2221 -0.9136 -0.0962
19549TIP3    H180138   1.009   5.360  11.735  0.7706  1.0528  0.4465
19549TIP3    H280139   0.902   5.457  11.780  0.2689 -0.5409  2.9007
19550TIP3   OH280140   3.134   0.583   1.322 -0.5906 -0.1434 -0.6571
19550TIP3    H180141   3.054   0.547   1.360 -0.5841  0.6938  0.1672
19550TIP3    H280142   3.108   0.668   1.288 -0.0059  0.2098 -0.2249
19551TIP3   OH280143   6.498   6.651  16.377 -0.1379  0.0538 -0.2826
19551TIP3    H180144   6.454   6.716  16.431 -1.7702 -0.6252 -0.7534
19551TIP3    H280145   6.586   6.645  16.414 -0.8300  0.4861  1.5347
19552TIP3   OH280146   1.972   1.829  13.411 -0.0583 -0.2527 -0.5680
19552TIP3    H180147   1.919   1.896  13.454 -0.1105 -2.0241  2.4094
19552TIP3    H280148   2.062   1.855  13.427 -0.0066  0.5811 -2.0179
19553TIP3   OH280149   0.933   4.047  17.488  0.2053  0.4037  0.0801
19553TIP3    H180150   0.953   4.137  17.515 -1.2834  0.2881  1.7375
19553TIP3    H280151   0.868   4.056  17.418  0.2312  0.6230  0.0831
19554TIP3   OH280152   2.932   2.188   0.296 -0.0523  0.2658 -0.9272
19554TIP3    H180153   2.948   2.259   0.358 -0.9945  1.2135 -1.7071
19554TIP3    H280154   2.915   2.111   0.350 -0.0325  0.8687 -0.0412
19555TIP3   OH280155   2.500   0.800  11.096 -0.8592 -0.2804  0.2172
19555TIP3    H180156   2.524   0.723  11.044 -2.5171 -0.4367 -0.3886
19555TIP3    H280157   2.501   0.872  11.032  1.5198  0.4435  0.9415
19556TIP3   OH280158   5.490   3.549   5.343 -0.1122  1.1476 -0.0117
19556TIP3    H180159   5.415   3.520   5.290 -0.3325 -0.4411  1.1013
19556TIP3    H280160   5.480   3.503   5.426  2.0314  1.0147  0.2199
19557TIP3   OH280161   1.534   1.383  11.313  0.2395 -0.0526 -0.1095
19557TIP3    H180162   1.558   1.315  11.251  0.4806  1.9713 -2.3914
19557TIP3    H280163   1.439   1.393  11.302  0.2349  0.1081  0.0742
19558TIP3   OH280164   6.160   4.394   6.054 -0.2235 -0.5747 -0.9207
19558TIP3    H180165   6.104   4.430   5.984 -0.3678  0.0847 -0.4698
19558TIP3    H280166   6.173   4.467   6.114 -0.1837 -1.1687 -0.1985
19559TIP3   OH280167   0.916   6.313  11.024 -0.0365  0.3103  0.5992
19559TIP3    H180168   0.924   6.217  11.024 -0.2565  0.2796 -0.5523
19559TIP3    H280169   0.830   6.329  10.984  0.1686  1.0013  0.4351
19560TIP3   OH280170   3.130   3.108   3.412  0.3592  0.1271 -0.4219
19560TIP3    H180171   3.053   3.054   3.431  0.4760 -0.9111 -2.5901
19560TIP3    H280172   3.202   3.046   3.406  1.3166  1.0423  1.1049
19561TIP3   OH280173   5.079   4.772  11.182  0.0820 -0.1696  0.1101
19561TIP3    H180174   5.022   4.821  11.241 -1.1131 -0.5259 -0.7058
19561TIP3    H280175   5.020   4.739  11.114  1.1224 -1.3533 -0.2490
19562TIP3   OH280176   4.471   3.656   6.293  0.3308  0.0783 -0.0332
19562TIP3    H180177   4.546   3.609   6.330  0.4823  0.1479 -0.2472
19562TIP3    H280178   4.434   3.705   6.366  0.4953  0.0434  0.0732
19563TIP3   OH280179   3.915   2.665   1.248 -0.5632  0.0413 -0.1525
19563TIP3    H180180   3.963   2.745   1.267 -0.7116  0.1391 -0.1907
19563TIP3    H280181   3.983   2.601   1.225 -0.2130 -0.5265  2.1614
19564TIP3   OH280182   6.276   5.426   2.715  0.4448 -0.1722  0.4458
19564TIP3    H180183   6.297   5.514   2.684 -0.0752 -0.0976  0.2903
19564TIP3    H280184   6.315   5.422   2.803  1.9940 -0.4216 -0.2286
19565TIP3   OH280185   0.501   2.202  15.689 -0.4641  0.2931  0.2159
19565TIP3    H180186   0.593   2.187  15.667 -0.2219  0.2060  1.2569
19565TIP3    H280187   0.458   2.216  15.604  0.0034 -2.2795 -0.5325
19566TIP3   OH280188   0.412   2.941   5.512  0.2037  0.0415 -0.2762
19566TIP3    H180189   0.433   2.936   5.419 -0.2465 -2.4126 -0.2955
19566TIP3    H280190   0.493   2.970   5.554  1.2216 -1.4448 -1.1687
19567TIP3   OH280191   1.931   5.133   4.719 -0.2244  0.2698  0.0068
19567TIP3    H180192   1.910   5.055   4.770 -0.5605  1.1318  1.2161
19567TIP3    H280193   2.000   5.176   4.769  0.4263  0.4320 -0.9923
19568TIP3   OH280194   2.922   5.945   0.808 -0.1677  0.0934 -0.6522
19568TIP3    H180195   2.832   5.929   0.835 -0.0954  0.9345  0.1261
19568TIP3    H280196   2.975   5.921   0.883  0.2395 -0.0953 -0.9950
19569TIP3   OH280197   0.723   0.604   5.433 -0.1981  0.6682  0.4705
19569TIP3    H180198   0.810   0.614   5.393 -0.3894 -0.4373 -0.2631
19569TIP3    H280199   0.662   0.608   5.359 -0.5475 -1.5924  0.5516
19570TIP3   OH280200   3.178   1.787   3.566 -0.1157 -0.4736 -0.0681
19570TIP3    H180201   3.225   1.863   3.602 -0.5165 -1.0240  1.7259
19570TIP3    H280202   3.105   1.774   3.627 -2.3433  0.0282 -2.4679
19571TIP3   OH280203   0.680   1.522  11.928  0.0156 -0.3679 -0.4657
19571TIP3    H180204   0.592   1.536  11.893 -0.1577 -1.5848 -0.5730
19571TIP3    H280205   0.738   1.534  11.852  0.0805  1.5790 -0.1590
19572TIP3   OH280206   2.897   3.700   4.117 -0.2074 -0.3010 -0.0936
19572TIP3    H180207   2.945   3.678   4.037  1.7365  1.5137  0.4813
19572TIP3    H280208   2.895   3.619   4.167  1.1614 -0.7395 -0.7103
19573TIP3   OH280209   2.464   6.711  15.169 -0.0857  0.5821  0.4380
19573TIP3    H180210   2.419   6.778  15.220 -1.0806 -0.0486  0.4243
19573TIP3    H280211   2.484   6.753  15.085 -0.1421  1.0402  0.6516
19574TIP3   OH280212   6.546   0.945   4.361  0.2688 -0.4276  0.0968
19574TIP3    H180213   6.479   0.973   4.423 -0.4642 -1.0405 -0.3867
19574TIP3    H280214   6.499   0.937   4.278  1.0444 -0.4545 -0.3492
19575TIP3   OH280215   2.160   1.413   4.692 -0.3514 -0.0101 -0.5712
19575TIP3    H180216   2.207   1.380   4.615  0.2793 -0.5111  0.0232
19575TIP3    H280217   2.091   1.468   4.655 -1.1101 -1.5562 -1.5741
19576TIP3   OH280218   4.180   1.028  13.165  0.4973  0.3971 -0.3977
19576TIP3    H180219   4.240   1.086  13.119  1.7887 -0.0772  0.6394
19576TIP3    H280220   4.169   0.953  13.106  2.6184 -0.4883  0.2356
19577TIP3   OH280221   5.262   4.589  11.333 -1.1153 -0.2680 -0.0001
19577TIP3    H180222   5.342   4.591  11.281 -0.8748 -0.2950  0.3628
19577TIP3    H280223   5.212   4.664  11.303 -0.7112  0.0639  0.1415
19578TIP3   OH280224   2.312   2.352  12.778 -0.6384  0.1046 -0.4774
19578TIP3    H180225   2.371   2.281  12.752  0.8459 -0.5470  3.7605
19578TIP3    H280226   2.227   2.328  12.740  0.8201 -1.3169 -3.1204
19579TIP3   OH280227   6.334   4.568  16.356  0.5621  0.1065 -0.1710
19579TIP3    H180228   6.390   4.643  16.333 -0.3169  0.5342 -0.9661
19579TIP3    H280229   6.379   4.528  16.431  0.6091  1.9564  0.8741
19580TIP3   OH280230   6.181   1.201  12.639 -0.0290 -0.3359 -0.2882
19580TIP3    H180231   6.203   1.119  12.594  1.5554  0.2137 -0.5652
19580TIP3    H280232   6.261   1.226  12.684 -1.0964 -0.0201  1.5838
19581TIP3   OH280233   5.839   5.267   5.896 -0.0388  0.5208 -0.0543
19581TIP3    H180234   5.869   5.357   5.911  1.0262  0.1433  0.1268
19581TIP3    H280235   5.910   5.226   5.847 -1.1050  0.1584 -1.3567
19582TIP3   OH280236   3.880   4.385  15.361 -0.0094  0.3130  0.3800
19582TIP3    H180237   3.811   4.319  15.356 -0.4552  0.8106 -0.2160
19582TIP3    H280238   3.866   4.428  15.445 -0.5719  0.5614  0.1644
19583TIP3   OH280239   2.800   6.150   1.102  0.0391 -0.0969 -0.0831
19583TIP3    H180240   2.707   6.145   1.085  0.1061  1.3999 -1.0934
19583TIP3    H280241   2.812   6.103   1.185 -1.2950 -1.9323 -0.8793
19584TIP3   OH280242   5.408   4.226   6.358  0.1605 -1.1481  0.1991
19584TIP3    H180243   5.397   4.278   6.438  0.7376  1.0580 -1.0805
19584TIP3    H280244   5.496   4.249   6.327 -1.0589  0.1907 -2.5169
19585TIP3   OH280245   4.545   3.460   2.438 -0.1052  0.1563 -0.2852
19585TIP3    H180246   4.475   3.495   2.493  0.0184 -0.7486  0.4674
19585TIP3    H280247   4.621   3.454   2.497 -0.6117 -3.2292  0.2291
19586TIP3   OH280248   3.824   1.106   2.375  0.7471  0.1651 -0.3209
19586TIP3    H180249   3.880   1.056   2.316 -1.0571 -1.8931 -0.4287
19586TIP3    H280250   3.816   1.050   2.453 -3.3365 -1.1238 -1.4119
19587TIP3   OH280251   4.663   2.208   0.460 -0.2316  0.1591 -0.1887
19587TIP3    H180252   4.633   2.285   0.411  1.1034 -0.9672 -2.9423
19587TIP3    H280253   4.740   2.238   0.508  1.5761  0.1551 -2.9113
19588TIP3   OH280254   3.728   0.290   4.049  0.0213 -0.2408  0.3310
19588TIP3    H180255   3.661   0.358   4.045  0.6798  0.6806  2.9565
19588TIP3    H280256   3.797   0.321   3.990 -0.8395 -0.0551 -0.6151
19589TIP3   OH280257   5.353   1.848   3.688  0.3837 -0.2443 -0.1289
19589TIP3    H180258   5.339   1.791   3.612 -0.3099 -1.0286  0.5661
19589TIP3    H280259   5.442   1.881   3.677  0.5242 -0.8597 -0.9494
19590TIP3   OH280260   0.803   5.682   5.035 -0.2938  0.0528  0.2028
19590TIP3    H180261   0.727   5.698   4.979 -1.6917 -0.4599  1.8572
19590TIP3    H280262   0.829   5.769   5.065  0.6767  0.3690 -1.4187
19591TIP3   OH280263   2.155   0.531  15.939 -0.1448 -0.0948 -0.1864
19591TIP3    H180264   2.221   0.476  15.897 -0.8731 -0.5348 -0.7969
19591TIP3    H280265   2.128   0.481  16.016  0.7709  0.4401  0.4918
19592TIP3   OH280266   4.733   3.100  13.895 -0.8318 -0.0254 -0.2308
19592TIP3    H180267   4.716   3.046  13.972  2.4057 -1.3982 -0.3193
19592TIP3    H280268   4.715   3.041  13.821 -0.2174  0.0001 -0.4037
19593TIP3   OH280269   2.094   3.384   6.218  0.0502  0.3763 -0.0277
19593TIP3    H180270   2.187   3.364   6.212 -0.3342 -1.4678 -0.2823
19593TIP3    H280271   2.054   3.337   6.145 -0.9000  2.5712 -1.0248
19594TIP3   OH280272   3.499   4.025  11.479  0.2329 -0.0474 -0.0444
19594TIP3    H180273   3.504   3.954  11.415 -0.6234  0.5715 -0.8355
19594TIP3    H280274   3.589   4.043  11.504  0.5801 -0.2524 -1.1375
19595TIP3   OH280275   3.747   2.925   2.188 -0.4715  0.1840 -0.2197
19595TIP3    H180276   3.686   2.999   2.181  1.6337  1.9632 -0.7172
19595TIP3    H280277   3.738   2.896   2.279 -1.2393  1.1362  0.0317
19596TIP3   OH280278   3.786   2.745  13.031 -0.1506  0.0229 -0.1664
19596TIP3    H180279   3.835   2.752  12.949  0.2510  0.0339  0.0727
19596TIP3    H280280   3.849   2.770  13.099  0.0696 -1.7170  0.3208
19597TIP3   OH280281   6.170   1.224  16.930  0.1660  0.2556 -0.4814
19597TIP3    H180282   6.217   1.149  16.893  0.0362  1.1595 -2.6490
19597TIP3    H280283   6.078   1.201  16.922  0.0892  0.9588 -2.0134
19598TIP3   OH280284   2.410   0.628  13.405  0.0754  0.0945 -0.1192
19598TIP3    H180285   2.454   0.564  13.350  0.1681  0.8787 -0.9846
19598TIP3    H280286   2.480   0.685  13.438 -0.0832  0.2117  0.0228
19599TIP3   OH280287   5.002   1.319  14.129  0.3187  0.0687  0.7497
19599TIP3    H180288   5.068   1.331  14.198  0.6193  1.4014  0.2817
19599TIP3    H280289   4.928   1.371  14.159  0.9916  1.8970 -0.5590
19600TIP3   OH280290   3.537   3.407   3.528 -0.1838  0.6703  0.1500
19600TIP3    H180291   3.565   3.476   3.468  1.6962 -0.3228 -0.1982
19600TIP3    H280292   3.449   3.384   3.500 -0.4213  2.1742 -0.4029
19601TIP3   OH280293   0.790   6.548   0.419  0.1009 -0.3252 -0.4238
19601TIP3    H180294   0.769   6.505   0.337 -0.7835  2.1389 -1.5896
19601TIP3    H280295   0.719   6.611   0.432  1.1593  0.5854  1.2871
19602TIP3   OH280296   4.154   5.773   5.426 -0.1085  0.0039 -0.5702
19602TIP3    H180297   4.174   5.866   5.411 -0.7681  0.3409  0.5093
19602TIP3    H280298   4.059   5.769   5.421 -0.2231 -0.2459  1.2435
19603TIP3   OH280299   1.132   2.216  11.765  0.0504  0.6021  0.1464
19603TIP3    H180300   1.148   2.129  11.802  0.7260  0.4967 -0.3790
19603TIP3    H280301   1.174   2.277  11.826 -2.2929  0.7845  1.7358
19604TIP3   OH280302   0.779   0.346   1.014 -0.2718 -0.3355 -0.4770
19604TIP3    H180303   0.854   0.321   1.069 -0.3177 -0.3876 -0.4378
19604TIP3    H280304   0.772   0.275   0.950 -0.7759 -0.7324  0.0081
19605TIP3   OH280305   2.341   5.829   2.376  0.5646 -0.5846  0.1976
19605TIP3    H180306   2.422   5.848   2.330  0.7935  1.7844  1.4302
19605TIP3    H280307   2.305   5.751   2.331  1.5419  0.5863 -2.8851
19606TIP3   OH280308   6.693   2.078   3.076  0.0318  0.0631  0.0198
19606TIP3    H180309   6.637   2.153   3.058 -0.3260 -0.4994 -1.2714
19606TIP3    H280310   6.641   2.021   3.133 -0.3737 -0.0276 -0.4376
19607TIP3   OH280311   4.543   4.597  11.938 -0.3892  0.2353  0.8280
19607TIP3    H180312   4.573   4.651  12.011  1.0237  0.6656 -0.0205
19607TIP3    H280313   4.458   4.633  11.915  0.5075  2.1612  0.2922
19608TIP3   OH280314   1.704   0.184   4.888  0.4022 -0.0335 -0.1154
19608TIP3    H180315   1.667   0.138   4.813 -0.5401 -1.6198  1.2467
19608TIP3    H280316   1.783   0.136   4.910 -1.0079 -1.6495  1.8086
19609TIP3   OH280317   0.630   2.038  15.390 -0.7298 -0.0456 -0.1281
19609TIP3    H180318   0.588   2.016  15.307 -0.4057  0.2000 -0.3606
19609TIP3    H280319   0.592   2.122  15.415 -0.5844  0.0441 -0.2016
19610TIP3   OH280320   1.318   0.805  17.271 -0.6435 -0.3458  0.3562
19610TIP3    H180321   1.394   0.805  17.214 -1.1929 -0.5870 -0.3967
19610TIP3    H280322   1.345   0.756  17.349 -0.3711 -1.3468 -0.3649
19611TIP3   OH280323   4.924   3.193   3.951 -0.4388 -0.3046 -0.0930
19611TIP3    H180324   4.864   3.171   4.022  1.1251  0.2037  1.4618
19611TIP3    H280325   4.875   3.173   3.871 -2.4218 -0.4891  1.0967
19612TIP3   OH280326   0.698   5.974  14.464  0.1595 -0.1890  0.3468
19612TIP3    H180327   0.766   5.936  14.409 -0.3750 -0.5223 -0.1016
19612TIP3    H280328   0.627   5.996  14.402 -0.6590 -1.0360  0.9658
19613TIP3   OH280329   0.653   6.482  11.575 -0.3112 -0.4318 -0.5874
19613TIP3    H180330   0.565   6.469  11.538 -0.2817 -0.1720 -0.7488
19613TIP3    H280331   0.704   6.520  11.503  0.2422 -1.6311 -0.8524
19614TIP3   OH280332   6.471   1.491  16.741 -0.4026  0.3853  0.2532
19614TIP3    H180333   6.547   1.540  16.709  1.0636 -1.7054  0.3374
19614TIP3    H280334   6.423   1.467  16.662 -0.7376  1.2919  0.1678
19615TIP3   OH280335   6.279   4.561   0.067  0.1518  1.1003 -0.3182
19615TIP3    H180336   6.270   4.592  -0.023 -0.2784  0.9736 -0.3175
19615TIP3    H280337   6.190   4.554   0.100  0.1524 -1.2898 -0.7016
19616TIP3   OH280338   2.825   0.181  15.320  0.0248  0.8870 -0.0648
19616TIP3    H180339   2.852   0.219  15.237  1.9970  0.1658  0.1949
19616TIP3    H280340   2.903   0.137  15.353 -1.2718 -0.5649  1.2200
19617TIP3   OH280341   3.902   1.895  12.068  0.0418 -0.3689  0.2259
19617TIP3    H180342   3.920   1.933  11.981 -0.4694 -0.1496  0.2148
19617TIP3    H280343   3.961   1.819  12.073 -0.0916 -0.5196 -0.4063
19618TIP3   OH280344   5.270   1.910   5.501  0.5360 -0.2183  0.3103
19618TIP3    H180345   5.258   1.995   5.458  1.0263  0.3044  1.1911
19618TIP3    H280346   5.224   1.848   5.443  0.9619  0.4972 -0.8381
19619TIP3   OH280347   3.733   3.646  13.642 -0.9833  0.0567 -0.1857
19619TIP3    H180348   3.652   3.610  13.680 -0.0170 -1.5525  0.4728
19619TIP3    H280349   3.790   3.659  13.718 -0.5977  1.1435 -0.6493
19620TIP3   OH280350   1.730   6.669   4.332 -0.0311  0.0512  0.6525
19620TIP3    H180351   1.717   6.637   4.243  1.0112 -0.4460  0.6657
19620TIP3    H280352   1.660   6.733   4.345 -0.4682 -0.2059 -0.3580
19621TIP3   OH280353   5.267   3.335  11.992  0.4730  0.4850  0.4353
19621TIP3    H180354   5.174   3.342  11.969  0.2244 -1.7552  0.5480
19621TIP3    H280355   5.289   3.421  12.026 -1.5562  1.0983  0.3569
19622TIP3   OH280356   2.659   4.087   5.082 -0.1597 -0.5868  0.2420
19622TIP3    H180357   2.628   4.006   5.124 -1.4977 -1.4759 -2.2573
19622TIP3    H280358   2.646   4.072   4.988  1.2836  1.8578 -0.4466
19623TIP3   OH280359   1.975   6.718  17.020  0.6053  0.3790  0.4368
19623TIP3    H180360   2.025   6.778  17.075  1.1534 -0.6369  1.0978
19623TIP3    H280361   1.933   6.658  17.082 -0.8252  0.7435 -0.1522
19624TIP3   OH280362   6.437   3.329   2.928 -0.4798  0.7222  0.1152
19624TIP3    H180363   6.412   3.419   2.952 -1.7693  0.5042 -0.3211
19624TIP3    H280364   6.371   3.274   2.969 -3.0432  0.3286 -3.9401
19625TIP3   OH280365   1.161   0.019  11.196 -0.3392  0.1677  0.1086
19625TIP3    H180366   1.256   0.030  11.201 -0.3598  0.8803 -0.7866
19625TIP3    H280367   1.131   0.022  11.286  0.5295 -0.5108  0.4374
19626TIP3   OH280368   5.119   1.097   5.284 -0.1077  0.1293  0.0974
19626TIP3    H180369   5.135   1.012   5.325 -0.7004  0.3611  0.8499
19626TIP3    H280370   5.187   1.154   5.320  1.1453 -0.3210 -1.4537
19627TIP3   OH280371   5.251   1.219   0.819 -0.1178 -0.0947 -0.3048
19627TIP3    H180372   5.167   1.188   0.852 -0.1931 -0.5060 -0.8761
19627TIP3    H280373   5.316   1.178   0.877 -0.3123  0.4999  0.3534
19628TIP3   OH280374   3.379   1.282   4.216  0.3903 -0.4964 -0.2329
19628TIP3    H180375   3.368   1.376   4.229  1.5472 -0.4171  0.3239
19628TIP3    H280376   3.464   1.262   4.256 -1.0397 -2.2700  2.1691
19629TIP3   OH280377   6.044   6.155   2.532  0.3677  0.4806  0.0006
19629TIP3    H180378   6.012   6.085   2.590  1.1918  0.2585  0.2032
19629TIP3    H280379   6.083   6.109   2.458  1.3647  0.6990  0.3718
19630TIP3   OH280380   6.405   3.971  10.981 -0.3656  0.1168 -0.1611
19630TIP3    H180381   6.381   3.887  11.020 -1.6961  1.4981  2.2118
19630TIP3    H280382   6.342   4.033  11.017  0.8860  2.2370 -1.4278
19631TIP3   OH280383   0.736   4.541  15.994  0.0170  0.1357  0.1633
19631TIP3    H180384   0.782   4.598  15.932  0.0104  0.7065  0.6747
19631TIP3    H280385   0.659   4.510  15.946 -0.2968  1.0283  0.0624
19632TIP3   OH280386   6.538   4.974   6.774  0.0148  0.1502  0.0215
19632TIP3    H180387   6.590   5.031   6.831 -0.1513  0.4588 -0.1307
19632TIP3    H280388   6.472   4.935   6.831  1.2913 -1.3770  0.5234
19633TIP3   OH280389   3.164   5.508  16.008  0.4968 -0.0003 -0.3285
19633TIP3    H180390   3.164   5.565  16.086 -0.3230  0.0454 -0.3508
19633TIP3    H280391   3.213   5.431  16.035  0.5401  0.1765  0.1186
19634TIP3   OH280392   3.239   6.370   1.251 -0.2024  0.1863 -0.2100
19634TIP3    H180393   3.165   6.337   1.200  0.8393 -0.8335 -1.1038
19634TIP3    H280394   3.295   6.414   1.187  0.9435 -0.7930  0.0807
19635TIP3   OH280395   0.572   1.962  16.786 -0.5927  0.4438 -0.4952
19635TIP3    H180396   0.546   1.914  16.865 -0.1183  2.2161  0.8020
19635TIP3    H280397   0.540   1.908  16.713 -1.0883 -1.2211  0.8915
19636TIP3   OH280398   5.235   4.436   2.860  0.0135 -0.2896  0.2297
19636TIP3    H180399   5.213   4.499   2.791  2.1969 -0.8278 -1.0477
19636TIP3    H280400   5.302   4.480   2.913 -0.2475 -0.6170  0.8444
19637TIP3   OH280401   2.567   4.312  11.739 -0.3903 -0.1601 -0.4026
19637TIP3    H180402   2.550   4.221  11.716  0.7919 -0.3165 -0.6741
19637TIP3    H280403   2.609   4.349  11.661  1.8560 -0.1803  0.7463
19638TIP3   OH280404   5.742   1.184   3.397 -0.0476  0.5499 -0.2071
19638TIP3    H180405   5.678   1.166   3.466 -0.2786  0.5507 -0.4209
19638TIP3    H280406   5.689   1.205   3.320  0.0961 -2.3814 -1.2325
19639TIP3   OH280407   5.047   0.619   4.005  0.1698  0.2261 -0.2621
19639TIP3    H180408   4.970   0.595   4.058 -0.2701  0.5362 -0.7479
19639TIP3    H280409   5.098   0.677   4.061  0.6905 -0.9423  0.5278
19640TIP3   OH280410   4.715   2.501   1.781  0.7011 -0.1389 -0.1967
19640TIP3    H180411   4.736   2.480   1.690  3.3243 -0.2373  0.3684
19640TIP3    H280412   4.796   2.486   1.829 -0.3722  0.7465  2.0472
19641TIP3   OH280413   0.150   6.031  16.511  0.2340 -1.0185  0.6411
19641TIP3    H180414   0.126   6.121  16.534 -2.1688 -2.0074  2.5120
19641TIP3    H280415   0.090   6.008  16.441  1.5815 -0.8672 -0.6002
19642TIP3   OH280416   0.304   5.896   5.789  0.0075  0.3060  0.4666
19642TIP3    H180417   0.327   5.887   5.881 -0.1951  0.7965  0.5637
19642TIP3    H280418   0.326   5.810   5.751 -2.3733 -0.8501  1.4958
19643TIP3   OH280419   3.218   4.234  15.194  0.3761 -0.5661  0.1949
19643TIP3    H180420   3.153   4.214  15.262  0.6373 -0.6250  0.4281
19643TIP3    H280421   3.276   4.297  15.236  0.3246 -0.3246 -0.0989
19644TIP3   OH280422   2.811   3.368  17.176  0.7569  0.4987  0.1493
19644TIP3    H180423   2.802   3.447  17.123 -3.3841  1.5710  2.0144
19644TIP3    H280424   2.860   3.396  17.254 -0.2058  1.1725  0.5393
19645TIP3   OH280425   6.339   3.074   2.316  0.5014 -0.3301  0.4332
19645TIP3    H180426   6.424   3.063   2.273  0.9421 -2.9307  1.7753
19645TIP3    H280427   6.359   3.120   2.398  0.3576  0.3867  0.0772
19646TIP3   OH280428   0.576   5.732  16.310 -0.0116  0.1871  0.1641
19646TIP3    H180429   0.567   5.742  16.405  0.7573 -1.3172  0.4218
19646TIP3    H280430   0.631   5.655  16.299  0.7406  0.9079 -1.5017
19647TIP3   OH280431   5.412   2.368  11.332 -0.2890 -0.0044 -0.1609
19647TIP3    H180432   5.440   2.444  11.282  1.9608 -1.0611 -0.6401
19647TIP3    H280433   5.482   2.353  11.395 -1.2582 -0.9863  0.7422
19648TIP3   OH280434   2.520   3.078  12.844  0.1206  0.4538 -0.3556
19648TIP3    H180435   2.443   3.092  12.789 -1.4607 -0.0548  1.5930
19648TIP3    H280436   2.507   3.137  12.919  0.4776 -1.2068  1.0764
19649TIP3   OH280437   0.184   2.261   3.522 -0.0281 -0.2340  0.2905
19649TIP3    H180438   0.158   2.169   3.510 -0.3688  0.0465 -1.4568
19649TIP3    H280439   0.243   2.278   3.448  0.6288  0.7487  1.0229
19650TIP3   OH280440   3.387   3.739   0.916 -0.0361 -0.1585  0.0204
19650TIP3    H180441   3.418   3.733   1.007  0.8378  1.4056 -0.1429
19650TIP3    H280442   3.374   3.833   0.901  4.0153  0.2113 -2.7538
19651TIP3   OH280443   5.163   6.563   3.330 -0.6674 -0.6375 -0.5195
19651TIP3    H180444   5.163   6.472   3.359  1.5145 -0.4900  0.1347
19651TIP3    H280445   5.107   6.609   3.393  1.1077 -0.9524  1.3833
19652TIP3   OH280446   3.920   2.261   0.494  0.6130  0.0556  0.3329
19652TIP3    H180447   3.893   2.171   0.515  1.1976 -0.7467 -1.9919
19652TIP3    H280448   3.856   2.316   0.538 -1.3179 -1.6119 -0.2123
19653TIP3   OH280449   1.767   1.793  13.783  0.6056 -0.2179  0.3238
19653TIP3    H180450   1.674   1.818  13.775  1.3466  2.5161 -1.3900
19653TIP3    H280451   1.776   1.716  13.727 -0.2763  0.8554 -1.4116
19654TIP3   OH280452   6.438   2.037   2.272 -0.0813  0.0277 -0.2065
19654TIP3    H180453   6.360   2.091   2.289 -0.3544  0.1780 -1.7891
19654TIP3    H280454   6.510   2.086   2.312 -0.4444  1.1890 -0.9242
19655TIP3   OH280455   5.076   6.520   5.033 -0.0339  0.1923 -0.1521
19655TIP3    H180456   5.024   6.497   5.109  0.0704 -0.2705 -0.2157
19655TIP3    H280457   5.021   6.495   4.958 -0.5225  1.5031 -0.2441
19656TIP3   OH280458   0.023   6.770  13.601 -0.2400  0.5655  0.1681
19656TIP3    H180459  -0.052   6.745  13.546 -0.2740 -0.8994  0.8288
19656TIP3    H280460   0.099   6.759  13.544 -0.1656 -2.0491  0.6823
19657TIP3   OH280461   5.709   1.666  14.285  0.0406 -0.0438  0.0507
19657TIP3    H180462   5.743   1.580  14.312 -2.3505 -1.2097 -0.3998
19657TIP3    H280463   5.741   1.727  14.352  2.0001 -1.2120  0.2496
19658TIP3   OH280464   4.870   4.055  12.785 -0.3630  0.2897  0.0671
19658TIP3    H180465   4.874   3.982  12.724 -1.0585 -0.5456  0.9936
19658TIP3    H280466   4.922   4.027  12.860  1.3518  1.7213 -0.5080
19659TIP3   OH280467   2.431   2.463   5.611  0.4457 -0.1087  0.3850
19659TIP3    H180468   2.423   2.537   5.551  0.6639  0.7183  1.3578
19659TIP3    H280469   2.358   2.473   5.671  0.5353 -0.6278  0.5835
19660TIP3   OH280470   4.321   0.483   4.567 -0.1229  0.0626 -0.1452
19660TIP3    H180471   4.389   0.550   4.559 -2.0527  2.5523  2.2672
19660TIP3    H280472   4.367   0.400   4.554  2.9298  1.6923 -0.6673
19661TIP3   OH280473   0.476   2.056   3.652 -0.0410  0.4442  0.5271
19661TIP3    H180474   0.421   1.990   3.693 -0.3516 -0.1114 -0.7531
19661TIP3    H280475   0.536   2.007   3.596 -0.0804  1.2160 -0.2156
19662TIP3   OH280476   2.090   0.753  15.459 -0.2648 -0.3018  0.1190
19662TIP3    H180477   2.013   0.809  15.458 -0.7180 -0.9135  0.2394
19662TIP3    H280478   2.164   0.814  15.469 -0.5155  0.4984 -2.3102
19663TIP3   OH280479   2.140   3.569  15.096  0.1933 -0.3171  0.5260
19663TIP3    H180480   2.089   3.498  15.136 -0.2215 -1.0360 -1.2066
19663TIP3    H280481   2.210   3.525  15.049  0.7152  0.5088  0.5128
19664TIP3   OH280482   6.587   5.646  11.921 -0.5335  0.4143  0.0372
19664TIP3    H180483   6.524   5.718  11.926 -1.7939 -0.6526  0.2228
19664TIP3    H280484   6.645   5.659  11.996 -1.4989  0.5841  0.7835
19665TIP3   OH280485   6.252   5.129   1.845  0.0252 -0.1769 -0.4006
19665TIP3    H180486   6.205   5.127   1.928 -2.7016  1.0819 -1.7815
19665TIP3    H280487   6.320   5.195   1.857 -0.5505  0.2235  0.7270
19666TIP3   OH280488   5.495   2.592   0.308  0.1461 -0.5249  0.1940
19666TIP3    H180489   5.466   2.645   0.382 -0.0661 -0.0243 -0.2422
19666TIP3    H280490   5.418   2.540   0.285 -0.9063  1.7530 -1.8042
19667TIP3   OH280491   1.114   2.731   2.491  0.6842  0.0199 -0.5983
19667TIP3    H180492   1.085   2.804   2.546  3.6066  0.6083  0.3465
19667TIP3    H280493   1.066   2.656   2.523 -0.8003  1.1305 -0.1236
19668TIP3   OH280494   2.755   1.084  13.540 -0.3503  0.8714  0.0285
19668TIP3    H180495   2.790   1.161  13.585 -2.1011  1.6928  0.0893
19668TIP3    H280496   2.668   1.071  13.579 -0.1948 -1.0063 -0.1546
19669TIP3   OH280497   1.345   6.268  15.783  0.4784  0.1716  0.6014
19669TIP3    H180498   1.305   6.311  15.708  1.5080 -0.3235 -0.2532
19669TIP3    H280499   1.271   6.239  15.837 -0.3452 -0.9879 -1.0860
19670TIP3   OH280500   2.163   0.429   3.254 -0.4171 -0.0115 -0.5593
19670TIP3    H180501   2.072   0.405   3.236 -0.1531 -0.4188 -1.4465
19670TIP3    H280502   2.158   0.509   3.305 -1.3246 -1.2468  1.4239
19671TIP3   OH280503   1.088   6.370  16.524 -0.2158  0.2222 -0.2506
19671TIP3    H180504   1.017   6.417  16.567  0.7825  0.9846  0.5725
19671TIP3    H280505   1.123   6.312  16.591 -0.9045 -1.1493 -1.0290
19672TIP3   OH280506   5.010   4.477  11.707  0.0638  0.8214 -0.0322
19672TIP3    H180507   5.040   4.390  11.680  0.3667  1.1245 -0.6711
19672TIP3    H280508   4.918   4.464  11.730  0.2689  0.2011  0.4940
19673TIP3   OH280509   1.837   3.893  12.480  0.2221  0.4558  0.5343
19673TIP3    H180510   1.833   3.896  12.385 -0.6039  0.6165  0.5723
19673TIP3    H280511   1.827   3.984  12.508 -1.8100  0.1847  0.8414
19674TIP3   OH280512   0.904   1.837  11.372 -0.7767 -0.4666  0.1407
19674TIP3    H180513   0.829   1.780  11.387 -0.2456 -0.9319  1.1469
19674TIP3    H280514   0.872   1.905  11.312 -2.2650 -0.1112  1.2935
19675TIP3   OH280515   0.071   0.215   5.002 -0.0927 -0.3367  0.4592
19675TIP3    H180516   0.135   0.163   5.050  0.8026 -0.4084 -0.7847
19675TIP3    H280517   0.103   0.216   4.912 -1.3914  0.3391 -0.0195
19676TIP3   OH280518   3.497   3.863   4.924  0.1957 -0.2171  0.0981
19676TIP3    H180519   3.513   3.906   4.840  0.9993 -0.6084  0.0456
19676TIP3    H280520   3.564   3.898   4.982 -0.1099 -0.2499  0.4748
19677TIP3   OH280521   4.748   2.190   4.622 -0.4645 -0.0688 -0.2720
19677TIP3    H180522   4.791   2.272   4.597 -0.2886  0.1999  0.8797
19677TIP3    H280523   4.818   2.138   4.662 -0.6188 -0.7147 -0.8353
19678TIP3   OH280524   2.729   5.049  14.964  0.1486 -0.2675 -0.1994
19678TIP3    H180525   2.718   4.964  15.005  0.9119  0.1279  0.8554
19678TIP3    H280526   2.759   5.029  14.875 -0.6024 -1.1066 -0.2793
19679TIP3   OH280527   2.204   0.954  13.217 -0.1546 -0.0694  0.2954
19679TIP3    H180528   2.276   1.009  13.249 -0.5124  0.3162  0.4459
19679TIP3    H280529   2.246   0.871  13.193 -0.0035 -0.7041  2.5708
19680TIP3   OH280530   4.766   1.108  14.016 -0.3153 -1.1300 -0.2074
19680TIP3    H180531   4.861   1.110  14.029 -0.2497 -1.7770 -0.5356
19680TIP3    H280532   4.730   1.145  14.097  0.2471  0.6427 -0.7163
19681TIP3   OH280533   2.102   6.041  15.985  0.9443 -0.4743 -0.0585
19681TIP3    H180534   2.108   6.118  16.042  0.0108 -1.4378  1.4195
19681TIP3    H280535   2.122   5.967  16.042  2.1694 -1.3381 -1.5373
19682TIP3   OH280536   4.395   6.198  12.802 -0.1558  0.6273  0.0556
19682TIP3    H180537   4.349   6.211  12.719  0.0580  1.8334  0.1077
19682TIP3    H280538   4.351   6.255  12.864  1.9542  2.6264 -0.1291
19683TIP3   OH280539   3.113   0.067   4.222 -0.2486 -0.7327 -0.2300
19683TIP3    H180540   3.204   0.038   4.222  0.3840  1.1181  0.4129
19683TIP3    H280541   3.117   0.159   4.196 -2.0478 -0.8794 -1.1705
19684TIP3   OH280542   0.954   6.129  12.502 -0.4400  0.0925 -0.3261
19684TIP3    H180543   1.040   6.153  12.468 -0.1798  1.0255  0.9114
19684TIP3    H280544   0.914   6.077  12.432  1.0880 -0.2998 -0.9528
19685TIP3   OH280545   6.148   6.161  11.473 -0.1549  0.3345 -0.2530
19685TIP3    H180546   6.085   6.124  11.411 -0.2877  1.9936 -1.1464
19685TIP3    H280547   6.156   6.094  11.541 -1.7769 -0.5318 -0.8606
19686TIP3   OH280548   2.857   1.146  14.883  0.4121 -0.0329 -0.6239
19686TIP3    H180549   2.831   1.237  14.895  0.1203 -0.1471 -0.3542
19686TIP3    H280550   2.950   1.144  14.905  0.4572  0.2279 -0.7847
19687TIP3   OH280551   5.401   1.694   6.025 -0.2462  0.1515 -1.3617
19687TIP3    H180552   5.376   1.720   6.114  3.0649 -1.1830  0.1190
19687TIP3    H280553   5.326   1.719   5.971 -2.7656  0.2977  1.8784
19688TIP3   OH280554   4.759   2.145   6.111  0.1450 -0.2444 -0.6740
19688TIP3    H180555   4.717   2.178   6.191  0.7242  1.1395 -0.8964
19688TIP3    H280556   4.756   2.219   6.050  1.8016 -0.4719 -1.0980
19689TIP3   OH280557   4.728   3.334   4.747  0.0664  0.1601 -0.5826
19689TIP3    H180558   4.770   3.250   4.764 -1.5297 -1.0763 -2.3234
19689TIP3    H280559   4.762   3.361   4.661 -0.0442  0.8848 -0.4044
19690TIP3   OH280560   4.630   2.981  13.086 -0.5148  0.2106  0.0083
19690TIP3    H180561   4.710   3.020  13.050 -0.6388  0.9538  0.5006
19690TIP3    H280562   4.563   3.048  13.072 -1.1697 -0.6066 -0.8476
19691TIP3   OH280563   0.300   6.472  14.613 -0.4335  0.2380  0.5795
19691TIP3    H180564   0.284   6.423  14.694 -0.4513  1.0697  1.0880
19691TIP3    H280565   0.278   6.410  14.543 -1.0871 -0.2662  1.2111
19692TIP3   OH280566   6.246   5.631   5.419  0.3492 -1.0812  0.3024
19692TIP3    H180567   6.334   5.668   5.418 -0.8707  2.1383 -0.7836
19692TIP3    H280568   6.207   5.662   5.501 -0.4623 -0.5152 -0.2750
19693TIP3   OH280569   5.069   3.449   4.035  0.6967 -0.0313 -0.5360
19693TIP3    H180570   5.004   3.438   3.966  0.2085  0.0960 -0.1065
19693TIP3    H280571   5.138   3.503   3.996  1.3072 -1.4561 -1.4895
19694TIP3   OH280572   1.357   5.257   5.865 -0.2642 -0.1187  0.2354
19694TIP3    H180573   1.403   5.270   5.948 -1.2305  1.1037  0.6176
19694TIP3    H280574   1.404   5.312   5.803 -0.8168  0.6590  0.4883
19695TIP3   OH280575   0.663   5.247  11.686 -0.4149 -0.1601 -0.6363
19695TIP3    H180576   0.709   5.191  11.624  1.1642  0.8847 -0.4562
19695TIP3    H280577   0.702   5.228  11.771 -0.7207  0.3312 -0.3765
19696TIP3   OH280578   5.639   5.228  12.252 -0.0131 -0.4464 -0.2601
19696TIP3    H180579   5.674   5.139  12.242 -0.0121 -0.5670  0.6589
19696TIP3    H280580   5.545   5.215  12.268 -0.1259 -0.2434 -0.7546
19697TIP3   OH280581   4.197   2.750   1.994  0.9665 -0.0342  0.2090
19697TIP3    H180582   4.102   2.738   2.002  1.1740 -0.9220  1.7700
19697TIP3    H280583   4.226   2.678   1.939  0.6730  0.6119 -0.8147
19698TIP3   OH280584   2.458   3.286  13.052 -0.3457  0.1394  0.6666
19698TIP3    H180585   2.471   3.270  13.146 -0.3939 -1.2906  0.4490
19698TIP3    H280586   2.364   3.275  13.039 -0.2502 -0.3467  0.3479
19699TIP3   OH280587   2.657   4.164  14.612  0.2296 -0.3403 -0.5748
19699TIP3    H180588   2.645   4.083  14.662 -0.2692  0.5026  0.7138
19699TIP3    H280589   2.747   4.157  14.578  0.6664 -0.8495  0.6175
19700TIP3   OH280590   5.870   5.055  14.322 -0.1167 -0.1805 -0.3080
19700TIP3    H180591   5.962   5.078  14.313 -0.0689  1.1813  2.5413
19700TIP3    H280592   5.870   4.979  14.380 -0.7858 -0.0889 -0.1831
19701TIP3   OH280593   2.007   2.048  14.724 -0.6612 -0.1703 -0.4324
19701TIP3    H180594   1.928   2.002  14.751 -0.1224  0.1872  1.9042
19701TIP3    H280595   1.976   2.128  14.683 -1.5173 -0.0682  0.3937
19702TIP3   OH280596   1.424   1.187   4.801  0.0792 -0.1056 -0.0500
19702TIP3    H180597   1.448   1.152   4.715  0.7994  0.4322 -0.0767
19702TIP3    H280598   1.462   1.275   4.803  0.4130 -0.2630  0.9707
19703TIP3   OH280599   1.514   3.035   3.269 -0.3995  0.7392 -0.6648
19703TIP3    H180600   1.513   2.944   3.299 -0.3938  1.7702  2.8833
19703TIP3    H280601   1.605   3.051   3.246 -0.3637 -0.0624 -1.1316
19704TIP3   OH280602   4.288   5.386  17.302  0.0686 -0.0645 -0.7632
19704TIP3    H180603   4.231   5.317  17.337 -0.9035  0.3282 -1.5432
19704TIP3    H280604   4.263   5.465  17.350  0.6293 -0.0822 -0.4354
19705TIP3   OH280605   5.032   4.935  16.722  0.3755  0.0975 -0.3263
19705TIP3    H180606   5.085   4.965  16.795  0.4559 -0.2830 -0.2236
19705TIP3    H280607   5.083   4.957  16.644  0.6367 -0.1682 -0.2326
19706TIP3   OH280608   3.646   0.814  14.328 -0.3120 -0.4759 -0.0721
19706TIP3    H180609   3.660   0.771  14.243  0.7844 -0.2725 -0.0078
19706TIP3    H280610   3.659   0.907  14.310  0.9169 -0.5148  0.4915
19707TIP3   OH280611   3.594   1.427  13.180  0.3642  0.2069  0.7081
19707TIP3    H180612   3.658   1.484  13.137 -0.7613  0.8181 -0.1759
19707TIP3    H280613   3.528   1.486  13.215  0.2741 -0.4192  1.6300
19708TIP3   OH280614   4.706   5.007   0.254  0.4958  0.1111  0.4804
19708TIP3    H180615   4.701   5.102   0.266 -0.6926  0.1897 -0.4019
19708TIP3    H280616   4.784   4.981   0.302  2.7991  1.9726 -1.9659
19709TIP3   OH280617   0.024   4.292  11.683 -0.2495 -0.2125  0.9828
19709TIP3    H180618   0.067   4.328  11.606  2.5255  0.1060  2.5542
19709TIP3    H280619  -0.018   4.211  11.651  0.0032  0.3867 -0.9988
19710TIP3   OH280620   5.523   2.488   6.675  0.1262 -0.2540 -0.0530
19710TIP3    H180621   5.429   2.507   6.678  0.1674 -0.0788  2.5741
19710TIP3    H280622   5.529   2.393   6.686  0.2379 -0.8888 -4.0801
19711TIP3   OH280623   0.157   2.409   1.829  0.1996  0.3367 -0.2841
19711TIP3    H180624   0.105   2.334   1.858  0.7272  0.5319  1.2418
19711TIP3    H280625   0.123   2.429   1.742 -3.0607  1.1592  1.0324
19712TIP3   OH280626   4.973   2.335   2.300 -0.1936 -0.0016 -0.3710
19712TIP3    H180627   4.890   2.328   2.348 -0.8407  1.3877 -1.2192
19712TIP3    H280628   5.007   2.421   2.324  2.2679 -1.4284  1.8305
19713TIP3   OH280629   1.896   1.455  15.227 -0.6908 -0.2375 -0.4109
19713TIP3    H180630   1.813   1.426  15.189 -1.0154 -1.0861  0.8797
19713TIP3    H280631   1.904   1.547  15.201 -1.8396 -0.2558 -0.8691
19714TIP3   OH280632   4.958   4.946   5.645  0.1468  0.0087 -0.3512
19714TIP3    H180633   4.902   4.986   5.579 -0.0384  0.3014 -0.0247
19714TIP3    H280634   5.010   4.881   5.598  0.5586  0.7370 -0.9250
19715TIP3   OH280635   5.987   2.980   5.126  0.2862  0.1227 -0.5704
19715TIP3    H180636   6.015   3.062   5.165  0.0053  0.1097 -0.3380
19715TIP3    H280637   5.891   2.986   5.124  0.1511 -0.9088  1.0439
19716TIP3   OH280638   0.627   5.756   1.910  0.2525  0.6450 -0.2133
19716TIP3    H180639   0.533   5.764   1.923 -0.0530 -0.0481 -1.7372
19716TIP3    H280640   0.663   5.841   1.935 -0.7524  0.8509  0.5611
19717TIP3   OH280641   0.691   4.916   5.447 -0.3846  0.0704  0.1288
19717TIP3    H180642   0.600   4.938   5.468 -0.6807 -2.9397  2.6910
19717TIP3    H280643   0.684   4.846   5.381 -0.0414 -1.1526  1.3582
19718TIP3   OH280644   2.303   0.934   5.314  0.3250  0.9129  0.4128
19718TIP3    H180645   2.299   0.967   5.225  3.3712  2.3571  0.6964
19718TIP3    H280646   2.260   1.001   5.367 -0.2445  0.7204  0.2036
19719TIP3   OH280647   0.177   2.853   0.701  0.2128 -0.1732 -0.4095
19719TIP3    H180648   0.100   2.896   0.739  0.1953 -0.0561 -0.5777
19719TIP3    H280649   0.207   2.914   0.634  2.1640  1.1845  1.5534
19720TIP3   OH280650   6.354   0.853  15.691  0.2861  0.4986 -0.0946
19720TIP3    H180651   6.259   0.848  15.679  0.3533  0.5861 -0.7269
19720TIP3    H280652   6.375   0.945  15.677  0.4172  0.5530  0.4472
19721TIP3   OH280653   4.796   1.390  13.509  0.3628  0.1248 -0.1291
19721TIP3    H180654   4.727   1.337  13.551 -0.7757  1.7486  0.1288
19721TIP3    H280655   4.876   1.338  13.521 -0.5274 -1.0693  1.0006
19722TIP3   OH280656   1.878   5.273   4.185  0.4986  0.0891 -0.2632
19722TIP3    H180657   1.839   5.361   4.185  0.7799  0.2285  0.6040
19722TIP3    H280658   1.825   5.223   4.247 -0.4167 -0.7243 -1.6684
19723TIP3   OH280659   3.759   1.836   3.791 -0.4435  0.7443 -0.2436
19723TIP3    H180660   3.834   1.810   3.844  1.0362 -0.3630 -2.7162
19723TIP3    H280661   3.789   1.912   3.742 -1.7887  1.7727  0.4748
19724TIP3   OH280662   5.608   5.362  15.457 -0.0248  0.2704 -0.1373
19724TIP3    H180663   5.676   5.327  15.515 -0.5011 -3.0397 -1.3152
19724TIP3    H280664   5.556   5.419  15.512  1.9667  0.5927  1.5488
19725TIP3   OH280665   2.259   3.377   1.323 -0.4965 -0.1433 -0.3928
19725TIP3    H180666   2.336   3.414   1.367  0.2599  0.3152 -2.0450
19725TIP3    H280667   2.290   3.297   1.282 -0.7621  0.2820 -1.4618
19726TIP3   OH280668   5.646   2.382   4.461  0.2930  0.4271  0.0264
19726TIP3    H180669   5.726   2.434   4.462  0.4756  0.1475  0.1004
19726TIP3    H280670   5.600   2.410   4.382  0.9265 -0.1013 -0.5434
19727TIP3   OH280671   3.328   3.055   5.058 -0.1383 -0.3238 -0.0595
19727TIP3    H180672   3.249   3.109   5.059 -0.3848 -0.5897 -1.6514
19727TIP3    H280673   3.305   2.978   5.109 -1.7298 -1.3994 -2.2167
19728TIP3   OH280674   1.360   2.614   0.285 -0.1816  0.0555 -0.6404
19728TIP3    H180675   1.423   2.681   0.260  0.4131  0.2426  1.1613
19728TIP3    H280676   1.290   2.662   0.329 -0.4062 -0.3792 -0.5124
19729TIP3   OH280677   3.500   0.467   5.613 -0.0671 -0.1845  0.0864
19729TIP3    H180678   3.517   0.408   5.687  0.7372 -0.1758 -0.0810
19729TIP3    H280679   3.571   0.531   5.617 -1.1092  0.9751  0.4519
19730TIP3   OH280680   4.372   0.401   3.608 -0.1346 -0.5478 -0.2969
19730TIP3    H180681   4.356   0.399   3.513 -0.3216  0.5249 -0.2957
19730TIP3    H280682   4.295   0.360   3.646 -0.6995  0.2770 -0.5407
19731TIP3   OH280683   6.728   1.105  16.275  0.3802 -0.2882  0.5980
19731TIP3    H180684   6.698   1.025  16.319 -0.3758 -1.0051 -1.1296
19731TIP3    H280685   6.809   1.080  16.232 -0.8923 -0.7968 -1.6630
19732TIP3   OH280686   1.775   4.971   0.168  0.1302 -0.2445 -0.0811
19732TIP3    H180687   1.819   4.887   0.181 -1.2606 -0.7487  1.8051
19732TIP3    H280688   1.839   5.025   0.120  1.7044 -1.8103  0.1626
19733TIP3   OH280689   4.437   5.847   3.163 -0.6601 -0.5848  0.0306
19733TIP3    H180690   4.416   5.781   3.230 -1.0644 -2.3661 -1.7590
19733TIP3    H280691   4.365   5.842   3.101  0.3324  0.0989 -1.2209
19734TIP3   OH280692   3.402   0.562  13.083 -0.1114  1.1791  0.2611
19734TIP3    H180693   3.320   0.563  13.035  0.7264  0.5661 -1.2539
19734TIP3    H280694   3.435   0.652  13.075  0.5784  0.8242 -1.3952
19735TIP3   OH280695   3.999   1.758   3.910 -0.4556  0.2658  0.4370
19735TIP3    H180696   4.009   1.840   3.958  1.2068  0.0657  0.4843
19735TIP3    H280697   4.086   1.719   3.910 -1.0283 -1.0986 -0.3277
19736TIP3   OH280698   4.661   3.938   4.565 -0.2408  0.6422  0.6008
19736TIP3    H180699   4.571   3.918   4.538  0.5559 -0.7227 -1.2455
19736TIP3    H280700   4.686   3.865   4.622  0.8339 -0.9787 -1.7808
19737TIP3   OH280701   4.561   4.972   5.972  0.5874  0.0150 -0.4453
19737TIP3    H180702   4.485   4.914   5.972  0.3181  0.3609 -0.7762
19737TIP3    H280703   4.636   4.915   5.988  0.4455 -0.5696 -1.7821
19738TIP3   OH280704   5.658   1.276   2.701 -0.4787  0.0603  0.0199
19738TIP3    H180705   5.564   1.258   2.710 -0.4738 -1.7460 -2.6533
19738TIP3    H280706   5.663   1.345   2.635  0.1145  0.0002  0.0022
19739TIP3   OH280707   0.623   5.697   3.404  0.3901 -0.1433 -0.7289
19739TIP3    H180708   0.535   5.714   3.437  0.7088  0.3520 -0.1075
19739TIP3    H280709   0.626   5.602   3.391  0.6946 -0.6034  2.0543
19740TIP3   OH280710   5.647   1.863   1.930 -0.0743 -0.3300 -0.3003
19740TIP3    H180711   5.587   1.936   1.915 -0.7746 -1.0359 -1.0347
19740TIP3    H280712   5.674   1.872   2.022 -0.2908  0.7292 -0.3258
19741TIP3   OH280713   4.069   4.142  12.030 -0.2498 -0.3090 -0.2758
19741TIP3    H180714   3.979   4.128  12.058  0.1569  0.4801  1.5344
19741TIP3    H280715   4.101   4.213  12.085  1.0798  0.3431 -1.8008
19742TIP3   OH280716   0.758   0.722   5.176  0.2387 -0.3421  0.3286
19742TIP3    H180717   0.847   0.701   5.205 -0.3277 -0.7277  1.9481
19742TIP3    H280718   0.750   0.817   5.190  0.8323 -0.0504 -1.1779
19743TIP3   OH280719   5.321   4.708   5.639  0.4558 -0.0169  0.6218
19743TIP3    H180720   5.312   4.796   5.602 -0.7714  0.1468  1.2389
19743TIP3    H280721   5.278   4.651   5.576  0.9248 -0.1368  0.4036
19744TIP3   OH280722   1.913   5.671  12.061  0.3088 -0.0563  0.2998
19744TIP3    H180723   1.990   5.690  12.008 -0.1902  0.7968 -0.1367
19744TIP3    H280724   1.914   5.576  12.071 -0.8619 -0.6077 -3.2758
19745TIP3   OH280725   4.608   3.796   2.033 -0.1648 -0.6734  0.2834
19745TIP3    H180726   4.601   3.724   2.095  0.8706 -1.1587 -0.1411
19745TIP3    H280727   4.598   3.875   2.086  1.7109 -1.0339  1.2804
19746TIP3   OH280728   3.854   4.908  16.567  0.1070 -0.1911 -0.1670
19746TIP3    H180729   3.947   4.905  16.589  0.1151 -1.3416 -0.3263
19746TIP3    H280730   3.811   4.938  16.647  0.7741  2.4645 -0.6880
19747TIP3   OH280731   4.651   0.735   1.067 -0.6574  1.0043 -0.0880
19747TIP3    H180732   4.652   0.640   1.058 -1.2313  1.1045 -1.4773
19747TIP3    H280733   4.624   0.750   1.157  0.8342 -0.1444  0.6097
19748TIP3   OH280734   2.302   4.991  16.894 -0.0071  0.1375  0.0504
19748TIP3    H180735   2.327   5.002  16.986 -0.2412 -0.8463  0.2479
19748TIP3    H280736   2.363   5.046  16.846  0.7813 -0.1299  0.7195
19749TIP3   OH280737   4.719   1.102  16.338  0.4192 -0.3482  0.4967
19749TIP3    H180738   4.653   1.143  16.394  1.0950 -0.3752  1.3411
19749TIP3    H280739   4.794   1.088  16.396  1.5505  0.5925 -0.6734
19750TIP3   OH280740   4.436   4.898  15.918  0.1239 -0.1662  0.6318
19750TIP3    H180741   4.501   4.930  15.854 -0.9423 -1.7630 -1.3659
19750TIP3    H280742   4.465   4.809  15.939 -1.0277 -0.6542  0.2243
19751TIP3   OH280743   1.749   2.737  13.669 -0.7467  0.1475  0.0441
19751TIP3    H180744   1.764   2.756  13.762  0.6024  4.0615 -0.7787
19751TIP3    H280745   1.831   2.697  13.640  0.1294  1.9422 -0.0679
19752TIP3   OH280746   6.484   0.419  16.290  0.5553 -0.0349  0.1444
19752TIP3    H180747   6.580   0.419  16.288  0.5491 -0.3698 -1.2109
19752TIP3    H280748   6.460   0.509  16.266  0.5211  0.0428  0.4616
19753TIP3   OH280749   5.406   6.480  11.555 -0.0815 -0.7178 -0.3375
19753TIP3    H180750   5.409   6.387  11.532 -1.9664 -0.9095  0.0742
19753TIP3    H280751   5.427   6.482  11.648 -1.2673 -0.8885 -0.0497
19754TIP3   OH280752   2.125   6.157  14.563 -0.1084  0.9462 -0.5834
19754TIP3    H180753   2.037   6.187  14.540 -0.4867  0.3527  0.0449
19754TIP3    H280754   2.116   6.062  14.573  0.5523  0.9111 -0.2911
19755TIP3   OH280755   4.294   2.647  16.484  0.0453 -0.5783 -0.1243
19755TIP3    H180756   4.289   2.592  16.563  1.4129 -0.3414  0.1578
19755TIP3    H280757   4.297   2.736  16.517 -1.2625 -0.3653 -0.5446
19756TIP3   OH280758   2.223   6.764   5.711  0.2841  0.4374 -0.2749
19756TIP3    H180759   2.299   6.816   5.685  1.0804 -1.5087 -2.0784
19756TIP3    H280760   2.257   6.675   5.722 -1.1464  0.1013  2.1079
19757TIP3   OH280761   3.403   6.239   4.926 -0.5401 -0.0911  0.1637
19757TIP3    H180762   3.356   6.316   4.959 -0.5439  0.3347 -0.7914
19757TIP3    H280763   3.361   6.219   4.843 -0.0649 -0.6879  0.0602
19758TIP3   OH280764   3.447   5.589  11.759 -0.5054  0.3812  0.2468
19758TIP3    H180765   3.480   5.650  11.825  0.6719 -0.3379  0.3539
19758TIP3    H280766   3.525   5.545  11.726 -1.1339  0.3316 -1.2461
19759TIP3   OH280767   1.621   1.443  11.628  0.1347  0.1735  0.1520
19759TIP3    H180768   1.714   1.419  11.622 -0.3167 -1.6236 -0.0522
19759TIP3    H280769   1.576   1.381  11.570 -1.1374  1.4382 -0.2638
19760TIP3   OH280770   1.648   0.825   1.550  0.0503 -0.1109 -0.7727
19760TIP3    H180771   1.556   0.837   1.574  0.1948  0.6196 -0.5762
19760TIP3    H280772   1.652   0.847   1.457 -0.0541 -0.5928 -0.8957
19761TIP3   OH280773   0.291   1.848   0.233 -0.0626 -0.2898  0.5782
19761TIP3    H180774   0.197   1.835   0.249  0.1857 -2.6476  0.4586
19761TIP3    H280775   0.304   1.819   0.143  0.9244 -0.8620  0.8982
19762TIP3   OH280776   0.353   0.499  13.249  0.1172  0.2748  0.4903
19762TIP3    H180777   0.261   0.511  13.228  0.3981 -0.5618 -1.4155
19762TIP3    H280778   0.399   0.563  13.194  0.7602 -0.4186  0.2048
19763TIP3   OH280779   5.699   4.968  16.196  0.1839 -0.0450 -0.0704
19763TIP3    H180780   5.772   4.977  16.135  2.2386 -0.0840  2.2207
19763TIP3    H280781   5.650   5.050  16.187 -0.0336 -0.3592 -2.2450
19764TIP3   OH280782   0.087   1.230   2.271 -0.4598 -0.3970 -0.0296
19764TIP3    H180783   0.106   1.169   2.200 -1.8406  0.7402 -1.4636
19764TIP3    H280784   0.164   1.287   2.275  0.0924 -1.1397  0.1475
19765TIP3   OH280785   4.406   1.967  17.366 -0.0873 -0.6653  0.8312
19765TIP3    H180786   4.374   2.003  17.283 -0.6296  1.4676  1.9094
19765TIP3    H280787   4.329   1.961  17.421  0.4605 -0.9551  1.5772
19766TIP3   OH280788   2.804   2.729  11.989  0.8002 -0.0971 -0.4295
19766TIP3    H180789   2.860   2.657  12.015  0.2722 -0.1164  0.6933
19766TIP3    H280790   2.859   2.807  11.998  2.1301 -0.4372 -3.7802
19767TIP3   OH280791   1.966   1.178   1.635 -0.0046  0.0572 -0.3403
19767TIP3    H180792   1.973   1.271   1.656 -0.4478 -0.1883  0.9301
19767TIP3    H280793   2.056   1.151   1.619  0.1137  0.7305 -0.9066
19768TIP3   OH280794   4.974   1.760  11.563  0.2923  0.0310  0.0489
19768TIP3    H180795   4.983   1.749  11.468  1.0534 -0.2311  0.1417
19768TIP3    H280796   4.882   1.742  11.581  0.4415 -1.3117 -0.4613
19769TIP3   OH280797   6.445   4.317   5.756 -0.2692 -0.1627  0.1109
19769TIP3    H180798   6.503   4.329   5.681  1.2196 -0.8791  1.1062
19769TIP3    H280799   6.459   4.227   5.783  0.4935  0.5481  2.2612
19770TIP3   OH280800   4.464   1.028   1.162 -0.0429  0.0773  0.2755
19770TIP3    H180801   4.389   0.992   1.207 -0.9175 -1.2972 -2.0994
19770TIP3    H280802   4.448   1.123   1.160 -1.7221 -0.1849 -0.1471
19771TIP3   OH280803   2.674   6.471   1.244 -0.1120 -0.1892 -0.0961
19771TIP3    H180804   2.692   6.565   1.242 -2.4190  0.3373  0.6973
19771TIP3    H280805   2.698   6.444   1.332  0.5665 -0.3650 -0.3292
19772TIP3   OH280806   4.343   2.396  13.492  0.2051 -0.0301  0.4516
19772TIP3    H180807   4.350   2.409  13.398  0.3702 -2.1960  0.0998
19772TIP3    H280808   4.406   2.326  13.511 -1.0048 -0.7926  1.8669
19773TIP3   OH280809   5.060   5.579   3.329 -0.8138 -0.2396 -0.7098
19773TIP3    H180810   5.081   5.510   3.393  0.3488  1.8258  1.2981
19773TIP3    H280811   5.105   5.552   3.249 -0.1151 -1.6657  0.1226
19774TIP3   OH280812   5.615   1.131  14.386  0.4546 -0.5530 -0.6060
19774TIP3    H180813   5.632   1.046  14.425  0.6915 -0.2673 -0.0741
19774TIP3    H280814   5.669   1.133  14.307  1.2218 -0.5105 -0.0899
19775TIP3   OH280815   0.158   1.958  15.269  0.3765 -0.2477  0.1061
19775TIP3    H180816   0.146   2.052  15.255  0.1149 -0.1252  1.1198
19775TIP3    H280817   0.083   1.932  15.322  0.2332 -1.1189 -0.4996
19776TIP3   OH280818   6.471   3.660  12.325  0.2352 -0.1334  0.3156
19776TIP3    H180819   6.458   3.751  12.351 -0.5951  0.4976 -2.0709
19776TIP3    H280820   6.410   3.610  12.380 -0.7376  0.9881  0.2850
19777TIP3   OH280821   4.659   4.892   0.679  0.1582 -0.5267  0.5944
19777TIP3    H180822   4.583   4.949   0.691  1.9442  2.3712 -0.7975
19777TIP3    H280823   4.708   4.900   0.762 -0.3958 -1.4242  1.0257
19778TIP3   OH280824   2.729   6.585   3.631  0.3740 -0.4348  0.6133
19778TIP3    H180825   2.680   6.504   3.617  2.0427 -1.1809 -1.5898
19778TIP3    H280826   2.768   6.604   3.546 -0.9706  3.4567  0.6755
19779TIP3   OH280827   0.171   3.148   3.226  0.1661 -0.2750 -0.5533
19779TIP3    H180828   0.084   3.124   3.196  0.3758 -1.0426 -0.5785
19779TIP3    H280829   0.227   3.077   3.194  0.3481 -1.3778  1.9627
19780TIP3   OH280830   3.717   1.621   3.335  0.0100  0.5109  0.7478
19780TIP3    H180831   3.804   1.600   3.371  0.3630  1.3949  0.4185
19780TIP3    H280832   3.729   1.620   3.241 -1.0269 -2.2755  0.5481
19781TIP3   OH280833   5.927   2.439   4.473 -0.0369 -0.6027  0.5912
19781TIP3    H180834   5.955   2.481   4.391  0.5401 -0.1674  0.9957
19781TIP3    H280835   5.910   2.348   4.449 -2.2517  0.0309 -0.5185
19782TIP3   OH280836   6.144   4.390  12.435 -0.9258  0.1615 -0.2084
19782TIP3    H180837   6.154   4.464  12.374  0.0597  1.3071  1.2750
19782TIP3    H280838   6.053   4.361  12.422 -1.2319  1.4055 -1.0909
19783TIP3   OH280839   0.189   5.258  12.457  0.3899  0.5852 -0.1554
19783TIP3    H180840   0.177   5.243  12.551 -0.3431 -2.5394 -0.6319
19783TIP3    H280841   0.116   5.315  12.432 -0.7585 -0.4015  0.8116
19784TIP3   OH280842   2.088   6.486   3.315 -0.0367  0.3560  0.0146
19784TIP3    H180843   2.117   6.577   3.308  1.0960 -0.0346 -0.5723
19784TIP3    H280844   2.165   6.435   3.291 -0.8176 -0.7523 -0.1666
19785TIP3   OH280845   6.194   1.596   3.135  0.0403 -0.3307 -0.2326
19785TIP3    H180846   6.238   1.641   3.208  0.3172  0.8280 -1.0852
19785TIP3    H280847   6.265   1.572   3.076 -0.0781 -2.1377  0.3012
19786TIP3   OH280848   3.308   2.050   6.791  0.2015 -0.1239 -0.4159
19786TIP3    H180849   3.322   2.135   6.748  1.7965 -0.5531 -0.8111
19786TIP3    H280850   3.317   2.069   6.885  2.1883 -0.0954 -0.5715
19787TIP3   OH280851   0.196   4.065   4.087  0.3608  0.0675 -0.0025
19787TIP3    H180852   0.183   4.158   4.106  1.4261 -0.0044  1.1950
19787TIP3    H280853   0.108   4.029   4.083 -0.0681  1.0919 -0.3599
19788TIP3   OH280854   0.307   5.296  13.241 -0.1911 -0.1553  0.5728
19788TIP3    H180855   0.286   5.389  13.250 -0.4600 -0.1310 -0.2760
19788TIP3    H280856   0.402   5.295  13.224 -0.1401 -0.0561  0.8429
19789TIP3   OH280857   2.071   5.647   1.557 -0.0162  0.1422 -0.6732
19789TIP3    H180858   2.126   5.568   1.550  1.0061  0.8273 -0.6509
19789TIP3    H280859   1.998   5.620   1.612  1.3786 -0.2560  1.1073
19790TIP3   OH280860   6.623   2.882  17.121  0.4587 -0.6240 -0.1173
19790TIP3    H180861   6.675   2.808  17.089  1.1837  0.0410 -0.5013
19790TIP3    H280862   6.539   2.843  17.145  0.1250 -1.2718 -2.1599
19791TIP3   OH280863   3.767   4.500   0.957  0.3764 -0.0818 -0.0946
19791TIP3    H180864   3.794   4.408   0.959  1.1192  0.1320  0.1114
19791TIP3    H280865   3.672   4.497   0.947  0.1194 -0.9085  2.0779
19792TIP3   OH280866   0.592   0.939  13.069  0.2871 -0.2932  0.2387
19792TIP3    H180867   0.656   0.869  13.053 -2.0699 -2.4325 -0.3939
19792TIP3    H280868   0.638   0.999  13.128  3.6314 -0.5108 -1.8378
19793TIP3   OH280869   2.399   0.335   1.553  0.2873 -0.1345  0.0568
19793TIP3    H180870   2.340   0.261   1.566  0.2794 -0.0009  0.8678
19793TIP3    H280871   2.401   0.349   1.459 -2.2792  0.9117  0.0879
19794TIP3   OH280872   2.468   5.217   5.840 -0.4107 -0.2849  0.1499
19794TIP3    H180873   2.456   5.199   5.747  0.2393 -0.2002  0.0520
19794TIP3    H280874   2.528   5.291   5.843  0.5561 -1.0624  0.6578
19795TIP3   OH280875   1.732   3.535   1.591  0.4614 -0.7020 -0.2685
19795TIP3    H180876   1.660   3.477   1.616  0.4559 -0.3026  0.6733
19795TIP3    H280877   1.761   3.501   1.506 -1.5486 -0.1910 -1.2130
19796TIP3   OH280878   4.066   2.845  12.943  0.4443  0.2638  0.6690
19796TIP3    H180879   4.117   2.887  13.012 -0.0976  1.7072  0.2149
19796TIP3    H280880   4.127   2.785  12.901  1.1994  0.4879  1.4155
19797TIP3   OH280881   5.905   3.104   4.018 -0.2221 -0.1565 -0.4042
19797TIP3    H180882   5.941   3.169   4.078 -0.5710  0.7518 -1.1687
19797TIP3    H280883   5.976   3.040   4.008  0.9811  1.2460 -1.3476
19798TIP3   OH280884   5.232   0.374   0.692  0.5534  0.0083 -0.0765
19798TIP3    H180885   5.152   0.386   0.641  0.2245  0.9791  0.6551
19798TIP3    H280886   5.282   0.454   0.678  0.1229  0.6153  1.7080
19799TIP3   OH280887   2.543   3.216  13.293  0.2614 -0.0658  0.4240
19799TIP3    H180888   2.635   3.215  13.320  0.2667  1.4398  0.5527
19799TIP3    H280889   2.494   3.194  13.373  0.4787  0.0743  0.5978
19800TIP3   OH280890   0.900   0.842   5.558 -0.0389 -0.3990  0.2992
19800TIP3    H180891   0.985   0.798   5.560  1.4088  2.1764  1.3191
19800TIP3    H280892   0.912   0.914   5.495 -1.2894  0.2832  0.8014
19801TIP3   OH280893   6.458   0.357   5.974  0.1693  0.3251 -0.4048
19801TIP3    H180894   6.397   0.283   5.976 -0.1019  0.4043 -2.9059
19801TIP3    H280895   6.413   0.427   6.019 -0.2499 -0.5394  0.5596
19802TIP3   OH280896   3.129   1.907   1.205 -0.1052  0.3855 -0.8103
19802TIP3    H180897   3.107   1.820   1.239  0.0942 -0.0393 -1.7308
19802TIP3    H280898   3.101   1.904   1.114 -0.0254  1.2747 -0.8696
19803TIP3   OH280899   5.857   5.698   3.553  0.6123  0.9810  0.3593
19803TIP3    H180900   5.859   5.737   3.466 -0.7528 -0.9708 -0.6159
19803TIP3    H280901   5.942   5.653   3.561  0.5440  0.7473 -0.1765
19804TIP3   OH280902   5.448   6.579  16.236  0.1750 -0.0137  0.2526
19804TIP3    H180903   5.457   6.669  16.267 -0.7827  0.6459 -1.2738
19804TIP3    H280904   5.495   6.578  16.152  1.2667 -1.2998  0.8409
19805TIP3   OH280905   1.219   4.636  10.776 -0.2290 -0.1979  1.0557
19805TIP3    H180906   1.216   4.579  10.699 -0.7571  1.0922  0.0932
19805TIP3    H280907   1.313   4.644  10.795  0.0627  0.9596 -0.6317
19806TIP3   OH280908   5.400   5.867   0.060 -0.4901 -0.0824  0.0143
19806TIP3    H180909   5.429   5.841  -0.028 -1.1306  0.9097 -0.5103
19806TIP3    H280910   5.473   5.845   0.117  1.1045  1.8029 -1.1815
19807TIP3   OH280911   6.585   3.499  14.154 -0.4056  0.1261  0.0546
19807TIP3    H180912   6.613   3.458  14.236 -1.5305  2.2388  1.5803
19807TIP3    H280913   6.494   3.473  14.143 -0.7743  1.2005  0.4194
19808TIP3   OH280914   5.543   3.893   4.524 -0.6037  0.4068  0.0780
19808TIP3    H180915   5.614   3.837   4.494  0.6319  1.6009  0.6928
19808TIP3    H280916   5.509   3.849   4.602  1.0635  0.9936  1.1931
19809TIP3   OH280917   1.779   0.362  14.068 -0.4414 -0.6900 -0.3140
19809TIP3    H180918   1.739   0.329  14.149  0.8064 -1.7944 -0.1186
19809TIP3    H280919   1.706   0.367  14.006 -1.2570 -0.6636  0.6299
19810TIP3   OH280920   0.639   3.928   5.650  0.6061  0.7458  0.5760
19810TIP3    H180921   0.585   3.975   5.587  0.1032 -1.4613 -0.7647
19810TIP3    H280922   0.650   3.989   5.723 -1.9616  2.0334  0.0035
19811TIP3   OH280923   6.117   4.569  12.219 -0.1387  0.1657  0.0272
19811TIP3    H180924   6.138   4.509  12.148  1.0042 -0.4522  0.8582
19811TIP3    H280925   6.110   4.654  12.176  0.1451 -0.2539 -0.8920
19812TIP3   OH280926   5.454   2.056   1.934  0.2306 -0.2173  0.5827
19812TIP3    H180927   5.480   2.147   1.943  1.1656 -0.2656 -1.0662
19812TIP3    H280928   5.413   2.033   2.017 -3.0029  2.6178 -0.0183
19813TIP3   OH280929   0.219   5.812  13.472 -0.5219  0.4046 -0.4339
19813TIP3    H180930   0.195   5.905  13.472  0.0776  0.5740 -1.2567
19813TIP3    H280931   0.314   5.812  13.463 -0.5469 -0.2873 -0.7761
19814TIP3   OH280932   3.441   3.809   4.451  0.3167  0.2404  0.3399
19814TIP3    H180933   3.487   3.856   4.382  0.0439  1.6505  1.0870
19814TIP3    H280934   3.348   3.814   4.427  0.4114 -1.6789 -0.6086
19815TIP3   OH280935   5.009   0.504   5.159 -0.3156 -0.2656 -0.1629
19815TIP3    H180936   4.914   0.489   5.164 -0.1225 -1.7300 -0.3740
19815TIP3    H280937   5.042   0.469   5.241  0.0692  0.0713 -0.1742
19816TIP3   OH280938   5.885   0.990  11.719  0.4303 -0.4293  0.6603
19816TIP3    H180939   5.876   1.019  11.629  1.5969 -1.0013  0.3368
19816TIP3    H280940   5.801   0.949  11.740 -0.7752  1.8774  0.7007
19817TIP3   OH280941   1.749   5.265  17.131 -0.9431  0.2085  0.1496
19817TIP3    H180942   1.741   5.182  17.177  1.2770 -0.3803 -0.3780
19817TIP3    H280943   1.695   5.255  17.053 -1.5822 -0.3086  0.6553
19818TIP3   OH280944   5.039   4.747   1.429 -0.6769 -0.0852 -0.2879
19818TIP3    H180945   5.021   4.830   1.474 -0.2290 -0.1364  0.0016
19818TIP3    H280946   5.134   4.737   1.436 -0.4176  0.5330 -2.3552
19819TIP3   OH280947   2.840   0.924   2.790  0.3624  0.0944  0.1064
19819TIP3    H180948   2.756   0.943   2.749 -0.0066 -1.5179  0.0549
19819TIP3    H280949   2.826   0.942   2.883  0.3436  0.9791 -0.0544
19820TIP3   OH280950   3.823   3.622   1.896  0.5678  0.6785 -0.3911
19820TIP3    H180951   3.782   3.698   1.938  0.2761  1.0246 -1.2865
19820TIP3    H280952   3.798   3.629   1.804  1.9058  0.4070 -0.7961
19821TIP3   OH280953   2.385   3.930   0.042 -0.1270  0.4434  0.0703
19821TIP3    H180954   2.407   3.855  -0.014 -0.8733  1.3673 -1.5456
19821TIP3    H280955   2.414   3.905   0.129  1.5450 -0.8837 -0.8106
19822TIP3   OH280956   4.984   5.670   0.577  0.0460  0.3304  0.4604
19822TIP3    H180957   4.952   5.690   0.489  0.0238  0.3811  0.4796
19822TIP3    H280958   4.980   5.575   0.583  2.5038  0.1084 -0.5059
19823TIP3   OH280959   6.678   0.497  11.123 -0.3170  0.1415 -0.0248
19823TIP3    H180960   6.626   0.508  11.202 -0.7671 -1.9707  0.0426
19823TIP3    H280961   6.749   0.438  11.149  0.1732  0.3190 -0.9180
19824TIP3   OH280962   2.955   0.409   5.841 -0.1070 -0.2269 -0.0819
19824TIP3    H180963   2.941   0.455   5.758  1.2567  0.4925  0.0581
19824TIP3    H280964   3.040   0.441   5.872 -0.7158 -0.2765  1.7296
19825TIP3   OH280965   3.622   4.348  11.431 -0.2173  0.0697 -0.7509
19825TIP3    H180966   3.713   4.321  11.423  0.1106  1.6155 -2.8816
19825TIP3    H280967   3.571   4.273  11.399  0.2463 -0.7663  0.3786
19826TIP3   OH280968   4.925   0.870   5.565  0.3486  0.0684 -0.1123
19826TIP3    H180969   4.904   0.955   5.526 -0.4857  0.3586  0.9321
19826TIP3    H280970   4.981   0.827   5.500  0.2928  1.1696 -0.9148
19827TIP3   OH280971   0.919   4.219   1.327 -0.2840 -0.0248  0.3431
19827TIP3    H180972   1.006   4.246   1.297 -1.2901  2.4169 -0.6897
19827TIP3    H280973   0.912   4.258   1.415 -0.9942  1.4793 -0.3453
19828TIP3   OH280974   6.655   0.165   5.782 -0.2529 -0.0201  0.1581
19828TIP3    H180975   6.583   0.197   5.727 -0.5569 -1.1185 -0.1000
19828TIP3    H280976   6.634   0.197   5.869 -3.7376 -4.1655  1.2168
19829TIP3   OH280977   4.586   0.207  16.674 -0.0854  0.1943  0.1130
19829TIP3    H180978   4.618   0.202  16.764  0.3271  1.0041  0.0232
19829TIP3    H280979   4.547   0.121  16.658  0.6334 -0.2765  0.7648
19830TIP3   OH280980   4.254   0.498  14.368  0.3589  0.1260 -0.2578
19830TIP3    H180981   4.185   0.432  14.384 -0.3576  1.0401  0.6031
19830TIP3    H280982   4.209   0.582  14.379  1.8162  0.7534  1.3052
19831TIP3   OH280983   1.743   2.130   2.291  0.1157  0.2644 -0.1020
19831TIP3    H180984   1.687   2.192   2.244 -0.0135  0.4864  0.3383
19831TIP3    H280985   1.737   2.049   2.241 -0.1688  0.4444 -0.3609
19832TIP3   OH280986   4.804   3.846  16.219 -0.8877 -0.1545 -0.3932
19832TIP3    H180987   4.866   3.815  16.284 -1.7353 -0.8390  0.1138
19832TIP3    H280988   4.719   3.814  16.249 -1.6887  1.7892 -0.3968
19833TIP3   OH280989   3.130   0.321   4.137  0.3762  0.6927  0.0860
19833TIP3    H180990   3.170   0.346   4.054 -1.5169 -0.1445 -1.1449
19833TIP3    H280991   3.045   0.365   4.137 -1.6420 -2.8877 -0.6352
19834TIP3   OH280992   3.396   4.263   1.271 -0.2484 -0.3238  0.2948
19834TIP3    H180993   3.310   4.258   1.230  0.3212  0.1284 -1.0363
19834TIP3    H280994   3.418   4.172   1.292 -0.8040 -0.5096  0.0849
19835TIP3   OH280995   2.220   6.221  16.288 -0.2968 -0.2368 -0.1780
19835TIP3    H180996   2.147   6.241  16.347  0.4602 -2.3434  1.5894
19835TIP3    H280997   2.298   6.241  16.339  0.4485  1.6295 -1.9176
19836TIP3   OH280998   2.550   0.186   2.861 -0.4760 -0.2740 -0.1415
19836TIP3    H180999   2.549   0.264   2.917  0.3844 -0.2153 -0.1828
19836TIP3    H281000   2.580   0.116   2.918  0.7064 -0.1499 -0.5821
19837TIP3   OH281001   2.351   1.728  11.056  0.3359  0.2402 -0.1645
19837TIP3    H181002   2.429   1.716  11.002 -0.4705  0.3476 -1.3797
19837TIP3    H281003   2.279   1.696  11.002 -0.6480  1.5285  0.3414
19838TIP3   OH281004   6.258   2.066   6.216  0.1730 -0.3889  0.4412
19838TIP3    H181005   6.331   2.102   6.267  0.8946 -2.0478  0.6338
19838TIP3    H281006   6.195   2.036   6.281 -0.3360  0.3083  0.2831
19839TIP3   OH281007   3.495   5.767   5.442 -0.5054  0.0150  0.6949
19839TIP3    H181008   3.420   5.825   5.434  0.3832  1.4433  2.0426
19839TIP3    H281009   3.526   5.755   5.352 -1.0014  1.2622  0.3352
19840TIP3   OH281010   4.647   4.770  15.123  0.7581  0.1520  0.4077
19840TIP3    H181011   4.565   4.721  15.130 -0.3347  1.9374  0.5077
19840TIP3    H281012   4.684   4.743  15.038 -1.4633  1.5526 -1.0914
19841TIP3   OH281013   3.759   4.679   4.603  0.4582  0.4664 -0.0456
19841TIP3    H181014   3.697   4.610   4.628 -1.5522  1.4621 -1.9585
19841TIP3    H281015   3.752   4.684   4.507  1.9098  2.1047 -0.1179
19842TIP3   OH281016   1.053   0.016  10.782  0.0098 -0.0484  0.0610
19842TIP3    H181017   1.143  -0.007  10.760 -0.1665 -1.0269  0.2951
19842TIP3    H281018   1.010   0.028  10.698  1.0459  3.5351 -0.1316
19843TIP3   OH281019   3.294   0.114   3.973 -0.3468 -0.0917 -0.1755
19843TIP3    H181020   3.292   0.187   4.034  1.7700 -0.3407  0.2884
19843TIP3    H281021   3.339   0.148   3.896  0.4669 -0.8199 -0.0398
19844TIP3   OH281022   1.849   4.912  13.372 -0.5545 -0.0336 -0.1449
19844TIP3    H181023   1.926   4.968  13.382 -0.4531 -0.5041  2.2085
19844TIP3    H281024   1.828   4.918  13.279  2.9040 -0.6783 -1.1321
19845TIP3   OH281025   1.794   0.517  16.681  0.0219 -0.0307  0.4954
19845TIP3    H181026   1.702   0.524  16.655  0.2602 -2.0244 -1.1890
19845TIP3    H281027   1.834   0.597  16.647 -0.5072 -0.6677 -1.8492
19846TIP3   OH281028   4.345   1.426   4.501  0.3883 -0.9631 -0.1253
19846TIP3    H181029   4.277   1.374   4.543  0.1314  0.3594  1.1493
19846TIP3    H281030   4.308   1.514   4.493  1.2627 -0.6622 -1.1376
19847TIP3   OH281031   4.954   4.347  12.729 -0.4526 -0.3465 -0.3131
19847TIP3    H181032   4.864   4.377  12.731 -0.0514  0.9910  2.5105
19847TIP3    H281033   4.948   4.251  12.732 -1.7428 -0.2978 -0.7108
19848TIP3   OH281034   5.314   2.977  15.334 -0.1812  0.2470 -0.0115
19848TIP3    H181035   5.347   3.063  15.309 -1.3722  0.3080 -1.5571
19848TIP3    H281036   5.284   2.938  15.252 -2.1640 -0.5357  1.0169
19849TIP3   OH281037   5.043   4.235   1.683  0.1683 -0.2038  0.2899
19849TIP3    H181038   5.118   4.188   1.719 -0.6944 -0.2052  2.1919
19849TIP3    H281039   5.077   4.323   1.663  1.7666 -1.4092 -3.2160
19850TIP3   OH281040   4.654   3.779  11.441  0.3798  0.5615  0.0929
19850TIP3    H181041   4.643   3.746  11.352  0.7434 -0.5298  0.4439
19850TIP3    H281042   4.565   3.790  11.474  0.2525 -0.1259 -0.0111
19851TIP3   OH281043   5.779   3.398  17.438 -0.4961  0.3372  0.3611
19851TIP3    H181044   5.691   3.430  17.419 -1.3190 -1.3025  1.1926
19851TIP3    H281045   5.813   3.369  17.353 -0.5173  1.4585 -0.0521
19852TIP3   OH281046   1.774   0.459   5.503 -0.2897  0.2264  0.4289
19852TIP3    H181047   1.786   0.400   5.429  1.8457 -1.6209  2.1177
19852TIP3    H281048   1.862   0.472   5.538 -1.1040  1.9575  1.9833
19853TIP3   OH281049   6.372   5.606  14.804 -0.3562 -0.3446 -0.1061
19853TIP3    H181050   6.331   5.684  14.766 -0.1710  0.6627  1.6803
19853TIP3    H281051   6.311   5.576  14.871  0.0154 -1.1930 -0.1312
19854TIP3   OH281052   3.402   4.611  11.584  0.0784 -0.6004  0.1342
19854TIP3    H181053   3.494   4.636  11.578 -0.0885  0.8737  2.4562
19854TIP3    H281054   3.402   4.516  11.572  1.8434 -0.5893 -0.2221
19855TIP3   OH281055   0.070   1.360  16.630 -0.0431 -0.4366  0.4836
19855TIP3    H181056   0.043   1.379  16.720  0.5302  2.0487  0.1938
19855TIP3    H281057   0.148   1.413  16.617  1.2694 -2.5547 -0.7650
19856TIP3   OH281058   1.466   0.878  15.587  0.4597  0.0679 -0.0647
19856TIP3    H181059   1.492   0.895  15.497  0.5864 -0.2114 -0.0816
19856TIP3    H281060   1.390   0.820  15.580  0.0806  0.5500 -0.0046
19857TIP3   OH281061   1.550   4.597  13.779 -0.2846  0.7942 -0.1259
19857TIP3    H181062   1.506   4.622  13.698 -0.3700  0.8638 -0.0569
19857TIP3    H281063   1.642   4.589  13.754 -0.4579 -0.2265 -0.4725
19858TIP3   OH281064   1.439   1.011  10.944  0.3593 -1.0016  0.0780
19858TIP3    H181065   1.460   1.053  11.028  1.1308  0.9914 -1.0597
19858TIP3    H281066   1.524   0.996  10.903 -0.0831  0.0277 -1.2575
19859TIP3   OH281067   1.840   0.579  17.148  0.4367 -0.0909  0.5150
19859TIP3    H181068   1.777   0.588  17.077 -0.0277 -0.3327  0.8862
19859TIP3    H281069   1.788   0.550  17.223  0.8278  0.6731  1.1013
19860TIP3   OH281070   1.195   4.188   1.273  0.4550 -0.3919  0.6203
19860TIP3    H181071   1.222   4.134   1.199 -1.0171 -0.0109 -0.2333
19860TIP3    H281072   1.205   4.131   1.350  0.9968 -1.1388  0.0058
19861TIP3   OH281073   2.017   1.540   5.063  0.2365  0.3558  0.2045
19861TIP3    H181074   2.027   1.466   5.002  2.4390  0.3249  0.5024
19861TIP3    H281075   2.074   1.517   5.137 -1.0527  1.1932  1.4986
19862TIP3   OH281076   3.125   3.182  14.983  0.5025  0.3585 -0.3406
19862TIP3    H181077   3.059   3.245  15.011  0.2936  0.6564 -1.4744
19862TIP3    H281078   3.111   3.171  14.889  1.0003 -0.8325 -0.2994
19863TIP3   OH281079   4.371   0.409  15.192  0.4197  0.1532 -0.2321
19863TIP3    H181080   4.339   0.488  15.235  1.4308 -0.4579  1.7531
19863TIP3    H281081   4.333   0.412  15.104 -1.7343  1.4660  0.6764
19864TIP3   OH281082   3.289   5.917  17.496 -0.7276 -0.4020 -0.5657
19864TIP3    H181083   3.360   5.955  17.444 -1.3707  0.7764 -0.6215
19864TIP3    H281084   3.324   5.833  17.526  0.5131 -0.0648 -0.9764
19865TIP3   OH281085   4.067   2.006   4.783 -0.9928 -0.2724 -0.3086
19865TIP3    H181086   4.045   1.918   4.814 -1.4720  0.0350  0.2335
19865TIP3    H281087   4.136   1.992   4.719 -1.5091 -1.0988 -0.6946
19866TIP3   OH281088   3.443   1.697   5.842 -0.0370  0.2591 -0.1028
19866TIP3    H181089   3.365   1.682   5.896  1.6096 -0.5136  2.2096
19866TIP3    H281090   3.458   1.791   5.847 -0.4087  0.3131  0.0470
19867TIP3   OH281091   3.901   0.663   3.039 -0.8537 -0.4174 -0.3081
19867TIP3    H181092   3.892   0.731   3.106 -1.5377  0.8159 -1.5779
19867TIP3    H281093   3.823   0.674   2.984 -1.9036 -3.3834  0.3885
19868TIP3   OH281094   0.311   0.126  15.822  0.8294 -0.5591 -0.3125
19868TIP3    H181095   0.273   0.204  15.862  0.3349 -1.3527  0.8298
19868TIP3    H281096   0.403   0.126  15.852  1.4305  0.6808 -2.0388
19869TIP3   OH281097   0.212   6.348  17.176 -0.2222 -0.9529 -0.3059
19869TIP3    H181098   0.240   6.368  17.265 -2.8838 -0.4298  0.5070
19869TIP3    H281099   0.203   6.253  17.173  0.5147 -1.0255 -0.2373
19870TIP3   OH281100   4.614   6.773  15.723 -0.3748  0.4623  0.3676
19870TIP3    H181101   4.604   6.756  15.630 -1.4920 -2.1650  0.8668
19870TIP3    H281102   4.692   6.829  15.729 -1.3214  2.2350 -2.1965
19871TIP3   OH281103   2.665   1.348   4.057 -0.1535  0.0811  0.1258
19871TIP3    H181104   2.693   1.389   4.139 -0.2071  0.6819 -0.1502
19871TIP3    H281105   2.740   1.295   4.030  0.9900  2.0676 -0.8627
19872TIP3   OH281106   3.054   5.182   0.950 -0.0878 -0.1006 -0.0397
19872TIP3    H181107   3.063   5.131   0.870  0.0431 -1.3807  0.7597
19872TIP3    H281108   2.983   5.139   0.998  0.1457  0.3619  0.7382
19873TIP3   OH281109   3.839   2.106  14.502 -0.0130 -0.0086 -0.1935
19873TIP3    H181110   3.881   2.141  14.424 -0.4575 -0.9780 -0.8985
19873TIP3    H281111   3.846   2.175  14.568  1.0682  0.5152 -0.8476
19874TIP3   OH281112   0.167   2.640   1.966 -1.1763 -0.8800 -0.2344
19874TIP3    H181113   0.161   2.701   1.893 -0.3058 -0.6098 -0.0856
19874TIP3    H281114   0.182   2.555   1.925 -2.2055 -0.9889 -0.4318
19875TIP3   OH281115   1.990   5.198  11.699 -0.1566  0.5610  0.2075
19875TIP3    H181116   2.007   5.243  11.617 -1.0036  3.4612  1.4923
19875TIP3    H281117   1.914   5.243  11.737  0.7163 -0.0556  2.9621
19876TIP3   OH281118   0.557   4.906  15.909  0.4831  0.3715  0.4402
19876TIP3    H181119   0.587   4.969  15.974  0.3033  1.8863 -0.8900
19876TIP3    H281120   0.478   4.945  15.872 -0.1460 -1.0693  0.1879
19877TIP3   OH281121   4.030   4.850  12.519 -0.1590 -0.2610 -0.1278
19877TIP3    H181122   4.102   4.878  12.576  0.3943 -1.3114 -0.2985
19877TIP3    H281123   4.045   4.757  12.504 -0.8321 -0.2171 -1.2134
19878TIP3   OH281124   2.827   5.271  13.555 -0.1666 -0.3505 -0.2215
19878TIP3    H181125   2.860   5.309  13.474 -1.5270  3.2970  0.7539
19878TIP3    H281126   2.783   5.190  13.527 -0.8150  0.8862 -3.1969
19879TIP3   OH281127   1.752   2.312  15.997  0.2748 -0.1616 -0.0674
19879TIP3    H181128   1.709   2.310  16.082  0.0841 -1.6996 -0.1644
19879TIP3    H281129   1.836   2.354  16.013 -0.1593  0.4390  0.6755
19880TIP3   OH281130   6.596   4.964   3.552  0.1201 -0.0090 -0.2374
19880TIP3    H181131   6.549   4.880   3.548 -1.7733  1.0085 -0.7034
19880TIP3    H281132   6.574   4.999   3.638  1.5084 -0.2864  0.2535
19881TIP3   OH281133   0.355   2.553  12.503  0.6953  0.4791 -0.0858
19881TIP3    H181134   0.340   2.563  12.597  2.2300 -1.6431  0.4447
19881TIP3    H281135   0.447   2.578  12.490  0.5367  0.6401 -1.0088
19882TIP3   OH281136   4.426   2.345  11.273 -0.3422 -0.0232 -0.3114
19882TIP3    H181137   4.453   2.353  11.181  0.7769  0.8224  0.0641
19882TIP3    H281138   4.508   2.335  11.321 -0.9251 -0.6140  0.5990
19883TIP3   OH281139   0.649   2.654   1.590  0.4186  0.4469  0.6926
19883TIP3    H181140   0.616   2.593   1.524  0.2979  1.2680 -0.0299
19883TIP3    H281141   0.735   2.680   1.557 -0.3577  2.1902 -0.0810
19884TIP3   OH281142   0.002   3.702   6.117  0.1621 -0.2491  0.0638
19884TIP3    H181143  -0.036   3.789   6.104 -0.0385 -0.3658 -0.1572
19884TIP3    H281144  -0.055   3.660   6.181 -0.3048 -0.5522 -0.5335
19885TIP3   OH281145   2.890   3.174  13.964  0.2302  0.0402 -0.8611
19885TIP3    H181146   2.968   3.231  13.966 -0.7272  1.4019 -0.9307
19885TIP3    H281147   2.875   3.150  14.055 -0.5958  1.7028 -0.5179
19886TIP3   OH281148   5.696   4.735  15.175 -0.4740  0.9437 -0.0131
19886TIP3    H181149   5.656   4.666  15.227  0.2422 -0.8543 -1.7329
19886TIP3    H281150   5.771   4.764  15.228  1.3886 -2.1475 -0.6935
19887TIP3   OH281151   1.058   3.260  14.882  0.3793  0.1704 -0.3678
19887TIP3    H181152   1.018   3.197  14.942  1.1340 -1.8972 -1.9163
19887TIP3    H281153   1.008   3.340  14.894 -1.7852 -1.2250  0.4511
19888TIP3   OH281154   3.605   0.634  15.121  0.6535 -0.3671 -0.8445
19888TIP3    H181155   3.652   0.555  15.094  3.3615  0.9829 -0.4497
19888TIP3    H281156   3.606   0.690  15.044 -1.1058 -0.6201 -1.0730
19889TIP3   OH281157   0.481   1.792   5.372 -0.3395 -0.5784  0.3566
19889TIP3    H181158   0.431   1.723   5.415  3.1810 -2.5688  1.6773
19889TIP3    H281159   0.530   1.747   5.303 -1.0293  1.4426 -1.5819
19890TIP3   OH281160   1.458   5.984  12.740 -0.2864  0.2584  0.5312
19890TIP3    H181161   1.511   5.906  12.760  0.4323  0.8149  0.8265
19890TIP3    H281162   1.367   5.954  12.747 -0.0212 -0.4266  1.1458
19891TIP3   OH281163   5.162   0.308   5.004 -0.5006  0.2591  0.1165
19891TIP3    H181164   5.099   0.368   5.043  0.6192  0.0306  2.4421
19891TIP3    H281165   5.113   0.227   4.989 -1.3495  0.8706 -0.5215
19892TIP3   OH281166   5.652   4.245  13.598 -0.3547 -0.2310  0.0784
19892TIP3    H181167   5.718   4.239  13.528 -0.0162 -0.2058  0.3921
19892TIP3    H281168   5.573   4.275  13.553 -0.1579 -0.2773 -0.3069
19893TIP3   OH281169   2.175   6.559  10.497  0.2976  0.2068 -0.1045
19893TIP3    H181170   2.095   6.512  10.522  1.4695 -1.1675  1.3020
19893TIP3    H281171   2.153   6.651  10.508 -1.1394 -0.1235  0.0680
19894TIP3   OH281172   3.120   1.698   2.826  0.7097  0.2602 -0.3770
19894TIP3    H181173   3.177   1.754   2.773  0.3751  0.9545 -0.0203
19894TIP3    H281174   3.040   1.690   2.775  0.9871 -0.4275 -0.7178
19895TIP3   OH281175   4.877   1.106  12.661  0.2907 -0.3626 -0.3187
19895TIP3    H181176   4.826   1.070  12.588 -1.6004  3.3167 -1.0563
19895TIP3    H281177   4.896   1.030  12.716 -1.4732 -2.7505 -2.7022
19896TIP3   OH281178   2.516   0.927  11.366  0.4609 -0.2208  0.3418
19896TIP3    H181179   2.530   0.877  11.286 -1.8533 -0.8739  0.2795
19896TIP3    H281180   2.499   1.016  11.335 -0.5565 -0.4989  0.0804
19897TIP3   OH281181   2.609   6.723  13.950 -0.3454  0.7768  0.4100
19897TIP3    H181182   2.574   6.685  13.870  1.0579 -0.3028  0.2572
19897TIP3    H281183   2.637   6.811  13.926  1.6212 -0.0971 -0.8011
19898TIP3   OH281184   4.551   0.709  15.461 -0.1910  0.4302 -0.2165
19898TIP3    H181185   4.639   0.686  15.433 -0.4463  0.8198 -1.4147
19898TIP3    H281186   4.558   0.800  15.491 -0.5494  1.1945 -2.2847
19899TIP3   OH281187   6.380   1.748  12.930 -0.3682 -0.2703  0.3007
19899TIP3    H181188   6.367   1.792  13.014  3.1485  0.8108  0.4368
19899TIP3    H281189   6.360   1.814  12.864  1.4229  0.4678  0.4462
19900TIP3   OH281190   3.538   6.148  15.231  0.0781 -0.0744 -0.2716
19900TIP3    H181191   3.490   6.126  15.152  0.4502  0.4377 -0.6423
19900TIP3    H281192   3.528   6.071  15.287  0.6230 -0.8403 -1.1938
19901TIP3   OH281193   0.031   5.241   1.715 -0.4064 -0.2104  0.0418
19901TIP3    H181194  -0.014   5.169   1.671 -1.2343  1.2948 -1.7265
19901TIP3    H281195   0.008   5.231   1.807 -2.4431 -0.8648 -0.4896
19902TIP3   OH281196   4.029   1.750   4.926  0.3690 -0.0093  0.1457
19902TIP3    H181197   3.962   1.690   4.959 -0.0009  0.6906  0.6930
19902TIP3    H281198   4.103   1.694   4.904  0.4689 -0.5590  1.7502
19903TIP3   OH281199   1.654   6.495  15.527  0.7243 -0.6064 -0.2845
19903TIP3    H181200   1.736   6.471  15.486  0.7573  0.6096 -0.9799
19903TIP3    H281201   1.674   6.500  15.621  1.7518  0.7679 -0.5467
19904TIP3   OH281202   2.461   2.502  12.588  0.4588  0.1237  0.7113
19904TIP3    H181203   2.533   2.534  12.643 -0.0993 -0.1936  1.6377
19904TIP3    H281204   2.401   2.460  12.649  0.2516 -1.0233 -0.2461
19905TIP3   OH281205   5.003   3.954  14.690 -0.3724  0.1557 -0.7437
19905TIP3    H181206   5.047   4.030  14.727 -0.8105 -0.8657  2.1419
19905TIP3    H281207   4.920   3.988  14.656 -0.1821  1.1051 -0.2919
19906TIP3   OH281208   0.150   5.841   3.633  0.1693 -0.6550 -0.0315
19906TIP3    H181209   0.060   5.809   3.632 -2.0800  4.5984 -0.9490
19906TIP3    H281210   0.177   5.835   3.724 -0.8979 -2.6841  0.1985
19907TIP3   OH281211   0.487   6.268   5.350 -0.6131 -0.3146 -0.1180
19907TIP3    H181212   0.577   6.277   5.379 -0.4343  0.9355 -0.9473
19907TIP3    H281213   0.485   6.309   5.263 -2.4870  2.1503  0.9472
19908TIP3   OH281214   6.041   6.048   4.911  0.6228 -0.0386  0.6399
19908TIP3    H181215   6.052   6.093   4.994  1.7784  1.4728 -0.2689
19908TIP3    H281216   5.949   6.059   4.889  0.1445 -1.0688  2.0221
19909TIP3   OH281217   5.643   0.257  11.981  0.0767 -0.1923  0.1461
19909TIP3    H181218   5.709   0.243  12.049  1.6364  0.7958 -1.1066
19909TIP3    H281219   5.653   0.181  11.922 -0.8010 -0.6935  0.6219
19910TIP3   OH281220   2.722   5.103   4.659 -0.6767 -0.0741 -0.1915
19910TIP3    H181221   2.651   5.167   4.667 -0.5898 -0.0698  0.6504
19910TIP3    H281222   2.770   5.129   4.580 -1.5277 -0.0011 -0.6897
19911TIP3   OH281223   0.458   5.704   0.006 -0.1325  0.0658 -0.1900
19911TIP3    H181224   0.393   5.636   0.026  0.5289 -0.1520  1.3566
19911TIP3    H281225   0.481   5.689  -0.085 -0.4385 -1.4156 -0.0496
19912TIP3   OH281226   1.649   2.987   0.864 -0.2904  0.0187  0.2126
19912TIP3    H181227   1.582   3.051   0.889 -0.5080 -0.9541  2.4209
19912TIP3    H281228   1.624   2.959   0.776 -3.2880 -0.7946  1.1961
19913TIP3   OH281229   2.406   5.058   5.231  0.0771 -0.8921  0.2943
19913TIP3    H181230   2.364   5.005   5.299 -0.8073  0.1438  0.5927
19913TIP3    H281231   2.422   4.997   5.159  1.1437 -2.0468  1.4454
19914TIP3   OH281232   5.269   6.736  14.343 -0.4001  0.2874 -0.1821
19914TIP3    H181233   5.348   6.713  14.294 -0.2594 -0.2511  0.2829
19914TIP3    H281234   5.196   6.711  14.286 -0.2553 -1.2656  0.2506
19915TIP3   OH281235   5.104   0.510  14.516 -0.2430  0.4308 -0.8362
19915TIP3    H181236   5.016   0.539  14.537 -0.0159  0.5990 -0.0744
19915TIP3    H281237   5.092   0.429  14.466 -0.8100 -1.2306  1.7947
19916TIP3   OH281238   6.418   5.769  15.864 -0.0597 -0.0927  0.4327
19916TIP3    H181239   6.495   5.817  15.834 -0.9752 -0.0607 -2.0235
19916TIP3    H281240   6.433   5.679  15.834  0.0646 -0.6475  2.0279
19917TIP3   OH281241   4.102   1.849  12.393 -0.0615  0.2497  0.3560
19917TIP3    H181242   4.063   1.791  12.458  0.3983  0.3486  0.7280
19917TIP3    H281243   4.176   1.800  12.359 -0.0165  0.3881  0.2550
19918TIP3   OH281244   3.017   6.465   0.748 -0.2425 -0.1678  0.9173
19918TIP3    H181245   2.955   6.499   0.684 -0.3867  0.5483  1.4296
19918TIP3    H281246   3.002   6.370   0.749 -0.6060 -0.1152  0.2903
19919TIP3   OH281247   3.109   0.813   3.831  0.1142 -0.0621 -0.2161
19919TIP3    H181248   3.186   0.827   3.886 -0.4786 -0.8419  0.8417
19919TIP3    H281249   3.077   0.726   3.856 -0.1217 -0.4756 -1.8676
19920TIP3   OH281250   6.705   2.246   5.474 -0.4629 -0.7001  0.0839
19920TIP3    H181251   6.665   2.332   5.484  0.8164  0.0940 -1.1742
19920TIP3    H281252   6.678   2.197   5.551 -0.8329  0.9933  1.0715
19921TIP3   OH281253   4.878   3.121  12.210  0.5282  0.6930  0.1143
19921TIP3    H181254   4.969   3.144  12.231  1.6207 -0.4457 -2.9144
19921TIP3    H281255   4.869   3.030  12.238  0.9178  0.2505 -1.1407
19922TIP3   OH281256   1.094   1.009  15.541 -0.2719 -0.0344 -0.0634
19922TIP3    H181257   1.130   0.986  15.455 -0.2249 -1.2466  0.2592
19922TIP3    H281258   1.109   1.103  15.549  1.0216 -0.1511 -0.7919
19923TIP3   OH281259   5.344   3.046  12.535 -0.1625  0.1909  0.1538
19923TIP3    H181260   5.427   3.065  12.579  1.1053  1.6456 -2.5625
19923TIP3    H281261   5.318   3.130  12.497 -3.4594 -0.0055  1.6713
19924TIP3   OH281262   0.360   4.342  14.372 -0.0454  0.5035 -0.5365
19924TIP3    H181263   0.446   4.373  14.399  0.8220 -1.0662 -1.3091
19924TIP3    H281264   0.300   4.372  14.441  0.9618  2.3477 -0.4242
19925TIP3   OH281265   1.359   6.629   0.948 -0.3671 -0.3452 -0.2658
19925TIP3    H181266   1.266   6.609   0.952 -1.1091  1.9837 -2.8618
19925TIP3    H281267   1.388   6.597   0.863  1.4302 -1.5741  0.7213
19926TIP3   OH281268   4.332   1.700  15.861 -0.0270  0.4112 -0.9229
19926TIP3    H181269   4.398   1.688  15.792  0.4196  1.4408 -0.6959
19926TIP3    H281270   4.252   1.662  15.825 -0.2934  2.5683 -2.8114
19927TIP3   OH281271   3.237   1.914   5.598  0.0558  0.2137  0.1385
19927TIP3    H181272   3.310   1.946   5.650 -0.6983  2.2691  0.0039
19927TIP3    H281273   3.170   1.982   5.604 -1.5522 -1.2363 -0.4060
19928TIP3   OH281274   5.996   5.907   1.652 -0.0726  0.4859  0.1522
19928TIP3    H181275   6.055   5.946   1.717 -0.7646  0.6732  0.6813
19928TIP3    H281276   5.910   5.906   1.695 -0.2810 -0.6426 -0.2568
19929TIP3   OH281277   4.086   4.601   4.251  0.0273  0.0451  0.2114
19929TIP3    H181278   4.097   4.696   4.258  1.2541 -0.0483 -0.0876
19929TIP3    H281279   4.044   4.575   4.333  0.4806  0.7483  0.6816
19930TIP3   OH281280   4.675   2.890  15.566  0.2136 -0.2575  0.4964
19930TIP3    H181281   4.729   2.919  15.493 -2.2483 -1.2899 -1.8890
19930TIP3    H281282   4.619   2.965  15.586 -0.2627 -0.4980  0.1178
19931TIP3   OH281283   3.744   4.756  14.999 -0.2993 -0.2830  0.5851
19931TIP3    H181284   3.754   4.849  15.018 -1.1405 -0.3595  1.5169
19931TIP3    H281285   3.830   4.718  15.017 -0.0271  0.2693  0.4732
19932TIP3   OH281286   6.096   0.769   1.232 -0.8000 -0.6068 -0.6190
19932TIP3    H181287   6.102   0.766   1.327  0.8155 -1.7024 -0.7215
19932TIP3    H281288   6.031   0.838   1.215 -0.9756 -0.2443  1.2481
19933TIP3   OH281289   2.266   2.609   1.815 -0.1551  0.7499  0.1462
19933TIP3    H181290   2.296   2.578   1.729  0.3033 -0.2386  0.6402
19933TIP3    H281291   2.274   2.532   1.872 -1.8124  0.9863  0.7598
19934TIP3   OH281292   5.025   5.953   2.424  0.4068  0.5147 -0.0165
19934TIP3    H181293   4.993   5.923   2.509  2.4000  1.0579  0.9744
19934TIP3    H281294   5.049   6.044   2.438 -0.7175  1.1184 -1.6216
19935TIP3   OH281295   4.762   5.847   3.462 -0.2883 -0.3130  0.6085
19935TIP3    H181296   4.719   5.910   3.404  0.9330 -1.0794 -1.2076
19935TIP3    H281297   4.759   5.764   3.415 -0.2229 -1.2152  2.1381
19936TIP3   OH281298   0.203   5.471  16.607  0.4605  0.4990  0.2293
19936TIP3    H181299   0.221   5.446  16.698 -0.2556  0.2166  0.2999
19936TIP3    H281300   0.173   5.391  16.565  2.0827  0.3084 -0.6277
19937TIP3   OH281301   0.593   6.498  14.536 -0.1039  0.1603 -0.3776
19937TIP3    H181302   0.516   6.483  14.590 -0.4225  0.5629 -0.7096
19937TIP3    H281303   0.560   6.548  14.460  0.2011 -0.9919 -1.2965
19938TIP3   OH281304   3.535   6.720  15.465  0.4316 -0.1862 -0.3366
19938TIP3    H181305   3.596   6.731  15.538 -0.3914  0.0030  0.3393
19938TIP3    H281306   3.469   6.658  15.498  1.9891 -3.0425 -2.1689
19939TIP3   OH281307   5.921   2.185   2.427 -0.1463 -0.3932  0.3265
19939TIP3    H181308   5.833   2.219   2.409  0.0197 -0.3955 -0.5618
19939TIP3    H281309   5.935   2.202   2.520 -1.3785 -1.0679  0.6611
19940TIP3   OH281310   4.147   1.221   5.785 -0.8622  0.4899 -0.5869
19940TIP3    H181311   4.176   1.233   5.694 -1.1951  2.4191 -0.4809
19940TIP3    H281312   4.051   1.226   5.780 -0.8574  3.2405  0.0984
19941TIP3   OH281313   6.076   6.533  15.988  0.4634 -0.2718 -0.4322
19941TIP3    H181314   6.065   6.493  16.074  0.3662 -1.1439 -0.8448
19941TIP3    H281315   6.077   6.627  16.006  2.3988 -0.4749  0.7439
19942TIP3   OH281316   4.647   2.629  13.315 -0.4404 -0.1237  0.0345
19942TIP3    H181317   4.724   2.582  13.346  0.3424  1.3415  0.4007
19942TIP3    H281318   4.583   2.560  13.296  0.9897 -1.3905 -0.4262
19943TIP3   OH281319   2.270   2.030   6.064  0.1974 -0.3559 -0.5790
19943TIP3    H181320   2.337   1.993   6.122 -0.1902 -0.8565 -0.4399
19943TIP3    H281321   2.217   2.086   6.121  0.3156 -0.1939 -0.6272
19944TIP3   OH281322   4.047   0.210   4.903 -0.5046 -0.2744 -0.0685
19944TIP3    H181323   4.039   0.192   4.997 -0.7850 -1.6299 -0.3436
19944TIP3    H281324   4.061   0.125   4.863 -0.0104  0.3365 -1.2353
19945TIP3   OH281325   2.399   6.576  14.165  0.0976 -0.2257  0.0638
19945TIP3    H181326   2.433   6.627  14.092 -0.7028  1.3208  0.7151
19945TIP3    H281327   2.464   6.508  14.180 -0.3563 -1.4414 -2.9199
19946TIP3   OH281328   3.084   2.533   4.531 -0.0308 -0.3195 -0.2724
19946TIP3    H181329   3.080   2.550   4.625  1.1629 -0.9538 -0.0810
19946TIP3    H281330   3.004   2.484   4.511 -0.1885 -0.3592  0.4456
19947TIP3   OH281331   1.902   5.314   5.094 -0.4906 -0.0048  0.5026
19947TIP3    H181332   1.826   5.307   5.036  1.0860  0.2577 -1.7243
19947TIP3    H281333   1.871   5.282   5.179 -2.4115 -2.2827 -0.9453
19948TIP3   OH281334   2.211   1.369  12.866  0.3770 -0.4031  0.4330
19948TIP3    H181335   2.299   1.350  12.835 -0.0475 -3.3779  0.7409
19948TIP3    H281336   2.210   1.336  12.956 -0.1109  2.7374  1.6917
19949TIP3   OH281337   3.599   6.623  12.780  0.1514  0.3633 -0.2407
19949TIP3    H181338   3.634   6.657  12.863  0.4606  0.2391 -0.3160
19949TIP3    H281339   3.633   6.534  12.775 -0.6142  0.0531 -0.0686
19950TIP3   OH281340   3.814   1.722  16.869  0.2439 -0.5955  0.0036
19950TIP3    H181341   3.767   1.779  16.930  1.1720  1.7391 -1.3615
19950TIP3    H281342   3.749   1.698  16.803  0.5638  1.6052 -1.1886
19951TIP3   OH281343   3.742   0.665   0.252  0.3166  0.3619  0.1020
19951TIP3    H181344   3.778   0.751   0.272 -0.7285  0.6809  0.6549
19951TIP3    H281345   3.648   0.678   0.249  0.2582 -0.2705 -2.2893
19952TIP3   OH281346   1.260   2.341   4.093  0.4280 -0.1441  0.1988
19952TIP3    H181347   1.175   2.315   4.130 -0.0109 -1.9449 -1.9000
19952TIP3    H281348   1.323   2.323   4.163 -0.7287 -0.1350  1.2834
19953TIP3   OH281349   4.884   5.482  17.332  0.1659  0.5311  0.5868
19953TIP3    H181350   4.918   5.486  17.421  0.4092  0.2403  0.5078
19953TIP3    H281351   4.887   5.389  17.309 -1.3536  0.4024  0.8275
19954TIP3   OH281352   2.355   1.745  16.121  0.3396 -0.4648  0.2864
19954TIP3    H181353   2.290   1.809  16.150  0.7373  0.5495 -0.9400
19954TIP3    H281354   2.431   1.761  16.177  1.0667  1.3986 -1.1396
19955TIP3   OH281355   2.228   2.032  15.402  0.3535  0.5196 -0.0364
19955TIP3    H181356   2.287   1.973  15.449 -0.0611 -1.2923 -1.6474
19955TIP3    H281357   2.286   2.094  15.358  1.0593 -0.7584 -0.9773
19956TIP3   OH281358   2.377   2.778   4.957 -0.9650  0.5609 -0.0109
19956TIP3    H181359   2.440   2.728   4.906 -1.9353  0.0403 -0.7290
19956TIP3    H281360   2.427   2.808   5.034 -0.4243 -1.8311  0.6632
19957TIP3   OH281361   4.489   5.348  16.355  0.1064  0.1102 -0.3877
19957TIP3    H181362   4.488   5.357  16.260  0.3975  0.8448 -0.3222
19957TIP3    H281363   4.428   5.414  16.387 -1.6786 -1.5407 -0.1534
19958TIP3   OH281364   5.193   4.505   1.226 -0.3438 -0.2092 -0.0452
19958TIP3    H181365   5.282   4.530   1.204 -0.3305 -0.5176 -0.3513
19958TIP3    H281366   5.151   4.487   1.142 -0.8413  0.4070  0.0554
19959TIP3   OH281367   3.027   5.780  14.918 -0.0364  0.3416 -0.0987
19959TIP3    H181368   2.966   5.730  14.972  0.9547 -0.1239  0.6309
19959TIP3    H281369   3.071   5.714  14.864 -1.4136  0.8566 -1.9460
19960TIP3   OH281370   5.273   0.795  16.947  0.9768 -0.3952 -0.4479
19960TIP3    H181371   5.262   0.820  16.855 -2.0123 -0.5808 -0.2623
19960TIP3    H281372   5.280   0.878  16.994 -0.9950 -0.0794 -0.5924
19961TIP3   OH281373   5.569   1.961   6.138  0.3159 -0.3831  0.5778
19961TIP3    H181374   5.599   2.036   6.086 -0.8968  1.8040  2.7925
19961TIP3    H281375   5.536   1.899   6.074  1.0700  1.1067 -1.3696
19962TIP3   OH281376   3.008   4.822   1.543  0.1650 -0.4994  0.8946
19962TIP3    H181377   2.937   4.809   1.480 -0.1151 -0.5227  1.2113
19962TIP3    H281378   3.014   4.738   1.589  0.3072 -0.4542  0.9573
19963TIP3   OH281379   0.517   1.847  12.795  0.4440 -0.6497 -0.0761
19963TIP3    H181380   0.546   1.835  12.885  1.3269  0.7453 -0.1452
19963TIP3    H281381   0.460   1.924  12.798 -1.2437 -1.8173 -0.3916
19964TIP3   OH281382   5.854   6.096  14.670 -0.4838 -0.2036 -0.2887
19964TIP3    H181383   5.797   6.129  14.599 -0.1920  0.4265 -0.2397
19964TIP3    H281384   5.833   6.152  14.744  0.9100  0.7061 -0.5477
19965TIP3   OH281385   3.853   1.670   2.569 -0.3135  0.8530  0.4571
19965TIP3    H181386   3.854   1.615   2.491 -0.5952  2.3643 -0.6520
19965TIP3    H281387   3.880   1.757   2.538  2.1923  0.9324  2.5076
19966TIP3   OH281388   3.049   0.889   2.367 -1.1586 -0.5898 -0.5583
19966TIP3    H181389   3.076   0.964   2.420  0.5099  0.0128 -2.1748
19966TIP3    H281390   2.989   0.840   2.424  0.8476 -0.2256  2.0555
19967TIP3   OH281391   2.062   5.468   5.809 -0.1163 -0.2207 -0.0976
19967TIP3    H181392   2.040   5.553   5.773 -2.6433 -0.4539  0.7120
19967TIP3    H281393   2.097   5.488   5.896  1.3097  0.0644 -0.7113
19968TIP3   OH281394   6.639   1.911   1.359  0.1707  0.4304 -0.0612
19968TIP3    H181395   6.679   1.903   1.446  0.5552 -0.5480 -0.3127
19968TIP3    H281396   6.699   1.865   1.301 -0.4454  0.4573 -0.7318
19969TIP3   OH281397   1.325   4.155   5.272  0.5067  0.6055 -0.1315
19969TIP3    H181398   1.332   4.131   5.364  0.5865  0.4143 -0.1880
19969TIP3    H281399   1.362   4.081   5.225  3.5137  1.9741 -0.1896
19970TIP3   OH281400   6.233   1.978  16.318  0.4485 -0.8788 -0.1494
19970TIP3    H181401   6.171   1.936  16.258 -2.6096  1.4662  1.0651
19970TIP3    H281402   6.248   2.065  16.280  0.6032 -0.3564  1.0493
19971TIP3   OH281403   2.120   1.889  16.155  0.1777 -0.1762 -0.2402
19971TIP3    H181404   2.072   1.940  16.090  0.1549  0.6829  0.4414
19971TIP3    H281405   2.053   1.861  16.217  0.4983  0.8002  0.5665
19972TIP3   OH281406   2.920   0.454  14.641  0.0753  0.4770  0.0544
19972TIP3    H181407   2.902   0.461  14.548 -0.4090  2.0862  0.2348
19972TIP3    H281408   2.833   0.455  14.682  0.1585 -2.1967  0.4715
19973TIP3   OH281409   1.038   5.596  11.444  0.0185 -0.1884  0.6295
19973TIP3    H181410   0.943   5.589  11.459 -0.7549 -0.9419 -3.5429
19973TIP3    H281411   1.058   5.524  11.385  3.0227  0.6971  0.4222
19974TIP3   OH281412   3.645   4.281   5.814 -0.0158  0.2525  0.1082
19974TIP3    H181413   3.643   4.368   5.853 -0.8864  0.6606 -0.8050
19974TIP3    H281414   3.693   4.228   5.877 -0.8544  1.0287  1.4556
19975TIP3   OH281415   4.103   1.363   6.214 -0.1249  0.1092 -0.4375
19975TIP3    H181416   4.040   1.381   6.285  1.5610 -1.0055  1.4424
19975TIP3    H281417   4.138   1.449   6.192 -1.0286  0.5355 -0.2804
19976TIP3   OH281418   1.414   4.975  12.160  0.2379 -0.3492 -0.0891
19976TIP3    H181419   1.325   4.941  12.168  0.0106  0.0474 -0.8578
19976TIP3    H281420   1.438   5.001  12.249 -0.1629 -1.0734  0.2351
19977TIP3   OH281421   5.554   0.595   6.467  0.2091  0.8363 -0.1221
19977TIP3    H181422   5.494   0.656   6.424 -1.2045 -0.9410 -0.8139
19977TIP3    H281423   5.500   0.549   6.531  0.8145 -0.7648 -0.7118
19978TIP3   OH281424   4.851   3.057  17.353 -0.7742  0.4242  0.3213
19978TIP3    H181425   4.795   3.128  17.385 -0.2558 -0.1794  2.7289
19978TIP3    H281426   4.931   3.101  17.323 -1.8889  1.1480 -1.8146
19979TIP3   OH281427   6.097   1.849   1.887 -0.0527 -0.5091 -0.4138
19979TIP3    H181428   6.134   1.764   1.866  0.1680 -0.7553  0.8730
19979TIP3    H281429   6.172   1.909   1.888 -0.3040 -0.1313 -2.0354
19980TIP3   OH281430   2.129   1.983   0.693 -0.2578 -0.2351  0.2993
19980TIP3    H181431   2.193   1.935   0.641 -0.7032 -0.4461 -0.0692
19980TIP3    H281432   2.156   2.075   0.686 -0.8867 -0.1341 -1.1677
19981TIP3   OH281433   3.205   1.100  13.131 -0.2479  0.0027 -0.5118
19981TIP3    H181434   3.300   1.108  13.118 -0.2568  0.3045 -0.4007
19981TIP3    H281435   3.192   1.007  13.152 -0.0184 -0.1090 -0.8530
19982TIP3   OH281436   5.738   1.151   2.179 -0.7621 -0.3233  0.5197
19982TIP3    H181437   5.729   1.056   2.172 -0.9802 -0.2196 -1.0491
19982TIP3    H281438   5.829   1.168   2.155 -0.8142 -0.1186  0.4664
19983TIP3   OH281439   4.266   1.557   3.639 -0.4872 -0.0942 -0.6069
19983TIP3    H181440   4.307   1.470   3.646  0.4899  0.2429 -1.7146
19983TIP3    H281441   4.277   1.596   3.726 -0.6439 -0.9408 -0.1920
19984TIP3   OH281442   0.109   1.089  12.870  0.2227  0.0330  0.2419
19984TIP3    H181443   0.057   1.162  12.904  1.2540  1.0808 -0.3930
19984TIP3    H281444   0.182   1.080  12.931  1.6186  1.3719 -1.1587
19985TIP3   OH281445   2.390   5.016   1.531 -0.2313 -0.5249  0.5297
19985TIP3    H181446   2.411   4.953   1.462  2.2485  1.4083 -0.6347
19985TIP3    H281447   2.393   4.964   1.612  0.4666 -2.1469 -0.4768
19986TIP3   OH281448   1.620   3.967   3.482 -0.2895  0.5735 -0.1733
19986TIP3    H181449   1.660   3.890   3.524 -2.2226 -0.4418 -0.0403
19986TIP3    H281450   1.534   3.936   3.455 -0.2926  2.1213 -2.1014
19987TIP3   OH281451   6.743   2.541   2.806  0.2075 -0.0155  0.3042
19987TIP3    H181452   6.823   2.544   2.857  0.7330 -0.8536 -0.4409
19987TIP3    H281453   6.771   2.516   2.718 -1.0408 -2.3790  0.4809
19988TIP3   OH281454   6.402   0.743  11.971 -0.6319 -0.0420 -0.7430
19988TIP3    H181455   6.459   0.669  11.989 -1.7684 -0.6576  0.4659
19988TIP3    H281456   6.315   0.705  11.959 -1.1384  1.0447 -0.6629
19989TIP3   OH281457   6.028   1.790  14.853 -0.3134 -0.7444 -0.5698
19989TIP3    H181458   6.010   1.866  14.798 -1.0816 -1.5381 -1.4641
19989TIP3    H281459   5.941   1.757  14.877 -0.0896  0.7911  2.9505
19990TIP3   OH281460   2.082   5.493   3.359  0.2396  0.5682  0.3045
19990TIP3    H181461   2.055   5.420   3.415  0.3525  0.1763 -0.1461
19990TIP3    H281462   2.169   5.469   3.328  0.2312  0.8388  0.0633
19991TIP3   OH281463   2.495   1.919  11.210  0.0497  0.8828  0.6042
19991TIP3    H181464   2.444   1.869  11.147  0.9548  1.5541 -0.7023
19991TIP3    H281465   2.442   1.919  11.290 -0.7205 -0.7299  0.1355
19992TIP3   OH281466   3.327   0.571  13.901 -0.2975  0.0934  0.1089
19992TIP3    H181467   3.382   0.610  13.833 -0.2358  0.6119  0.4523
19992TIP3    H281468   3.339   0.476  13.889 -0.5556  0.1684 -0.8114
19993TIP3   OH281469   3.955   3.252  15.604  0.0413 -0.4503  0.2197
19993TIP3    H181470   3.925   3.174  15.557  1.1259 -1.2665  0.8120
19993TIP3    H281471   4.050   3.251  15.592  0.0566  0.8140  0.1987
19994TIP3   OH281472   1.408   4.961  13.436  0.4182 -0.0286 -1.1406
19994TIP3    H181473   1.494   4.999  13.455 -0.4079  1.3792 -0.0017
19994TIP3    H281474   1.386   4.911  13.515 -1.0311  2.0548 -0.1149
19995TIP3   OH281475   6.164   5.336   0.622 -0.1384 -0.4914 -0.4146
19995TIP3    H181476   6.171   5.413   0.678  2.3252 -1.0027  0.1183
19995TIP3    H281477   6.106   5.277   0.670 -0.0534  0.0507  0.3813
19996TIP3   OH281478   5.218   4.331   4.857 -0.1294  0.8247  0.3150
19996TIP3    H181479   5.154   4.318   4.927 -1.6828 -0.2450 -1.2337
19996TIP3    H281480   5.169   4.376   4.788  1.2206  1.3706 -0.3177
19997TIP3   OH281481   5.206   5.598   2.098  0.1231 -0.3634  0.0272
19997TIP3    H181482   5.211   5.612   2.003 -3.4283 -0.7592 -0.3472
19997TIP3    H281483   5.236   5.508   2.110  0.0571 -0.5048 -0.8056
19998TIP3   OH281484   6.031   0.146   0.178 -0.0248 -0.1843 -0.1674
19998TIP3    H181485   6.042   0.072   0.119  1.3840  0.3835 -0.6725
19998TIP3    H281486   6.118   0.187   0.181  0.1356 -0.5104  2.7451
19999TIP3   OH281487   4.337   1.129   0.217  0.1517  0.0939 -0.3119
19999TIP3    H181488   4.409   1.141   0.154  1.1182 -3.0749  0.0207
19999TIP3    H281489   4.309   1.039   0.204 -2.0294  0.4444  1.4301
20000TIP3   OH281490   1.907   0.101  13.447 -0.5886  0.1530  0.2522
20000TIP3    H181491   1.858   0.088  13.528  2.1240 -2.5495  1.6913
20000TIP3    H281492   1.965   0.174  13.467 -0.3111 -0.1503  0.5879
20001TIP3   OH281493   6.740   2.636   4.980  0.1651 -0.2995  0.0683
20001TIP3    H181494   6.773   2.590   4.903 -2.1623 -2.6807  0.3048
20001TIP3    H281495   6.725   2.566   5.044 -2.2255  0.9620  1.0114
20002TIP3   OH281496   0.869   4.659  11.072  0.0590  0.0982  0.4079
20002TIP3    H181497   0.796   4.704  11.029  0.7446 -0.1730 -1.1311
20002TIP3    H281498   0.883   4.581  11.018  1.1353 -0.1281  0.9919
20003TIP3   OH281499   4.867   1.534  15.429  0.2582 -0.1715  0.4069
20003TIP3    H181500   4.841   1.473  15.498 -0.1075 -0.4280  0.0477
20003TIP3    H281501   4.785   1.577  15.403  0.6138  1.0309  1.1674
20004TIP3   OH281502   0.205   4.745  16.183  0.3623  0.1662 -0.3355
20004TIP3    H181503   0.269   4.811  16.208  2.1767 -0.7522 -2.2534
20004TIP3    H281504   0.217   4.735  16.089 -2.2298 -0.5028 -0.6863
20005TIP3   OH281505   3.341   2.479   1.170  0.2887 -0.2945 -0.3991
20005TIP3    H181506   3.345   2.542   1.242 -1.0039  1.6977 -1.9375
20005TIP3    H281507   3.394   2.519   1.100 -0.8090 -0.7197 -1.5150
20006TIP3   OH281508   2.752   3.003   0.280 -0.1441  0.0564 -0.0002
20006TIP3    H181509   2.840   2.987   0.314 -0.0785 -1.6926 -0.8662
20006TIP3    H281510   2.764   3.067   0.210  0.6234 -0.9715 -0.8402
20007TIP3   OH281511   3.905   2.047  11.862 -0.7293 -0.2266  0.3122
20007TIP3    H181512   3.963   2.117  11.832 -0.3809 -0.1515  1.1484
20007TIP3    H281513   3.882   2.000  11.782 -1.7031  1.3614 -0.3999
20008TIP3   OH281514   4.681   1.882  10.833  0.4009 -0.3343 -0.1770
20008TIP3    H181515   4.706   1.836  10.753  0.9589  0.2517 -0.3428
20008TIP3    H281516   4.700   1.974  10.816 -1.2138  0.0582 -0.0474
20009TIP3   OH281517   5.875   3.177  13.058  0.0189  0.3440  0.3716
20009TIP3    H181518   5.843   3.166  13.148  2.1835 -0.5450  1.0879
20009TIP3    H281519   5.969   3.163  13.064  0.1369 -0.4043 -2.1678
20010TIP3   OH281520   3.419   4.038   0.908  0.2894  0.0848 -0.2332
20010TIP3    H181521   3.500   4.028   0.857  0.7253  0.8829  0.2787
20010TIP3    H281522   3.407   4.133   0.915  0.9915  0.0584  2.2577
20011TIP3   OH281523   1.127   3.952   2.938 -0.6324 -0.3361 -0.4061
20011TIP3    H181524   1.146   4.046   2.945 -0.1401 -0.2119 -2.8147
20011TIP3    H281525   1.036   3.948   2.908 -0.7381 -0.6475 -0.0514
20012TIP3   OH281526   6.495   3.785  17.220  0.7497 -0.4500  0.3576
20012TIP3    H181527   6.541   3.843  17.280  0.1574  1.2052 -0.7355
20012TIP3    H281528   6.405   3.818  17.218 -0.0463 -2.4324  0.9645
20013TIP3   OH281529   4.181   5.333   4.540  0.0976  0.0192 -0.1074
20013TIP3    H181530   4.104   5.388   4.554  0.9005  1.5723 -1.4589
20013TIP3    H281531   4.169   5.296   4.453  1.0388  0.6225 -0.5172
20014TIP3   OH281532   1.175   0.049  17.312  0.3262  0.2544  0.8536
20014TIP3    H181533   1.137   0.041  17.399  0.7689 -1.3274  0.9206
20014TIP3    H281534   1.221   0.133  17.314  0.0900  0.3724  2.0446
20015TIP3   OH281535   1.842   3.344  13.394 -0.1256 -0.0593  0.3785
20015TIP3    H181536   1.814   3.355  13.303  1.9645  1.5186 -0.1355
20015TIP3    H281537   1.929   3.304  13.388 -0.3160 -0.7554  1.7577
20016TIP3   OH281538   5.314   1.200   1.499 -0.3784 -0.2659 -0.3276
20016TIP3    H181539   5.365   1.121   1.515  1.7357  1.2509  0.9355
20016TIP3    H281540   5.379   1.269   1.490 -2.1727  1.8263  1.5703
20017TIP3   OH281541   3.535   2.925  16.940  0.3765 -0.1024 -0.1183
20017TIP3    H181542   3.567   2.930  16.850 -0.2047 -1.1858 -0.4039
20017TIP3    H281543   3.598   2.871  16.986 -0.1520 -0.8697 -0.2774
20018TIP3   OH281544   5.197   5.970  17.291 -0.0593 -0.1444  0.1155
20018TIP3    H181545   5.187   5.951  17.198  2.2653 -1.5289  0.0735
20018TIP3    H281546   5.146   5.903  17.336  0.9532 -1.1157 -0.1558
20019TIP3   OH281547   5.218   1.793  15.989 -0.3304 -0.3901  0.0485
20019TIP3    H181548   5.299   1.836  16.016  0.3701 -0.9294 -1.1251
20019TIP3    H281549   5.153   1.863  15.989  0.3564  0.2614  0.0144
20020TIP3   OH281550   3.272   3.702  13.126  0.2576 -0.3518 -0.0736
20020TIP3    H181551   3.356   3.713  13.172  0.4980  0.2233 -0.6324
20020TIP3    H281552   3.215   3.660  13.190  1.0754 -1.0647  0.2031
20021TIP3   OH281553   4.886   1.141   5.845  0.2642  0.0770  0.2802
20021TIP3    H181554   4.879   1.221   5.897  1.7113  0.2074  0.3318
20021TIP3    H281555   4.975   1.144   5.808  0.6507 -1.8604  0.9085
20022TIP3   OH281556   6.596   6.020  12.128  0.0799 -0.0150  0.3792
20022TIP3    H181557   6.527   6.078  12.158 -0.5009 -0.3666 -0.2426
20022TIP3    H281558   6.631   5.980  12.208 -0.6265 -0.0412  0.6784
20023TIP3   OH281559   2.238   6.721  13.587 -0.1718 -0.0500  0.6270
20023TIP3    H181560   2.205   6.665  13.658  0.2293 -0.9431  0.1254
20023TIP3    H281561   2.180   6.702  13.513 -0.4095  0.6620  0.6274
20024TIP3   OH281562   2.313   2.572   4.094 -0.6482 -0.5322  0.5407
20024TIP3    H181563   2.376   2.602   4.028  1.1214 -1.3206  1.7994
20024TIP3    H281564   2.256   2.648   4.108 -0.0618  0.1768 -0.7028
20025TIP3   OH281565   0.837   4.262  15.123 -0.3565 -0.1390  0.6674
20025TIP3    H181566   0.778   4.322  15.168 -1.2565  0.7812 -1.6140
20025TIP3    H281567   0.810   4.264  15.032  1.0655 -2.3002  0.1007
20026TIP3   OH281568   5.873   6.535  14.864  0.5005  0.6035 -0.6544
20026TIP3    H181569   5.931   6.578  14.928 -0.1967  0.5619  0.0174
20026TIP3    H281570   5.801   6.597  14.852  0.6404  0.6208 -1.4276
20027TIP3   OH281571   0.404   0.396   3.342 -0.0528 -0.2055 -0.2047
20027TIP3    H181572   0.349   0.334   3.390  0.6544 -0.1510  0.7022
20027TIP3    H281573   0.343   0.460   3.307 -0.6705 -0.7312 -0.1120
20028TIP3   OH281574   0.109   4.054   4.552  0.3745  0.2243  0.0974
20028TIP3    H181575   0.097   4.062   4.646 -2.1481  1.5535 -0.2613
20028TIP3    H281576   0.071   3.969   4.529  0.2438  0.2621  0.1754
20029TIP3   OH281577   5.027   2.819   2.404  0.5000  0.0841  0.1730
20029TIP3    H181578   4.932   2.821   2.417  0.6675 -0.7852  1.7818
20029TIP3    H281579   5.052   2.911   2.397 -0.5521  0.2993 -1.2197
20030TIP3   OH281580   4.685   4.044  15.863  0.1792 -0.5239  0.3699
20030TIP3    H181581   4.679   4.138  15.850  1.4119 -0.3320  1.0236
20030TIP3    H281582   4.749   4.015  15.798 -0.7388 -1.0368 -0.3251
20031TIP3   OH281583   0.422   2.384   0.142 -0.5190 -0.0339  0.1019
20031TIP3    H181584   0.332   2.416   0.150 -0.8498 -1.2240  1.6274
20031TIP3    H281585   0.414   2.300   0.096 -0.1200  0.1077 -0.2336
20032TIP3   OH281586   1.714   4.650   4.631  0.2465  0.4539 -0.3219
20032TIP3    H181587   1.733   4.726   4.576 -0.2508 -0.5952 -2.0114
20032TIP3    H281588   1.782   4.652   4.699  1.4585  1.2987 -1.5078
20033TIP3   OH281589   3.399   6.153  14.995 -0.0475  0.1375  0.4781
20033TIP3    H181590   3.322   6.098  15.008 -1.0923  1.7484  1.3938
20033TIP3    H281591   3.468   6.091  14.969 -1.0343 -1.6540  1.8707
20034TIP3   OH281592   2.194   2.791  16.269  0.2229 -0.0451  0.2050
20034TIP3    H181593   2.146   2.874  16.269  0.7384  0.2661  0.8798
20034TIP3    H281594   2.207   2.771  16.176 -0.3679  0.3566  0.0283
20035TIP3   OH281595   5.189   0.299  17.252  0.0003 -0.7941  0.0237
20035TIP3    H181596   5.140   0.380  17.267 -1.5922 -1.7077  0.0055
20035TIP3    H281597   5.245   0.318  17.177  0.8163  0.7643  1.0015
20036TIP3   OH281598   6.394   1.296   4.905 -0.4450  0.0397  0.3912
20036TIP3    H181599   6.486   1.298   4.879 -0.1885 -0.0676  1.2692
20036TIP3    H281600   6.376   1.205   4.925 -0.8405  0.0064 -0.0990
20037TIP3   OH281601   4.279   6.236  11.570  0.1360 -0.0065 -0.0688
20037TIP3    H181602   4.282   6.324  11.608 -1.2945 -0.1566  0.4489
20037TIP3    H281603   4.335   6.241  11.493  0.9286  1.0577  0.5471
20038TIP3   OH281604   3.431   2.751  15.913  0.1878  0.3537 -0.0551
20038TIP3    H181605   3.383   2.690  15.968  3.0609 -0.9805  1.1958
20038TIP3    H281606   3.408   2.727  15.824  1.3569 -2.8412  0.3672
20039TIP3   OH281607   1.185   3.847  17.504  0.0215  0.4568 -0.1591
20039TIP3    H181608   1.089   3.846  17.507 -0.0464 -0.1751 -1.5119
20039TIP3    H281609   1.212   3.882  17.589 -1.3854 -0.3329  0.6518
20040TIP3   OH281610   0.520   4.175   2.506  0.4583 -0.0370 -0.2306
20040TIP3    H181611   0.456   4.105   2.496 -0.2551  0.2832  1.7280
20040TIP3    H281612   0.533   4.208   2.417 -1.4670 -0.6670 -0.7934
20041TIP3   OH281613   0.264   6.623   4.316 -0.1163  0.1936 -0.2655
20041TIP3    H181614   0.348   6.655   4.282 -0.5361 -0.2575 -1.7565
20041TIP3    H281615   0.254   6.535   4.280  1.1167 -1.9560  3.9123
20042TIP3   OH281616   6.538   4.775  11.543 -0.1437  0.5430  0.3349
20042TIP3    H181617   6.467   4.818  11.591 -0.3213  0.3311  0.2618
20042TIP3    H281618   6.591   4.848  11.510  0.1663  0.6810  1.1340
20043TIP3   OH281619   4.417   1.367  11.575  0.2398  0.0932 -0.3813
20043TIP3    H181620   4.398   1.398  11.487  0.9137 -1.5527 -1.1492
20043TIP3    H281621   4.422   1.272  11.566 -2.7514 -0.4666  2.0066
20044TIP3   OH281622   4.141   3.531   1.513  0.5040  0.1527  0.4327
20044TIP3    H181623   4.093   3.603   1.553 -1.3730 -2.0227  2.3828
20044TIP3    H281624   4.082   3.497   1.446  1.7118  0.8586 -1.0472
20045TIP3   OH281625   4.733   1.010  12.962  0.3435  0.6924  0.3343
20045TIP3    H181626   4.823   0.980  12.950 -1.1316 -3.9806 -0.9001
20045TIP3    H281627   4.712   0.990  13.053 -0.2845 -1.0551 -0.1713
20046TIP3   OH281628   5.849   0.659  16.793  0.2180 -0.3496  0.1009
20046TIP3    H181629   5.823   0.568  16.805 -0.1353 -0.6289 -2.2353
20046TIP3    H281630   5.776   0.710  16.829  0.3158 -0.9692  1.2116
20047TIP3   OH281631   1.332   5.570  13.480 -0.0288 -0.5392  0.5946
20047TIP3    H181632   1.270   5.546  13.411  0.4264  0.6456 -0.2685
20047TIP3    H281633   1.416   5.582  13.434  0.1324  0.9614  1.1999
20048TIP3   OH281634   5.869   4.744  16.335  0.1045 -0.1465  0.1049
20048TIP3    H181635   5.845   4.652  16.321  0.1894 -0.0144 -1.0383
20048TIP3    H281636   5.796   4.794  16.298  0.8835  0.2410 -0.9693
20049TIP3   OH281637   4.019   6.216   3.032  0.1118  0.2905  0.1665
20049TIP3    H181638   4.028   6.121   3.033 -0.8632  0.1629 -0.8920
20049TIP3    H281639   4.002   6.238   2.940  1.4249  1.6072  0.2058
20050TIP3   OH281640   4.371   4.512  12.551 -0.3552 -0.4629 -0.1199
20050TIP3    H181641   4.362   4.439  12.490  0.4524  0.4059 -1.3065
20050TIP3    H281642   4.459   4.501  12.587 -0.0310  0.2079 -0.6940
20051TIP3   OH281643   2.438   4.427  15.861 -0.1918  0.4429  0.1853
20051TIP3    H181644   2.467   4.447  15.772 -2.2886  4.4638  0.1901
20051TIP3    H281645   2.503   4.469  15.917  1.2737 -2.3064  0.7190
20052TIP3   OH281646   2.424   2.811   3.282  0.3738 -0.0848 -0.0617
20052TIP3    H181647   2.470   2.792   3.363  0.6990  0.1032 -0.2019
20052TIP3    H281648   2.489   2.852   3.226  0.3560 -0.9001 -0.6960
20053TIP3   OH281649   0.816   4.522   2.971 -0.1602 -0.3034  0.1379
20053TIP3    H181650   0.793   4.615   2.972  0.7965 -0.0482 -0.3065
20053TIP3    H281651   0.804   4.495   2.880 -0.2910 -0.5704  0.2347
20054TIP3   OH281652   0.916   3.537   4.869 -0.1941  0.1562  0.2763
20054TIP3    H181653   0.975   3.493   4.807 -1.3221 -2.0248  0.6584
20054TIP3    H281654   0.910   3.627   4.836  1.7330 -0.0981 -0.9250
20055TIP3   OH281655   4.783   0.959   6.821  0.0364  0.3996 -0.1515
20055TIP3    H181656   4.712   1.015   6.790  1.3462  1.2839 -1.7187
20055TIP3    H281657   4.821   0.922   6.741  2.0045  0.8254  0.5317
20056TIP3   OH281658   0.398   2.439   3.052 -0.7900  0.2026 -0.1825
20056TIP3    H181659   0.387   2.386   2.974  1.8440  0.7186 -1.0344
20056TIP3    H281660   0.491   2.432   3.073 -0.7445  2.7246  0.9247
20057TIP3   OH281661   5.044   6.361  10.643  0.7523 -0.3658  0.1873
20057TIP3    H181662   5.118   6.320  10.689  0.2569 -1.2143  0.2395
20057TIP3    H281663   5.085   6.419  10.579  1.4614  0.0249  0.9737
20058TIP3   OH281664   2.812   0.039   3.325  0.2565 -0.9379  0.0318
20058TIP3    H181665   2.783   0.115   3.275 -0.3729 -1.2889 -0.1408
20058TIP3    H281666   2.872   0.075   3.390  2.2393 -0.6347 -1.8514
20059TIP3   OH281667   1.611   3.118   0.088 -0.2951 -0.1712 -0.4555
20059TIP3    H181668   1.556   3.039   0.087 -1.7344  0.7926 -1.6349
20059TIP3    H281669   1.582   3.168   0.012 -0.0418  1.9101  0.7452
20060TIP3   OH281670   2.819   5.474  17.489 -0.2416 -0.5857 -0.5156
20060TIP3    H181671   2.836   5.537  17.419  0.6472  0.7541  0.8559
20060TIP3    H281672   2.726   5.487  17.510  0.1309  0.9362  0.3382
20061TIP3   OH281673   1.311   4.163  11.259 -0.6059 -0.0790 -0.1254
20061TIP3    H181674   1.218   4.144  11.270 -0.7885  0.7047 -0.2354
20061TIP3    H281675   1.314   4.256  11.236  0.3078  0.2941  1.3795
20062TIP3   OH281676   0.321   1.082  13.752  0.7815 -0.0751  0.0175
20062TIP3    H181677   0.417   1.091  13.757  0.6155  1.7238  0.4748
20062TIP3    H281678   0.287   1.145  13.815 -0.7199 -1.8137  1.0511
20063TIP3   OH281679   4.242   0.139   0.553 -0.0394  0.2895  0.0420
20063TIP3    H181680   4.228   0.048   0.525  0.1332  0.2606  0.0453
20063TIP3    H281681   4.320   0.135   0.608  1.1124  0.7184 -1.4809
20064TIP3   OH281682   3.088   3.385  13.749 -0.4102  0.5313 -0.5786
20064TIP3    H181683   3.168   3.347  13.786 -0.1883  0.4214 -1.1573
20064TIP3    H281684   3.091   3.362  13.657 -0.9487  0.8169 -0.6734
20065TIP3   OH281685   6.371   5.162   4.258 -0.3443  0.8943 -0.0581
20065TIP3    H181686   6.449   5.165   4.314  0.2048  1.7108 -0.8456
20065TIP3    H281687   6.308   5.220   4.301 -0.3169  0.6839  0.2732
20066TIP3   OH281688   3.270   2.765  13.369  0.4354  0.2463  0.1035
20066TIP3    H181689   3.331   2.700  13.337 -0.8860 -1.7695  1.4071
20066TIP3    H281690   3.221   2.720  13.439 -0.1661  2.8110  1.4788
20067TIP3   OH281691   0.573   3.714   2.345  0.1742 -0.0298  0.0922
20067TIP3    H181692   0.586   3.763   2.425  2.5489 -1.4375  0.6532
20067TIP3    H281693   0.514   3.642   2.370  0.2793 -0.0150  0.3822
20068TIP3   OH281694   1.477   0.006  16.110  0.3704  0.1610  0.4613
20068TIP3    H181695   1.401  -0.010  16.054 -0.6601  2.2510  1.1722
20068TIP3    H281696   1.463  -0.050  16.186 -0.3279  0.3143  0.4503
20069TIP3   OH281697   5.345   2.246  11.053 -0.0400  0.5271 -0.6530
20069TIP3    H181698   5.386   2.304  11.117  2.1338 -1.6499  0.0421
20069TIP3    H281699   5.365   2.287  10.968  0.9460  1.1191 -0.1511
20070TIP3   OH281700   5.381   0.040  15.965 -0.1017 -0.5790 -0.4078
20070TIP3    H181701   5.352   0.037  15.874 -0.3768 -1.1989 -0.3053
20070TIP3    H281702   5.313   0.091  16.010  0.4579  0.4569 -0.6875
20071TIP3   OH281703   1.731   2.516  14.821  0.3079  0.3229 -0.0298
20071TIP3    H181704   1.657   2.547  14.873  0.6145  0.9890  0.0154
20071TIP3    H281705   1.690   2.480  14.742  0.0057  2.7189 -1.0542
20072TIP3   OH281706   2.977   5.564  10.640  0.4452 -0.1159 -0.7736
20072TIP3    H181707   3.003   5.485  10.688  0.0763 -0.3279 -0.9148
20072TIP3    H281708   3.047   5.627  10.658  0.2844 -0.1671  0.1086
20073TIP3   OH281709   0.128   3.324  14.603  0.4128  0.5640  0.8145
20073TIP3    H181710   0.104   3.411  14.571  1.5148  0.8700  0.7944
20073TIP3    H281711   0.077   3.264  14.549 -1.7676  1.2271  2.0372
20074TIP3   OH281712   1.932   6.713  12.997  0.0896 -0.5729  0.4648
20074TIP3    H181713   1.883   6.788  12.964  1.7221  0.3606  0.0322
20074TIP3    H281714   1.866   6.654  13.032 -1.2833  0.8124  0.2959
20075TIP3   OH281715   0.979   2.192  14.307  0.1027 -0.2233 -0.2096
20075TIP3    H181716   0.950   2.248  14.235 -1.4400 -0.9495 -0.2042
20075TIP3    H281717   1.057   2.147  14.273  0.7194  1.0894 -0.5893
20076TIP3   OH281718   4.992   2.129  12.296  0.2771  0.0449  0.3619
20076TIP3    H181719   4.926   2.064  12.272  0.6732  0.3974 -1.8908
20076TIP3    H281720   4.942   2.207  12.321 -0.1714 -0.4266  0.9485
20077TIP3   OH281721   1.453   3.608  13.622  0.7529 -0.1095 -0.4973
20077TIP3    H181722   1.453   3.512  13.630 -2.2138 -0.1677 -0.2109
20077TIP3    H281723   1.464   3.640  13.712  2.4376 -0.1214 -0.6706
20078TIP3   OH281724   3.133   1.152  16.190  0.0641 -0.1380 -0.5252
20078TIP3    H181725   3.042   1.154  16.161 -0.0268  0.5752 -0.2066
20078TIP3    H281726   3.135   1.088  16.261 -0.0319 -0.7029 -1.0231
20079TIP3   OH281727   2.696   1.171   5.947  0.2933 -0.2894 -0.1889
20079TIP3    H181728   2.665   1.184   6.036  0.8596  0.0676 -0.0387
20079TIP3    H281729   2.751   1.247   5.929 -0.2220 -0.0931 -1.0306
20080TIP3   OH281730   2.016   2.869   0.556  0.0153 -0.0182  0.5049
20080TIP3    H181731   1.956   2.944   0.552  0.8424  0.6949  1.0617
20080TIP3    H281732   2.053   2.864   0.468 -0.5696 -0.2330  0.2630
20081TIP3   OH281733   5.443   2.242   5.553  0.1326 -0.2478 -0.5779
20081TIP3    H181734   5.474   2.299   5.482 -1.8607 -0.3280 -1.5881
20081TIP3    H281735   5.350   2.231   5.535 -0.1947 -1.1619  1.4826
20082TIP3   OH281736   5.667   5.544  14.368  0.4291 -0.1539 -0.1649
20082TIP3    H181737   5.588   5.525  14.419  0.3467  1.1521  0.2271
20082TIP3    H281738   5.737   5.545  14.433  0.5263  0.1957 -0.2727
20083TIP3   OH281739   3.542   0.477   0.657  0.3133  0.2976  0.5292
20083TIP3    H181740   3.531   0.566   0.691 -2.0989 -0.3249  1.6448
20083TIP3    H281741   3.527   0.421   0.733  1.6179 -1.0778 -0.1973
20084TIP3   OH281742   5.712   5.207  13.531 -0.6876  0.2915  0.5255
20084TIP3    H181743   5.721   5.112  13.520  1.5982  0.4360  0.8469
20084TIP3    H281744   5.657   5.234  13.457 -0.0294 -1.0839 -0.5123
20085TIP3   OH281745   2.684   2.421   2.595 -0.6653 -0.0144 -0.0729
20085TIP3    H181746   2.658   2.441   2.684  1.1840 -0.3071  0.5741
20085TIP3    H281747   2.714   2.505   2.559 -0.7815 -0.0265 -0.2001
20086TIP3   OH281748   1.530   3.143   1.916 -0.3662  0.5320 -0.0523
20086TIP3    H181749   1.563   3.067   1.867  0.9079  1.3211 -0.4795
20086TIP3    H281750   1.464   3.107   1.975  1.6926 -1.2866  1.2891
20087TIP3   OH281751   5.629   1.579   5.942  0.0851  0.3795  0.4696
20087TIP3    H181752   5.629   1.602   5.849  2.0570  0.7938  0.5328
20087TIP3    H281753   5.556   1.629   5.978  0.2195  1.4115 -0.6069
20088TIP3   OH281754   2.206   1.776   0.896  0.4697  0.1929  0.6640
20088TIP3    H181755   2.162   1.761   0.812 -0.8701  0.3314  1.3031
20088TIP3    H281756   2.251   1.859   0.885  0.9150 -0.1352 -0.1381
20089TIP3   OH281757   5.782   3.150  16.566  0.3234 -0.0151 -0.2611
20089TIP3    H181758   5.742   3.091  16.630 -0.8586 -0.3229 -1.2506
20089TIP3    H281759   5.793   3.232  16.613 -0.0135 -0.3876  0.4931
20090TIP3   OH281760   6.198   3.386   6.256 -0.5612  0.1193  0.5739
20090TIP3    H181761   6.226   3.463   6.206 -1.2791  1.5544  2.2939
20090TIP3    H281762   6.105   3.401   6.274 -0.5206 -0.7521  1.6491
20091TIP3   OH281763   6.654   5.552   5.209 -0.1877 -0.0678  0.1019
20091TIP3    H181764   6.685   5.630   5.163 -0.7264  1.2727  1.8747
20091TIP3    H281765   6.559   5.553   5.197 -0.3003  0.1185  0.8998
20092TIP3   OH281766   6.721   6.065   3.821  0.3606 -0.6144  0.5139
20092TIP3    H181767   6.759   6.014   3.750  1.3636  1.6992 -0.6893
20092TIP3    H281768   6.687   6.144   3.780 -1.8623 -0.5889  2.1990
20093TIP3   OH281769   5.729   0.475  11.585  0.0731  0.6311  0.1191
20093TIP3    H181770   5.777   0.395  11.606  0.6605  1.3330  1.5817
20093TIP3    H281771   5.789   0.525  11.530  0.3677  0.7779  0.5676
20094TIP3   OH281772   1.038   1.878   5.922 -0.2293 -0.5685  0.3568
20094TIP3    H181773   1.040   1.970   5.950  0.4656 -0.4702  0.0097
20094TIP3    H281774   1.123   1.843   5.947  0.1365 -0.6732 -0.9555
20095TIP3   OH281775   4.483   4.900  11.619  0.6437 -0.0799  0.0055
20095TIP3    H181776   4.555   4.918  11.679  0.7232 -0.2312 -0.0440
20095TIP3    H281777   4.419   4.852  11.672  0.8571 -0.4967 -0.1199
20096TIP3   OH281778   1.598   3.075   4.719 -0.1887  0.2385 -0.3194
20096TIP3    H181779   1.557   3.105   4.638  1.9572 -1.5622 -2.2512
20096TIP3    H281780   1.655   3.147   4.745  0.5947  0.1384 -1.6224
20097TIP3   OH281781   3.500   5.685  17.352 -0.6518  0.2523  0.1490
20097TIP3    H181782   3.557   5.721  17.420  0.2729 -0.1085 -0.4207
20097TIP3    H281783   3.560   5.650  17.286 -1.5282 -0.8657 -0.0894
20098TIP3   OH281784   6.454   4.272  12.757  0.4124 -0.1034  0.0267
20098TIP3    H181785   6.521   4.286  12.824  0.9496 -2.0002 -0.0550
20098TIP3    H281786   6.410   4.191  12.784  0.7031 -0.9593 -1.9596
20099TIP3   OH281787   1.966   2.366   1.104 -0.0789  0.2631  0.5246
20099TIP3    H181788   2.033   2.308   1.140 -0.7909 -1.3955 -0.6646
20099TIP3    H281789   1.954   2.336   1.013 -1.1930  1.6331  0.1808
20100TIP3   OH281790   4.523   1.133   6.843 -0.2686  0.0617 -0.1323
20100TIP3    H181791   4.484   1.048   6.820  0.3259 -0.3359  0.2737
20100TIP3    H281792   4.567   1.162   6.763  1.2002 -0.9784  0.2427
20101TIP3   OH281793   6.697   1.216   1.306 -0.0108 -0.5511  0.2346
20101TIP3    H181794   6.755   1.241   1.378  0.1286 -2.2983  0.7694
20101TIP3    H281795   6.609   1.229   1.340  0.0452  0.2380  0.1047
20102TIP3   OH281796   5.240   0.272   3.038 -0.1241  0.9556 -0.1428
20102TIP3    H181797   5.226   0.211   3.110  0.2798 -0.2528 -1.0611
20102TIP3    H281798   5.153   0.308   3.021 -0.6603 -0.4989 -0.5655
20103TIP3   OH281799   2.280   3.412  15.417  0.1243  0.3893  0.2146
20103TIP3    H181800   2.353   3.352  15.431 -0.8724 -0.7307  0.7203
20103TIP3    H281801   2.204   3.356  15.403 -0.6761  1.5290 -0.2279
20104TIP3   OH281802   6.319   1.250  13.381 -0.1533  0.4330 -0.3649
20104TIP3    H181803   6.325   1.325  13.439 -2.5792  2.6079 -2.6584
20104TIP3    H281804   6.227   1.223  13.386  0.7101 -2.7488  0.6643
20105TIP3   OH281805   3.437   3.605   6.450  0.3121 -0.3172 -0.4906
20105TIP3    H181806   3.511   3.571   6.500 -1.1388 -0.7084  1.5256
20105TIP3    H281807   3.385   3.527   6.428 -0.0481  0.0540 -0.9830
20106TIP3   OH281808   5.733   0.513   1.142  0.4223 -0.0423 -0.4653
20106TIP3    H181809   5.736   0.603   1.176  0.7672  0.1615 -1.0238
20106TIP3    H281810   5.682   0.519   1.062 -0.2593 -0.4963 -0.0737
20107TIP3   OH281811   2.735   6.672  15.263 -0.0297  0.0266  0.0101
20107TIP3    H181812   2.640   6.680  15.258 -0.1451 -0.5145  0.9428
20107TIP3    H281813   2.768   6.731  15.196 -1.0699 -1.3494 -1.8186
20108TIP3   OH281814   5.515   5.798  11.423  0.2026 -0.9283  0.4151
20108TIP3    H181815   5.594   5.818  11.473  0.0126  2.4841 -0.4107
20108TIP3    H281816   5.449   5.859  11.457 -0.9295 -0.9751 -1.5469
20109TIP3   OH281817   1.045   6.458  13.435  0.3519 -0.2867  0.6116
20109TIP3    H181818   1.116   6.471  13.498  0.7973  2.3259 -0.3123
20109TIP3    H281819   0.965   6.481  13.484  0.5815  0.6312  0.5722
20110TIP3   OH281820   4.584   2.305   0.732 -0.2251 -0.6292 -0.0773
20110TIP3    H181821   4.569   2.316   0.826  1.4704 -0.7088  0.2355
20110TIP3    H281822   4.607   2.392   0.701 -1.0849 -0.5439 -0.4896
20111TIP3   OH281823   2.474   0.063  10.793  0.0455 -0.2969 -0.3767
20111TIP3    H181824   2.540   0.113  10.745  0.2490  0.5582  0.7558
20111TIP3    H281825   2.397   0.063  10.737  0.9504 -1.2355 -1.6889
20112TIP3   OH281826   2.963   2.436  12.225  0.0944 -0.4366  0.3046
20112TIP3    H181827   3.058   2.444  12.214  0.2403 -1.2075  0.9306
20112TIP3    H281828   2.937   2.518  12.267  0.8642 -1.2036  2.3885
20113TIP3   OH281829   5.764   2.075   1.287  0.0412 -0.0512  0.1584
20113TIP3    H181830   5.704   2.058   1.359 -0.2990 -0.7207 -0.2728
20113TIP3    H281831   5.708   2.071   1.209  0.1951  1.6569 -0.0941
20114TIP3   OH281832   0.238   2.034  13.257  0.2767 -0.0195  0.3611
20114TIP3    H181833   0.304   1.994  13.201 -0.5681  0.6304 -1.1498
20114TIP3    H281834   0.244   2.127  13.239 -0.6293  0.1097  0.6684
20115TIP3   OH281835   4.965   4.420  14.464  0.2606 -0.2347  0.1528
20115TIP3    H181836   5.021   4.487  14.426 -0.2183  0.8049  1.2044
20115TIP3    H281837   4.999   4.337  14.430  0.5756  0.5606 -1.5371
20116TIP3   OH281838   3.144   1.342  15.049 -0.2332  0.7325  0.0314
20116TIP3    H181839   3.089   1.266  15.062  1.8170 -0.7438  0.6154
20116TIP3    H281840   3.143   1.357  14.954  1.4430 -1.8076 -0.4921
20117TIP3   OH281841   2.152   2.594  14.272 -0.2936 -0.3926 -0.1944
20117TIP3    H181842   2.134   2.532  14.342 -1.0321 -0.1360 -0.1489
20117TIP3    H281843   2.238   2.568  14.238 -0.1996 -0.8856  0.4051
20118TIP3   OH281844   2.162   2.277   5.837 -0.3763 -0.0576  0.4821
20118TIP3    H181845   2.246   2.252   5.876 -0.2053  0.0621  0.1895
20118TIP3    H281846   2.183   2.351   5.780 -0.8674  0.7041  1.2727
20119TIP3   OH281847   4.310   1.160  11.293  0.5451  0.2111  0.7238
20119TIP3    H181848   4.236   1.140  11.235  0.2312  1.7335  0.5575
20119TIP3    H281849   4.347   1.074  11.315 -0.0977 -0.4687 -0.7147
20120TIP3   OH281850   3.908   0.044   0.834 -0.0923 -0.6648 -0.0195
20120TIP3    H181851   3.896   0.078   0.923  1.5714 -0.0270 -0.0068
20120TIP3    H281852   3.916  -0.050   0.845 -0.5460 -0.6580  0.4282
20121TIP3   OH281853   0.006   4.249   1.305  0.5603 -0.5389 -0.0362
20121TIP3    H181854  -0.062   4.295   1.354 -0.3090 -2.2829  0.4862
20121TIP3    H281855  -0.038   4.221   1.224  1.9515  2.2237 -1.9050
20122TIP3   OH281856   3.518   3.080   2.159  0.0763 -0.5879 -0.4358
20122TIP3    H181857   3.457   3.140   2.115  0.8792  0.6119  0.0344
20122TIP3    H281858   3.520   3.112   2.249  0.9610 -0.9793 -0.3174
20123TIP3   OH281859   4.524   2.492   4.348 -0.3002 -0.7448  0.1872
20123TIP3    H181860   4.501   2.528   4.262 -2.8245 -2.0759  0.2140
20123TIP3    H281861   4.492   2.557   4.410 -1.9894 -1.4930  0.1566
20124TIP3   OH281862   1.207   2.989   5.428 -0.3686  0.0717  0.1182
20124TIP3    H181863   1.147   3.043   5.481  1.0272  0.0518  1.8052
20124TIP3    H281864   1.289   2.991   5.476 -0.0232 -2.9280 -0.1777
20125TIP3   OH281865   1.955   5.664   2.280 -0.1523  0.1533 -0.1000
20125TIP3    H181866   1.879   5.664   2.222 -1.4608 -1.1470  1.5040
20125TIP3    H281867   1.976   5.757   2.292 -1.2691  0.5250 -0.8730
20126TIP3   OH281868   6.222   3.353   5.921  0.0069  0.1027  0.6504
20126TIP3    H181869   6.222   3.449   5.925  0.4915  0.2430 -1.2964
20126TIP3    H281870   6.200   3.325   6.009 -2.5555  2.0415  0.7426
20127TIP3   OH281871   2.349   2.858  13.840 -0.3169  0.6224  0.2833
20127TIP3    H181872   2.334   2.949  13.864  2.5219  1.0524  0.7886
20127TIP3    H281873   2.388   2.818  13.918 -0.5263 -0.7462 -0.2833
20128TIP3   OH281874   5.612   2.963  14.094 -0.3494  0.1679  0.1041
20128TIP3    H181875   5.543   3.022  14.062 -0.1252  0.5131  0.2438
20128TIP3    H281876   5.614   2.977  14.188  0.8142  1.1839 -0.0398
20129TIP3   OH281877   6.600   4.494  12.041  0.3359 -0.5558  0.3007
20129TIP3    H181878   6.644   4.571  12.006 -1.1679 -0.2587 -1.0837
20129TIP3    H281879   6.670   4.431  12.058  1.4350  0.5354 -0.0607
20130TIP3   OH281880   5.553   1.684  15.307  0.6726  0.0089 -0.5062
20130TIP3    H181881   5.614   1.621  15.344  1.1487 -0.6646 -2.3204
20130TIP3    H281882   5.565   1.677  15.212 -1.3221  0.7580 -0.8802
20131TIP3   OH281883   2.481   6.418   3.985  0.0661 -0.3668  0.1528
20131TIP3    H181884   2.418   6.438   3.916 -0.3593  0.1363  0.6698
20131TIP3    H281885   2.486   6.323   3.988  1.6015 -0.4149 -1.9074
20132TIP3   OH281886   0.315   0.054   2.250  0.2704  0.1064 -0.0278
20132TIP3    H181887   0.363  -0.005   2.308 -0.2259 -1.6547 -1.2896
20132TIP3    H281888   0.348   0.033   2.162 -1.3241  0.2726 -0.7083
20133TIP3   OH281889   2.116   4.811  15.399 -0.0988  0.4692 -0.1522
20133TIP3    H181890   2.090   4.780  15.312  1.0023 -0.6008 -0.1315
20133TIP3    H281891   2.041   4.862  15.429 -1.7646 -1.6279 -0.4844
20134TIP3   OH281892   3.879   5.740   5.216 -0.1826 -0.1055  0.0780
20134TIP3    H181893   3.935   5.730   5.139 -1.8187  0.7931 -1.3147
20134TIP3    H281894   3.843   5.828   5.208  1.0985  0.7701  2.9838
20135TIP3   OH281895   0.260   1.915   2.534  0.5816  0.6152 -0.9739
20135TIP3    H181896   0.333   1.854   2.524  1.9286  1.7888  0.9784
20135TIP3    H281897   0.294   1.984   2.590 -2.0656  1.2073  0.0700
20136TIP3   OH281898   4.791   0.039  12.195 -0.2254  0.0311  0.4881
20136TIP3    H181899   4.869   0.092  12.180 -1.0020  1.2072  0.4993
20136TIP3    H281900   4.723   0.080  12.142 -1.0586 -0.4471  1.1556
20137TIP3   OH281901   4.142   3.286  13.288  0.1555  0.1492  0.7511
20137TIP3    H181902   4.198   3.272  13.211  0.0640 -0.8221  0.8472
20137TIP3    H281903   4.096   3.368  13.269  0.1239 -0.0815 -0.2368
20138TIP3   OH281904   1.873   4.058  14.442  0.9070 -0.4072  0.2392
20138TIP3    H181905   1.950   4.114  14.448 -0.6961  1.7967  1.4278
20138TIP3    H281906   1.841   4.070  14.353  1.9503 -1.4845 -0.3274
20139TIP3   OH281907   6.659   6.697   2.093 -0.0262  0.0686  0.0100
20139TIP3    H181908   6.661   6.764   2.162  0.6073  1.2533 -1.0993
20139TIP3    H281909   6.575   6.653   2.104  0.0779  0.2110  1.5415
20140TIP3   OH281910   0.836   4.292  15.412 -0.2343 -0.5082  0.8249
20140TIP3    H181911   0.876   4.227  15.469  0.2887  0.5470  1.6897
20140TIP3    H281912   0.770   4.243  15.363  0.7300 -1.8621  0.8176
20141TIP3   OH281913   3.451   4.957   5.211 -0.6041  0.1421  0.2434
20141TIP3    H181914   3.381   5.010   5.250 -0.1831 -0.7575  2.4141
20141TIP3    H281915   3.501   4.925   5.287  0.7795 -1.1045 -1.1295
20142TIP3   OH281916   4.362   0.605  15.618 -1.0146 -0.1730 -0.3671
20142TIP3    H181917   4.436   0.633  15.563 -1.1415  0.0429 -0.4271
20142TIP3    H281918   4.401   0.542  15.679 -0.9440 -0.7433 -0.9763
20143TIP3   OH281919   1.883   3.693  12.659 -0.7369  0.0949 -0.2433
20143TIP3    H181920   1.844   3.747  12.591 -2.5482 -0.0445  0.6068
20143TIP3    H281921   1.912   3.755  12.726  0.7148  0.2103 -0.9583
20144TIP3   OH281922   1.608   6.533  16.760  0.7568  0.4595 -0.7016
20144TIP3    H181923   1.591   6.446  16.798  1.4083  1.0221  0.9933
20144TIP3    H281924   1.595   6.593  16.833  1.9530  1.6335 -1.4139
20145TIP3   OH281925   6.018   0.457  12.728 -0.3052  0.8269 -0.0426
20145TIP3    H181926   5.949   0.391  12.732 -0.0064  0.4816 -0.5708
20145TIP3    H281927   5.970   0.540  12.720 -0.6726  0.6675  0.4021
20146TIP3   OH281928   4.209   4.391  13.059  0.3801  0.1710  0.0526
20146TIP3    H181929   4.156   4.395  13.138 -1.1085  1.5806 -0.9452
20146TIP3    H281930   4.225   4.482  13.035  1.1589 -0.2237 -1.0275
20147TIP3   OH281931   5.175   3.371   3.575  0.7404  0.0510  0.6299
20147TIP3    H181932   5.251   3.409   3.620 -0.2835  2.0110  0.8145
20147TIP3    H281933   5.189   3.392   3.483  1.8755 -2.2709  0.2024
20148TIP3   OH281934   1.573   2.261   0.990  0.0643  0.7002  0.1778
20148TIP3    H181935   1.639   2.262   0.921 -1.0942 -0.5014 -1.0131
20148TIP3    H281936   1.547   2.352   1.000 -1.7297  0.6645 -3.0326
20149TIP3   OH281937   0.850   4.681   1.084  0.5127 -0.1281  0.4306
20149TIP3    H181938   0.787   4.629   1.033  1.0750  1.3822 -1.9608
20149TIP3    H281939   0.890   4.618   1.144 -2.2345 -1.4180  1.0618
20150TIP3   OH281940   4.928   2.139   2.898 -0.1762  0.1002 -0.7750
20150TIP3    H181941   4.927   2.170   2.989  1.0058  1.1172 -1.0763
20150TIP3    H281942   5.002   2.079   2.894 -0.5304 -0.3277 -0.9575
20151TIP3   OH281943   5.181   4.840  15.931 -0.1951 -0.0381  0.5379
20151TIP3    H181944   5.232   4.917  15.955  1.1789 -0.5100 -0.6998
20151TIP3    H281945   5.156   4.856  15.840 -0.4660 -0.7550  0.4799
20152TIP3   OH281946   2.584   2.285  14.749 -0.0929  0.4594 -0.1223
20152TIP3    H181947   2.612   2.249  14.664 -0.7439  0.3085 -0.2780
20152TIP3    H281948   2.586   2.380  14.736  2.0461  0.5319  0.4219
20153TIP3   OH281949   5.786   6.212  14.101 -0.0670  0.1570  0.0049
20153TIP3    H181950   5.809   6.125  14.133  1.1942 -0.6837 -2.8075
20153TIP3    H281951   5.857   6.268  14.132 -0.9823  0.2868  1.9899
20154TIP3   OH281952   5.716   2.556   0.028 -0.2405 -0.0640  0.0648
20154TIP3    H181953   5.740   2.524  -0.059 -1.8136 -1.9353  0.2574
20154TIP3    H281954   5.734   2.650   0.024 -1.5422  0.1873 -2.7583
20155TIP3   OH281955   1.146   3.787  11.280 -0.3746 -0.8501 -0.1341
20155TIP3    H181956   1.177   3.721  11.217  0.2688 -0.9433  0.2714
20155TIP3    H281957   1.144   3.868  11.230  3.0422 -0.2783  0.4061
20156TIP3   OH281958   6.671   1.320   4.927 -0.2056 -0.4272  0.7582
20156TIP3    H181959   6.700   1.323   4.836 -0.8230 -0.7077  0.5444
20156TIP3    H281960   6.712   1.242   4.963  0.7572  0.1730  0.9787
20157TIP3   OH281961   4.211   1.173   4.583  0.1971 -0.1854  0.3092
20157TIP3    H181962   4.232   1.145   4.672 -0.5869 -0.2140  0.4991
20157TIP3    H281963   4.283   1.141   4.530 -0.5935 -2.5362  0.5105
20158TIP3   OH281964   0.086   5.481  15.127 -0.0395  0.1791 -0.0183
20158TIP3    H181965   0.058   5.572  15.138  0.2214  0.3559 -0.7284
20158TIP3    H281966   0.181   5.486  15.125 -0.0328 -0.0697 -0.3675
20159TIP3   OH281967   5.128   1.010  11.838  0.6741 -0.0734 -0.2585
20159TIP3    H181968   5.184   0.955  11.785  1.2300  0.2769 -0.0450
20159TIP3    H281969   5.039   0.986  11.813  0.9045 -1.1575 -0.0719
20160TIP3   OH281970   5.879   3.599  12.241 -0.7761 -0.0984  0.5935
20160TIP3    H181971   5.836   3.522  12.279 -1.3988 -0.1971 -0.2631
20160TIP3    H281972   5.868   3.668  12.307  1.2624 -1.1461  2.1101
20161TIP3   OH281973   2.986   3.698  16.999 -0.3765 -0.3697 -0.1432
20161TIP3    H181974   3.013   3.727  16.911  0.4967 -3.3546 -0.9647
20161TIP3    H281975   2.899   3.661  16.986 -0.7285  0.2088  0.5120
20162TIP3   OH281976   1.021   5.818   0.383 -0.1642  0.0674  0.3750
20162TIP3    H181977   0.975   5.774   0.454 -0.7063 -0.3088 -0.2067
20162TIP3    H281978   0.989   5.776   0.304 -1.1536  1.8842 -0.2544
20163TIP3   OH281979   5.380   2.126  15.482  0.1077 -0.2279 -0.2414
20163TIP3    H181980   5.382   2.109  15.576  0.4855 -1.3148 -0.4384
20163TIP3    H281981   5.406   2.218  15.475  1.3071 -0.4673  0.6467
20164TIP3   OH281982   6.208   3.872  17.208 -0.5890 -0.2448 -0.2894
20164TIP3    H181983   6.211   3.940  17.275 -0.1183 -1.0084  0.4773
20164TIP3    H281984   6.127   3.824  17.226 -0.9291  0.1125 -0.8392
20165TIP3   OH281985   5.217   2.251   4.909  0.4895 -0.4321 -0.5388
20165TIP3    H181986   5.211   2.262   5.004 -0.6482 -2.4506 -0.3183
20165TIP3    H281987   5.302   2.288   4.886  0.5239  0.6573  1.1509
20166TIP3   OH281988   5.319   1.784  13.000  0.3543  0.0030  0.1465
20166TIP3    H181989   5.400   1.827  13.028  1.7401  1.6874 -5.2905
20166TIP3    H281990   5.256   1.855  12.993  0.3454 -0.1254 -1.5155
20167TIP3   OH281991   4.119   5.585   1.707 -0.2677 -0.6488 -0.1071
20167TIP3    H181992   4.030   5.601   1.737 -0.4642  0.0424 -0.9949
20167TIP3    H281993   4.153   5.672   1.687  0.1002 -1.0045 -1.1168
20168TIP3   OH281994   5.566   3.551  15.564 -0.0058  0.2418  0.3139
20168TIP3    H181995   5.656   3.578  15.585  0.6981 -2.3162  0.9646
20168TIP3    H281996   5.512   3.622  15.598  1.7497  2.0733 -0.4804
20169TIP3   OH281997   0.725   1.084   5.756 -0.4428  0.2798 -0.1507
20169TIP3    H181998   0.677   1.083   5.839  1.2710 -0.3604  0.8657
20169TIP3    H281999   0.692   1.007   5.709 -0.5889 -0.0210  0.4350
20170TIP3   OH282000   1.704   5.007   0.581  0.0631 -0.1335 -0.4879
20170TIP3    H182001   1.666   4.958   0.508 -0.0861  0.1449 -0.5983
20170TIP3    H282002   1.736   5.088   0.542 -0.3747  0.1923 -0.1792
20171TIP3   OH282003   1.869   1.621   0.153 -0.2346 -0.0441 -0.0406
20171TIP3    H182004   1.804   1.685   0.127 -0.5316 -0.5232 -0.4896
20171TIP3    H282005   1.950   1.648   0.109 -0.2040  0.3739  0.2713
20172TIP3   OH282006   0.151   0.742   5.928 -0.2426 -0.1329  0.1719
20172TIP3    H182007   0.231   0.772   5.971 -0.5802 -1.1233  1.5537
20172TIP3    H282008   0.088   0.731   5.999 -0.8056 -1.9309 -0.5541
20173TIP3   OH282009   3.449   3.061  12.215  0.5561 -0.5307 -0.6702
20173TIP3    H182010   3.396   2.991  12.254  0.9333 -0.0695  0.7143
20173TIP3    H282011   3.508   3.089  12.285  0.5144  1.0820 -1.2347
20174TIP3   OH282012   4.922   6.620   3.502 -0.2531  0.5739 -0.1442
20174TIP3    H182013   4.946   6.528   3.503 -2.2902 -0.0044 -0.0100
20174TIP3    H282014   4.848   6.625   3.442 -0.8815  1.9134  0.6857
20175TIP3   OH282015   4.951   5.599   6.117  0.4113  0.2518  0.2754
20175TIP3    H182016   4.975   5.635   6.203  0.0694 -0.2954  0.6056
20175TIP3    H282017   4.876   5.543   6.135  0.7098 -0.3408 -0.2901
20176TIP3   OH282018   4.627   5.951   2.054 -0.1417  0.9258 -0.1877
20176TIP3    H182019   4.642   5.864   2.017 -0.6810  0.5932  0.3477
20176TIP3    H282020   4.700   5.965   2.114  1.1630  1.7897 -1.8869
20177TIP3   OH282021   5.704   1.405  11.671  0.5137 -0.6003  0.4508
20177TIP3    H182022   5.683   1.370  11.584 -0.3161 -0.1375  0.4514
20177TIP3    H282023   5.739   1.330  11.719 -0.7161 -1.3165  0.2829
20178TIP3   OH282024   5.638   2.133   6.534  0.6192 -0.1233 -0.2654
20178TIP3    H182025   5.653   2.186   6.612 -1.8585 -0.4657  0.5391
20178TIP3    H282026   5.725   2.119   6.497  2.1137 -1.2195  3.2541
20179TIP3   OH282027   4.225   1.338   0.513 -0.5143 -0.0525 -0.1309
20179TIP3    H182028   4.266   1.252   0.526 -0.4693 -0.0869 -0.4943
20179TIP3    H282029   4.182   1.332   0.428 -1.8165 -0.2228  0.5181
20180TIP3   OH282030   1.080   1.834  13.524  0.6408 -0.1934 -0.0954
20180TIP3    H182031   1.091   1.749  13.565 -1.3707 -1.2116 -1.4654
20180TIP3    H282032   1.133   1.830  13.445  1.7255  0.4279  0.5794
20181TIP3   OH282033   5.243   3.437  14.816 -0.3960 -0.2759  0.0250
20181TIP3    H182034   5.187   3.370  14.855 -0.7929  0.4361  0.6818
20181TIP3    H282035   5.194   3.469  14.740 -1.7418  1.6063  1.5949
20182TIP3   OH282036   6.304   1.098   2.158  0.8866 -0.2505  0.1554
20182TIP3    H182037   6.394   1.105   2.189  0.5689 -0.1264  1.0810
20182TIP3    H282038   6.309   1.046   2.077  2.2124  2.5278 -1.7200
20183TIP3   OH282039   3.313   3.473   3.270  0.0512 -0.0810 -0.1427
20183TIP3    H182040   3.345   3.388   3.301 -0.6740 -0.8551 -1.4637
20183TIP3    H282041   3.273   3.455   3.185 -1.9520  1.2315  0.4559
20184TIP3   OH282042   1.192   3.911   1.724  0.3264 -0.3997  0.2311
20184TIP3    H182043   1.210   3.842   1.788  1.6723 -1.6836 -1.4109
20184TIP3    H282044   1.158   3.984   1.775 -0.5780 -2.0697  2.1226
20185TIP3   OH282045   2.995   1.814   3.268  0.1680 -0.3971  0.0286
20185TIP3    H182046   3.025   1.745   3.209  0.4372  0.1939 -0.5450
20185TIP3    H282047   3.034   1.792   3.353  0.3671 -0.8669 -0.1795
20186TIP3   OH282048   2.898   4.767   0.490  0.6688 -0.1145  0.2336
20186TIP3    H182049   2.934   4.705   0.428  0.3911  0.9764 -1.0674
20186TIP3    H282050   2.969   4.830   0.505  0.0817  0.7899 -0.6230
20187TIP3   OH282051   4.066   2.883   5.726 -0.3147 -0.4417  0.5900
20187TIP3    H182052   4.098   2.810   5.778  1.4774  0.0384  0.2579
20187TIP3    H282053   4.122   2.882   5.648 -2.6273 -0.8880 -1.1767
20188TIP3   OH282054   1.489   3.945  11.808 -0.5593  0.3642  0.1456
20188TIP3    H182055   1.513   3.854  11.790 -1.1622  0.1968  0.1451
20188TIP3    H282056   1.397   3.951  11.780 -0.9258  0.6151  1.3425
20189TIP3   OH282057   1.751   6.476   4.533  0.0817  0.3485 -0.3211
20189TIP3    H182058   1.811   6.410   4.498 -0.5264 -0.2706 -0.2009
20189TIP3    H282059   1.743   6.541   4.463  0.9492  0.4849 -0.3097
20190TIP3   OH282060   3.665   3.487   4.453  0.4527  0.1489 -0.0283
20190TIP3    H182061   3.671   3.517   4.543 -0.3762  2.1448 -0.5995
20190TIP3    H282062   3.714   3.551   4.402  0.5719 -0.7257 -1.0674
20191TIP3   OH282063   1.674   5.167   0.359  0.0362  0.2554 -0.0869
20191TIP3    H182064   1.586   5.178   0.323  0.6463  1.7595 -1.2518
20191TIP3    H282065   1.712   5.095   0.308 -0.0583  0.5367 -0.5618
20192TIP3   OH282066   4.567   4.466  16.402 -0.2494 -0.0736 -0.2021
20192TIP3    H182067   4.546   4.508  16.485  2.3605  0.0200  0.4841
20192TIP3    H282068   4.651   4.504  16.375 -0.3379 -1.1179 -2.1896
20193TIP3   OH282069   0.890   0.423   2.731 -0.1473 -0.1013  0.2488
20193TIP3    H182070   0.920   0.513   2.738 -0.0831  0.0271 -1.3267
20193TIP3    H282071   0.963   0.377   2.690 -0.2835 -0.8304  0.7932
20194TIP3   OH282072   4.069   5.172   3.700 -0.7610 -0.4351 -0.3971
20194TIP3    H182073   4.147   5.225   3.714 -1.9070  1.1810  0.0984
20194TIP3    H282074   4.103   5.083   3.688  1.0967  0.0915  0.5543
20195TIP3   OH282075   2.273   0.894  14.064 -0.3936  0.3320 -0.2391
20195TIP3    H182076   2.198   0.900  14.123 -0.7465 -1.2661 -0.5042
20195TIP3    H282077   2.291   0.985  14.040  0.3816  1.2202  3.0765
20196TIP3   OH282078   3.677   3.939   5.117  0.2237  0.3902  0.3845
20196TIP3    H182079   3.665   3.977   5.205 -0.5538  0.7958  0.1137
20196TIP3    H282080   3.710   4.011   5.064  1.1079  0.0330  0.4298
20197TIP3   OH282081   4.587   5.282   0.295  0.2604  0.0133 -0.2383
20197TIP3    H182082   4.649   5.310   0.227 -0.4379 -2.1589 -1.9107
20197TIP3    H282083   4.501   5.300   0.257 -0.1583  0.2959  0.8164
20198TIP3   OH282084   0.525   1.629  13.443 -0.0152 -0.2500 -0.0762
20198TIP3    H182085   0.592   1.668  13.498 -1.3983  0.2711  1.3400
20198TIP3    H282086   0.444   1.675  13.468 -1.6082 -3.3529  1.1189
20199TIP3   OH282087   0.618   3.680  14.022 -0.5974 -0.6231 -0.1942
20199TIP3    H182088   0.647   3.749  13.963 -0.1589  0.6280  1.4211
20199TIP3    H282089   0.523   3.694  14.031 -0.3017  0.8084  1.3072
20200TIP3   OH282090   1.709   0.286  14.349  0.1474 -0.0060 -0.3342
20200TIP3    H182091   1.760   0.214  14.385  1.6830 -0.2911 -2.8482
20200TIP3    H282092   1.762   0.364  14.364 -1.1112  0.5304  1.6016
20201TIP3   OH282093   1.677   3.220  14.899  0.4987 -0.3023 -0.5049
20201TIP3    H182094   1.669   3.270  14.818  1.3919 -1.5975 -1.4578
20201TIP3    H282095   1.587   3.206  14.928  0.2150  3.0101  0.6301
20202TIP3   OH282096   0.537   1.832   6.200  0.1359 -0.4418  0.1556
20202TIP3    H182097   0.586   1.775   6.141  0.1824  1.2570 -1.5600
20202TIP3    H282098   0.602   1.890   6.238 -0.2853  0.9161 -1.0720
20203TIP3   OH282099   3.181   2.572   1.881  0.4560 -0.0991 -0.3866
20203TIP3    H182100   3.117   2.529   1.937  1.3316 -1.9095 -0.6992
20203TIP3    H282101   3.172   2.665   1.901 -4.4029  0.1887 -2.6627
20204TIP3   OH282102   2.282   4.805  15.667 -0.3099 -0.2179 -0.4638
20204TIP3    H182103   2.343   4.812  15.593 -1.0208 -1.5888 -1.2286
20204TIP3    H282104   2.198   4.834  15.631 -0.4810 -0.0637  0.0581
20205TIP3   OH282105   1.604   4.794  17.279  0.3061  0.5621 -0.0637
20205TIP3    H182106   1.599   4.720  17.340  0.0928  0.8216  0.2409
20205TIP3    H282107   1.539   4.774  17.212  0.3676  0.3917 -0.0715
20206TIP3   OH282108   1.740   2.418  13.982 -0.6053 -0.1970 -0.1406
20206TIP3    H182109   1.810   2.460  14.032  0.8090 -2.4918 -0.0472
20206TIP3    H282110   1.691   2.368  14.047 -0.8267 -0.5431 -0.5726
20207TIP3   OH282111   3.931   3.255   5.988 -0.1024  0.4192  0.4784
20207TIP3    H182112   3.987   3.259   5.911 -1.0510  1.3404 -0.2085
20207TIP3    H282113   3.851   3.300   5.961 -0.5931  0.4499  1.8960
20208TIP3   OH282114   3.695   1.100   0.004 -0.3582 -0.5095 -0.0712
20208TIP3    H182115   3.768   1.140   0.050 -1.0306 -0.6107  1.1247
20208TIP3    H282116   3.735   1.034  -0.052  0.6591  0.9819 -1.1903
20209TIP3   OH282117   4.110   6.182   6.147 -0.0007 -0.0518 -0.0129
20209TIP3    H182118   4.188   6.134   6.118  0.2924  0.9463 -0.9444
20209TIP3    H282119   4.052   6.114   6.181  0.8310 -0.9443 -0.3211
20210TIP3   OH282120   0.934   0.016  13.795 -0.5200 -0.2226  1.0371
20210TIP3    H182121   0.964   0.096  13.751 -3.0282 -0.3815 -1.2203
20210TIP3    H282122   1.014  -0.027  13.824  1.2175  0.9109 -1.6993
20211TIP3   OH282123   4.314   2.523  15.340  0.1547 -0.3506  0.3583
20211TIP3    H182124   4.232   2.504  15.385  1.1007 -1.2133  1.8025
20211TIP3    H282125   4.312   2.618  15.325 -0.9175 -0.3056  0.6917
20212TIP3   OH282126   6.560   6.174  15.853  0.4044  0.3856 -0.4102
20212TIP3    H182127   6.650   6.166  15.885 -0.1799  0.2482  1.2871
20212TIP3    H282128   6.564   6.141  15.763  2.0293  0.2980 -0.3391
20213TIP3   OH282129   5.611   5.357   4.298 -0.2010 -0.3673 -0.3387
20213TIP3    H182130   5.609   5.383   4.391  1.7551 -1.3678  0.0526
20213TIP3    H282131   5.696   5.390   4.267 -0.7947 -0.1462 -1.7521
20214TIP3   OH282132   2.168   3.157   2.119  0.3753 -0.2444  0.3857
20214TIP3    H182133   2.110   3.118   2.184 -1.2273  0.5365 -0.5051
20214TIP3    H282134   2.116   3.228   2.081  1.2415 -0.6876 -1.7515
20215TIP3   OH282135   2.348   3.376   5.947 -0.1462  0.2624  0.3387
20215TIP3    H182136   2.429   3.405   5.988  0.0856  0.8966 -0.5426
20215TIP3    H282137   2.322   3.299   5.998  1.5338 -0.5469  0.0406
20216TIP3   OH282138   4.839   0.873  13.383 -0.1449 -0.3014  0.1013
20216TIP3    H182139   4.765   0.888  13.324 -0.2753 -0.1013  0.3158
20216TIP3    H282140   4.882   0.958  13.389 -0.7336 -0.0553  1.1140
20217TIP3   OH282141   4.517   4.225  11.296  0.5219 -0.2084 -0.4369
20217TIP3    H182142   4.563   4.255  11.217 -1.1029 -1.5806 -1.9860
20217TIP3    H282143   4.435   4.275  11.297  0.6617  0.0337  0.5986
20218TIP3   OH282144   0.209   6.314  14.108  0.3530  0.0592  0.9106
20218TIP3    H182145   0.184   6.288  14.020 -0.1976  0.8360  0.8198
20218TIP3    H282146   0.272   6.385  14.095 -0.0250  0.4423  1.1320
20219TIP3   OH282147   2.919   4.387  14.803  0.5139 -0.0764  0.5489
20219TIP3    H182148   2.916   4.451  14.732  0.7602 -0.1871  0.4385
20219TIP3    H282149   2.997   4.409  14.853  0.4386 -0.1096  0.6825
20220TIP3   OH282150   2.373   4.864  13.979  0.5334  0.4544  0.0064
20220TIP3    H182151   2.412   4.778  13.994  0.4802  0.2819 -0.7743
20220TIP3    H282152   2.325   4.883  14.060  2.1576  0.6523  0.9758
20221TIP3   OH282153   5.211   6.716  13.937 -0.1415 -0.0691 -0.4474
20221TIP3    H182154   5.189   6.667  14.017  0.6238 -0.5686 -0.5359
20221TIP3    H282155   5.170   6.802  13.950 -1.1156 -0.5674 -0.0875
20222TIP3   OH282156   5.893   4.199  11.162 -0.0526  0.7263  0.4898
20222TIP3    H182157   5.826   4.132  11.149  0.1664 -0.2208  3.5180
20222TIP3    H282158   5.968   4.168  11.111 -0.5811 -0.3598  0.3404
20223TIP3   OH282159   5.767   6.545   1.934  0.0703 -0.0015 -0.9021
20223TIP3    H182160   5.675   6.558   1.956  0.8705 -0.7667  4.0487
20223TIP3    H282161   5.782   6.452   1.948  2.0345  0.5302  1.2042
20224TIP3   OH282162   4.280   3.951   5.262 -0.2879 -0.1202 -0.1225
20224TIP3    H182163   4.354   4.010   5.271  0.5600 -1.3482  1.6462
20224TIP3    H282164   4.306   3.889   5.194 -0.9178  1.1011 -1.5275
20225TIP3   OH282165   3.166   1.361  11.043 -0.0386 -0.1547 -0.1356
20225TIP3    H182166   3.130   1.282  11.001 -0.1931 -0.4748  0.5943
20225TIP3    H282167   3.097   1.426  11.034  0.5865  0.3381 -1.9449
20226TIP3   OH282168   2.570   1.059   1.591  0.0190 -0.2054 -0.5629
20226TIP3    H182169   2.584   0.985   1.651  1.5390 -2.1917 -3.1490
20226TIP3    H282170   2.564   1.135   1.648  0.4858 -2.0311  2.1368
20227TIP3   OH282171   5.587   2.274  14.486 -0.5419  0.2159 -0.6583
20227TIP3    H182172   5.534   2.201  14.517 -0.8332  0.8048  0.2587
20227TIP3    H282173   5.668   2.269  14.535 -1.6843  2.1890  1.6470
20228TIP3   OH282174   3.484   0.366  17.252 -0.0130 -0.2768 -0.2413
20228TIP3    H182175   3.410   0.418  17.220 -1.1789 -0.9660  1.2097
20228TIP3    H282176   3.528   0.423  17.316  1.8707  0.8193 -2.3637
20229TIP3   OH282177   6.495   3.053  13.897  0.2424  0.1725  0.0437
20229TIP3    H182178   6.482   3.148  13.891  0.6538  0.4161  2.3253
20229TIP3    H282179   6.516   3.027  13.807 -2.8105  1.7238 -1.2622
20230TIP3   OH282180   2.272   1.258   5.728  0.0695 -0.7467  0.6138
20230TIP3    H182181   2.333   1.320   5.769  0.6506 -1.8639  1.4636
20230TIP3    H282182   2.220   1.224   5.800 -2.5306  1.1057 -0.2019
20231TIP3   OH282183   3.576   5.489   1.752 -0.5259  0.6543  0.1714
20231TIP3    H182184   3.631   5.417   1.783 -1.7784 -1.4178 -2.0981
20231TIP3    H282185   3.629   5.532   1.685 -0.6797  0.2774 -0.1974
20232TIP3   OH282186   5.579   5.729   4.418  0.3226 -0.1857 -0.6869
20232TIP3    H182187   5.570   5.664   4.487  0.1268  1.9359  1.4204
20232TIP3    H282188   5.674   5.738   4.405  0.4039  0.2075  0.1443
20233TIP3   OH282189   5.247   2.959  14.450 -0.0076  0.3017 -0.0347
20233TIP3    H182190   5.235   2.865  14.433  0.7536  0.2961 -0.5763
20233TIP3    H282191   5.158   2.992  14.463 -0.2240 -0.6475  1.0238
20234TIP3   OH282192   1.337   1.054  15.373  0.1184 -0.7231  0.0901
20234TIP3    H182193   1.330   1.112  15.297 -0.8940 -1.7124 -0.6093
20234TIP3    H282194   1.404   0.990  15.348  0.1165 -0.7744  0.2157
20235TIP3   OH282195   3.109   3.248   4.291 -0.2969 -0.3442 -0.2476
20235TIP3    H182196   3.172   3.304   4.336 -1.2774  0.3596  0.2779
20235TIP3    H282197   3.091   3.177   4.353 -0.2922 -0.3550 -0.2586
20236TIP3   OH282198   1.984   1.576  16.679 -0.0946  0.2817 -1.2439
20236TIP3    H182199   2.039   1.651  16.704  0.6090 -0.6262  0.0943
20236TIP3    H282200   1.895   1.606  16.693  0.2051  0.0080  2.3014
20237TIP3   OH282201   1.597   0.975   3.894 -0.2437  0.0927 -0.6089
20237TIP3    H182202   1.687   0.951   3.876  0.9663  1.5114  2.6934
20237TIP3    H282203   1.557   0.896   3.931  0.3668  0.0587 -0.0014
20238TIP3   OH282204   3.527   6.727  12.301  0.3400  0.0469  0.5809
20238TIP3    H182205   3.550   6.729  12.394 -0.5765 -0.4267  0.8265
20238TIP3    H282206   3.610   6.712  12.256  0.9370  1.1992  1.2528
20239TIP3   OH282207   1.297   0.510   0.977  0.1733  0.2458  0.2342
20239TIP3    H182208   1.271   0.530   0.888  0.7998  0.2760  0.0489
20239TIP3    H282209   1.249   0.431   1.000 -1.1338  1.0650  0.4135
20240TIP3   OH282210   3.242   1.301   2.435 -0.1266 -0.0836  0.1393
20240TIP3    H182211   3.240   1.205   2.433 -0.6321 -0.0942  1.0615
20240TIP3    H282212   3.208   1.327   2.349  1.7480 -0.7276 -0.8671
20241TIP3   OH282213   1.528   1.074   5.227  0.0150  0.2763  0.0299
20241TIP3    H182214   1.601   1.092   5.285 -0.3573 -0.4443  0.7364
20241TIP3    H282215   1.561   1.009   5.165  0.0569  0.1917  0.1436
20242TIP3   OH282216   1.912   1.396  12.585  0.2460 -0.2074 -0.3574
20242TIP3    H182217   1.973   1.377  12.515  0.3729 -1.0309 -0.0374
20242TIP3    H282218   1.869   1.312  12.604  0.4042 -0.0686  0.7184
20243TIP3   OH282219   3.877   3.683   3.968 -0.2500  0.1932 -0.2051
20243TIP3    H182220   3.888   3.758   4.027 -1.1111  1.2218 -1.3013
20243TIP3    H282221   3.799   3.639   4.000 -1.0561  1.0872 -0.8980
20244TIP3   OH282222   5.526   6.055   5.314 -0.2215 -0.1172  0.0742
20244TIP3    H182223   5.432   6.053   5.332 -0.3207  0.1918 -0.3921
20244TIP3    H282224   5.559   6.128   5.367 -0.5136  0.7953 -0.9675
20245TIP3   OH282225   2.387   2.707   5.512  0.6195  0.7145  0.0618
20245TIP3    H182226   2.410   2.733   5.422  1.4992  0.4171  0.1872
20245TIP3    H282227   2.292   2.713   5.515  0.3432 -1.3736 -1.5821
20246TIP3   OH282228   5.655   3.702  17.156  0.6894 -0.2339  0.3914
20246TIP3    H182229   5.613   3.788  17.151 -0.6023 -0.8957 -0.7609
20246TIP3    H282230   5.626   3.667  17.241 -2.9155 -1.4944 -1.1784
20247TIP3   OH282231   2.457   0.768   0.101 -0.5003  0.0489  0.8603
20247TIP3    H182232   2.443   0.675   0.085 -1.2971  0.5217 -1.7243
20247TIP3    H282233   2.369   0.807   0.098 -0.0871  1.0185  0.6636
20248TIP3   OH282234   5.887   5.624  15.685 -0.0040  0.2723  0.0942
20248TIP3    H182235   5.890   5.581  15.600  0.0759 -0.7648  0.6066
20248TIP3    H282236   5.977   5.620  15.718 -0.1152  0.2907  0.4079
20249LIG      S82237   3.544   3.222  16.055  0.1121 -0.1748 -0.0283
20249LIG     F182238   3.363   3.501  17.395 -0.6365  0.1183  0.4635
20249LIG     F282239   3.438   3.297  17.414 -0.2247 -1.0093 -0.2505
20249LIG     F382240   3.542   3.450  17.297 -0.4165  0.3968  0.5329
20249LIG     N182241   3.519   3.199  16.539  0.1367 -0.3018  0.5471
20249LIG     N282242   3.313   3.073  16.220  0.7115  0.5191 -0.7763
20249LIG     C182243   3.416   3.152  16.294 -0.1031 -0.1644 -0.4638
20249LIG     C282244   3.430   3.115  16.447  0.3506 -0.2617 -0.5486
20249LIG     C382245   3.511   3.346  16.525 -0.5324 -0.1057  0.3625
20249LIG     C482246   3.518   3.166  16.683 -0.0158  0.3468  0.5723
20249LIG     C582247   3.386   3.384  16.589  0.6481  0.1528  0.4213
20249LIG     C682248   3.386   3.200  16.753  0.8570 -0.5108 -0.4714
20249LIG     C782249   3.374   3.353  16.736 -0.7521 -0.1113  0.2078
20249LIG     C882250   3.557   3.153  16.222  0.4500 -0.0060 -0.6308
20249LIG     C982251   3.277   3.138  16.089 -0.8665  0.2266  0.5319
20249LIG    C1082252   3.409   3.122  16.002  0.0760  0.4373  0.6360
20249LIG    C1182253   3.335   3.434  16.835  0.1133 -0.2698  0.2818
20249LIG    C1282254   3.324   2.923  16.220 -0.0635 -0.8620 -0.8112
20249LIG    C1382255   3.291   3.390  16.962  0.0062 -0.4468 -0.4966
20249LIG    C1482256   3.332   3.578  16.801  0.7433  0.2741  0.2383
20249LIG    C1582257   3.376   3.409  17.079  0.3032 -0.4573  0.1899
20249LIG    C1682258   3.187   3.293  16.978  0.2896 -0.2272  0.2503
20249LIG    C1782259   3.449   3.654  16.810 -0.0650  0.1961  0.4009
20249LIG    C1882260   3.214   3.644  16.774 -0.1323  0.1868  0.0693
20249LIG    C1982261   3.339   3.361  17.205  0.1220  0.0685 -0.3470
20249LIG    C2082262   3.155   3.251  17.108  0.4118 -1.0523  0.2056
20249LIG    C2182263   3.445   3.794  16.794  0.5011  0.1886  0.3216
20249LIG    C2282264   3.209   3.788  16.758 -0.9732 -0.9308 -0.2686
20249LIG    C2382265   3.228   3.279  17.217 -0.5050 -0.4742  0.5258
20249LIG    C2482266   3.325   3.861  16.775  0.8599  1.3551  0.2118
20249LIG    C2582267   3.419   3.396  17.322  0.2754  0.2948  0.4165
20249LIG     H182268   3.375   3.255  16.289 -1.1225 -0.5807 -0.9227
20249LIG     H282269   3.326   3.120  16.485  0.7854 -2.9514  1.3217
20249LIG     H382270   3.466   3.009  16.449  1.2034  0.0244 -0.1435
20249LIG     H482271   3.511   3.371  16.417  0.4602 -1.4924  0.0069
20249LIG     H582272   3.586   3.414  16.569  0.3291 -0.0195 -1.1570
20249LIG     H682273   3.598   3.216  16.741 -0.6809  1.9992  0.1315
20249LIG     H782274   3.541   3.058  16.683  3.0145  0.9060  0.6614
20249LIG     H882275   3.299   3.345  16.533  1.2145 -2.1926  1.0564
20249LIG     H982276   3.380   3.494  16.572 -0.4365  0.1553  0.7368
20249LIG    H1082277   3.395   3.174  16.861 -3.0855 -0.0416  0.1087
20249LIG    H1182278   3.293   3.153  16.715  0.4181  0.5509 -0.7495
20249LIG    H1282279   3.634   3.214  16.273  0.8738  0.4396 -1.7910
20249LIG    H1382280   3.587   3.046  16.229  0.8574  0.1605  0.3072
20249LIG    H1482281   3.253   3.246  16.097 -0.9590  0.1134  2.2579
20249LIG    H1582282   3.190   3.088  16.041  0.0387  1.0963 -2.1947
20249LIG    H1682283   3.447   3.018  15.996  3.1069  1.5013 -0.7511
20249LIG    H1782284   3.389   3.138  15.894  3.0143 -1.6891 -0.3529
20249LIG    H1882285   3.315   2.882  16.323 -2.0399  3.9278  1.2217
20249LIG    H1982286   3.417   2.892  16.168  2.5652  1.1322  2.3283
20249LIG    H2082287   3.229   2.887  16.175 -0.2330 -1.9563  0.3682
20249LIG    H2182288   3.463   3.471  17.061  1.8541 -2.2518  1.1659
20249LIG    H2282289   3.131   3.268  16.890  0.3648  2.1160 -0.5273
20249LIG    H2382290   3.543   3.609  16.836  0.7857  0.4551 -1.9858
20249LIG    H2482291   3.120   3.592  16.775 -0.5080  0.8487  1.0628
20249LIG    H2582292   3.075   3.182  17.131 -0.3490  0.0138  0.8529
20249LIG    H2682293   3.537   3.839  16.828 -0.2792  1.1623  1.2412
20249LIG    H2782294   3.116   3.839  16.740 -0.4956 -0.0816 -0.3677
20249LIG    H2882295   3.199   3.243  17.314 -2.5511 -2.9109 -0.8718
20249LIG    H2982296   3.322   3.968  16.760  3.5339  1.7148  1.7676
   6.78364   6.78364  17.51044
